                              Psi4 1.0.54 Driver

  ==> Input File <==

--------------------------------------------------------------------------
set {
	reference rhf
	basis cc-pvtz
}

set_num_threads( 4 )
memory 2 gb

molecule MOL {
0 1

H	 -1.348303	 -1.996154	 -1.104378
N	 -0.641505	 -1.295853	 -1.179130
C	 -0.561396	 -0.500007	 0.035200
H	 -0.874220	 -0.724957	 -1.964788
C	 0.575129	 0.507849	 -0.048832
H	 -0.377891	 -1.175936	 0.863852
H	 -1.490056	 0.026396	 0.260818
C	 1.951750	 -0.141983	 0.035101
H	 0.478254	 1.061643	 -0.975981
H	 0.467676	 1.231891	 0.755499
H	 2.101550	 -0.848142	 -0.774949
H	 2.738260	 0.600794	 -0.026526
H	 2.078939	 -0.679792	 0.968824

	symmetry c1
}
set optking {
	frozen_dihedral = ("
		6 3 5 9
	")
}

ee,wfn = optimize('scf', return_wfn=True)
oeprop( wfn, 'DIPOLE', 'QUADRUPOLE', 'MULLIKEN_CHARGES')
f=open( 'psi4out.xyz', 'w' )
f.write( "13  " )
f.write( str(ee) + "\n" )
f.write( MOL.save_string_xyz() )
f.close()
--------------------------------------------------------------------------

    Molecular point group: c1
  Charge       = 0
  Multiplicity = 1
  Basis Set: CC-PVTZ
  Basis Set:
  @DF-RHF Final Energy:  -173.35170161126831
    Total Energy =                       -173.3517016112683393
    Molecular point group: c1
  Basis Set: CC-PVTZ
  Basis Set:
  Basis Set: CC-PVTZ
  Basis Set:
  @DF-RHF Final Energy:  -173.35185793409224
    Total Energy =                       -173.3518579340921804
  Basis Set: CC-PVTZ
  Basis Set:
  Basis Set: CC-PVTZ
  Basis Set:
  @DF-RHF Final Energy:  -173.35188497830933
    Total Energy =                       -173.3518849783094140
  Basis Set: CC-PVTZ
  Basis Set:
  Basis Set: CC-PVTZ
  Basis Set:
  @DF-RHF Final Energy:  -173.35188626205664
    Total Energy =                       -173.3518862620567234
  Basis Set: CC-PVTZ
  Basis Set:
  Charge       = 0
  Multiplicity = 1
  Basis Set: CC-PVTZ
  Basis Set:

    Orbital Energies (a.u.)
    -----------------------

    Doubly Occupied:

       1A    -15.527271     2A    -11.238928     3A    -11.210742
       4A    -11.197883     5A     -1.178913     6A     -1.030380
       7A     -0.901505     8A     -0.793457     9A     -0.664347
      10A     -0.629956    11A     -0.602945    12A     -0.558960
      13A     -0.529795    14A     -0.490264    15A     -0.475047
      16A     -0.467613    17A     -0.383566

  @DF-RHF Final Energy:  -173.35188643543987

   => Energetics <=

    Nuclear Repulsion Energy =            133.6988030661571827
    One-Electron Energy =                -498.3382332601695452
    Two-Electron Energy =                 191.2875437585725535
    DFT Exchange-Correlation Energy =       0.0000000000000000
    Empirical Dispersion Energy =           0.0000000000000000
    PCM Polarization Energy =               0.0000000000000000
    EFP Energy =                            0.0000000000000000
    Total Energy =                       -173.3518864354397806
    Molecular point group: c1
  Basis Set: CC-PVTZ
  Basis Set:

  -Total Gradient:
     Atom            X                  Y                   Z
    ------   -----------------  -----------------  -----------------
       1       -0.000001505349     0.000008075671     0.000003229912
       2       -0.000003027201     0.000001713368    -0.000008410811
       3       -0.000747935242     0.000941428625     0.001045381655
       4       -0.000000402839    -0.000005556069     0.000002834645
       5       -0.000896322940     0.001083655556     0.000680183979
       6        0.000765125642    -0.000957159641    -0.000978906035
       7        0.000005867275    -0.000008088390    -0.000010986663
       8        0.000021218972    -0.000001348375    -0.000002945180
       9        0.000871236014    -0.001071106899    -0.000736076008
      10        0.000001718151     0.000008388190     0.000005443930
      11       -0.000004450209    -0.000000573126     0.000001019441
      12       -0.000012458778    -0.000002794210     0.000006107410
      13        0.000000936506     0.000003365299    -0.000006876276

  **** Optimization is complete! (in 5 steps) ****
    Final optimized geometry and variables:
    Molecular point group: c1

    Geometry (in Angstrom), charge = 0, multiplicity = 1:

    H           -1.646726670973    -1.633316665659    -0.775137586761
    N           -0.969862965053    -0.906273384070    -0.867047987934
    C           -0.877113769698    -0.115991539154     0.352356352789
    H           -1.249219352434    -0.337848757950    -1.639141754810
    C            0.275516375530     0.879537706644     0.274670507954
    H           -0.699325670521    -0.805217702603     1.171229577125
    H           -1.799185208496     0.418781472608     0.577511972594
    C            1.651696495853     0.222718087492     0.319263072542
    H            0.183103041777     1.449197225512    -0.647032491784
    H            0.181524146560     1.589748021520     1.090388097055
    H            1.760736385744    -0.499121478944    -0.479074987222
    H            2.438647680416     0.961955569223     0.220075832680
    H            1.802711292002    -0.295377367492     1.260937664183

  Mulliken Charges: (a.u.)
   Center  Symbol    Alpha    Beta     Spin     Total
       1     H     0.42868  0.42868  0.00000  0.14265
       2     N     3.69201  3.69201  0.00000 -0.38403
       3     C     3.03099  3.03099  0.00000 -0.06198
       4     H     0.43053  0.43053  0.00000  0.13893
       5     C     3.08129  3.08129  0.00000 -0.16259
       6     H     0.45871  0.45871  0.00000  0.08257
       7     H     0.46052  0.46052  0.00000  0.07897
       8     C     3.14669  3.14669  0.00000 -0.29337
       9     H     0.46005  0.46005  0.00000  0.07989
      10     H     0.45286  0.45286  0.00000  0.09429
      11     H     0.44692  0.44692  0.00000  0.10617
      12     H     0.45199  0.45199  0.00000  0.09602
      13     H     0.45876  0.45876  0.00000  0.08248

   Total alpha = 17.00000, Total beta = 17.00000, Total charge = -0.00000

*** Psi4 exiting successfully. Buy a developer a beer!
