                              Psi4 1.0.54 Driver

  ==> Input File <==

--------------------------------------------------------------------------
set {
	reference rhf
	basis cc-pvtz
}

set_num_threads( 4 )
memory 2 gb

molecule MOL {
0 1

H	 -2.362939	 -1.309000	 -0.383250
C	 -1.359344	 -1.272457	 0.020748
C	 -0.684082	 0.000127	 -0.464918
H	 -0.825835	 -2.151141	 -0.318537
H	 -1.416276	 -1.292399	 1.099455
C	 -1.359089	 1.272668	 0.021259
N	 0.742439	 -0.000109	 0.007333
H	 -0.596914	 0.000345	 -1.538146
H	 -2.362696	 1.309620	 -0.382686
H	 -0.825392	 2.151374	 -0.317674
H	 -1.415983	 1.292181	 1.099973
O	 0.928426	 -0.000373	 1.177398
O	 1.592161	 -0.000184	 -0.819868

	symmetry c1
}
set optking {
	frozen_dihedral = ("
		12 7 3 8
	")
}

ee,wfn = optimize('scf', return_wfn=True)
oeprop( wfn, 'DIPOLE', 'QUADRUPOLE', 'MULLIKEN_CHARGES')
f=open( 'psi4out.xyz', 'w' )
f.write( "13  " )
f.write( str(ee) + "\n" )
f.write( MOL.save_string_xyz() )
f.close()
--------------------------------------------------------------------------

    Molecular point group: c1
  Charge       = 0
  Multiplicity = 1
  Basis Set: CC-PVTZ
  Basis Set:
  @DF-RHF Final Energy:  -321.86462605093260
    Total Energy =                       -321.8646260509327703
    Molecular point group: c1
  Basis Set: CC-PVTZ
  Basis Set:
  Basis Set: CC-PVTZ
  Basis Set:
  @DF-RHF Final Energy:  -321.86462953827760
    Total Energy =                       -321.8646295382775975
  Basis Set: CC-PVTZ
  Basis Set:
  Basis Set: CC-PVTZ
  Basis Set:
  @DF-RHF Final Energy:  -321.86452146383886
    Total Energy =                       -321.8645214638389689
  Basis Set: CC-PVTZ
  Basis Set:
  Basis Set: CC-PVTZ
  Basis Set:
  @DF-RHF Final Energy:  -321.86463002645087
    Total Energy =                       -321.8646300264509819
  Basis Set: CC-PVTZ
  Basis Set:
  Charge       = 0
  Multiplicity = 1
  Basis Set: CC-PVTZ
  Basis Set:

    Orbital Energies (a.u.)
    -----------------------

    Doubly Occupied:

       1A    -20.590621     2A    -20.587625     3A    -15.832553
       4A    -11.304110     5A    -11.243235     6A    -11.243221
       7A     -1.633865     8A     -1.418156     9A     -1.142668
      10A     -0.974376    11A     -0.957236    12A     -0.816693
      13A     -0.751239    14A     -0.733115    15A     -0.726608
      16A     -0.650800    17A     -0.595283    18A     -0.588846
      19A     -0.570778    20A     -0.529785    21A     -0.522954
      22A     -0.485763    23A     -0.469549    24A     -0.452312

  @DF-RHF Final Energy:  -321.86463057889949

   => Energetics <=

    Nuclear Repulsion Energy =            257.3249368453097645
    One-Electron Energy =                -948.7363556018308373
    Two-Electron Energy =                 369.5467881776215791
    DFT Exchange-Correlation Energy =       0.0000000000000000
    Empirical Dispersion Energy =           0.0000000000000000
    PCM Polarization Energy =               0.0000000000000000
    EFP Energy =                            0.0000000000000000
    Total Energy =                       -321.8646305788994368
    Molecular point group: c1
  Basis Set: CC-PVTZ
  Basis Set:

  -Total Gradient:
     Atom            X                  Y                   Z
    ------   -----------------  -----------------  -----------------
       1       -0.000000396594     0.000000952271     0.000001600347
       2        0.000005841680    -0.000002213646     0.000003661366
       3        0.000018663283     0.000004574414    -0.000060208612
       4        0.000000257390     0.000002538499    -0.000000617088
       5       -0.000002643453    -0.000003350183     0.000004172700
       6        0.000007098428    -0.000000400877     0.000001896256
       7       -0.000137033483     0.000001570452     0.000209918711
       8        0.000010489054    -0.000000507815     0.000012733507
       9        0.000000173842    -0.000001759071     0.000001304040
      10        0.000000268368    -0.000002205118    -0.000000485686
      11       -0.000001951743     0.000002254092     0.000003779617
      12        0.000023024518    -0.000000833022    -0.000078608683
      13        0.000076208712    -0.000000619997    -0.000099146472

  **** Optimization is complete! (in 5 steps) ****
    Final optimized geometry and variables:
    Molecular point group: c1

    Geometry (in Angstrom), charge = 0, multiplicity = 1:

    H           -2.362925054506    -1.308974791599    -0.383652833477
    C           -1.359367851471    -1.272402824928     0.020445318736
    C           -0.684032075138     0.000180972323    -0.465122111060
    H           -0.825801069274    -2.151060992203    -0.318790712226
    H           -1.416465616222    -1.292393391854     1.099155390278
    C           -1.359073835583     1.272715234115     0.020952046098
    N            0.742373591727    -0.000085482108     0.007618275317
    H           -0.596402672094     0.000378851232    -1.538285061418
    H           -2.362623144668     1.309668947993    -0.383129227817
    H           -0.825313812592     2.151393621467    -0.317928305340
    H           -1.416161961958     1.292276804106     1.099670047183
    O            0.930602758659    -0.000344758794     1.178370651202
    O            1.589985625661    -0.000031779749    -0.820332348903

  Mulliken Charges: (a.u.)
   Center  Symbol    Alpha    Beta     Spin     Total
       1     H     0.44909  0.44909  0.00000  0.10181
       2     C     3.14436  3.14436  0.00000 -0.28871
       3     C     3.00760  3.00760  0.00000 -0.01519
       4     H     0.44078  0.44078  0.00000  0.11845
       5     H     0.43874  0.43874  0.00000  0.12252
       6     C     3.14436  3.14436  0.00000 -0.28871
       7     N     3.27556  3.27556  0.00000  0.44887
       8     H     0.42464  0.42464  0.00000  0.15072
       9     H     0.44909  0.44909  0.00000  0.10181
      10     H     0.44078  0.44078  0.00000  0.11845
      11     H     0.43874  0.43874  0.00000  0.12252
      12     O     4.17788  4.17788  0.00000 -0.35577
      13     O     4.16838  4.16838  0.00000 -0.33677

   Total alpha = 24.00000, Total beta = 24.00000, Total charge =  0.00000

*** Psi4 exiting successfully. Buy a developer a beer!
