  ==> Input File <==

--------------------------------------------------------------------------
set {
	reference rhf
	basis cc-pvtz
}

set_num_threads( 4 )
memory 2 gb

molecule MOL {
0 1

H	 1.867651	 1.723827	 -0.071159
O	 0.986576	 1.381144	 -0.074480
C	 1.050374	 0.054877	 0.000135
C	 -0.318151	 -0.570512	 0.000144
O	 2.080034	 -0.523417	 0.057967
C	 -1.454884	 0.441630	 -0.000560
H	 -0.371613	 -1.223646	 -0.864985
H	 -0.371920	 -1.222758	 0.865929
C	 -2.822577	 -0.232186	 0.000063
H	 -1.359760	 1.084704	 -0.867077
H	 -1.359641	 1.085996	 0.864983
H	 -2.954352	 -0.858985	 -0.875745
H	 -3.615886	 0.505352	 0.000019
H	 -2.953878	 -0.858359	 0.876394

	symmetry c1
}
set optking {
	frozen_dihedral = ("
		2 3 4 7
	")
}

ee = optimize('scf')
oeprop('DIPOLE', 'QUADRUPOLE', 'MULLIKEN_CHARGES')
f=open( 'psi4out.xyz', 'w' )
f.write( "14  " )
f.write( str(ee) + "\n" )
f.write( MOL.save_string_xyz() )
f.close()
--------------------------------------------------------------------------

    Molecular point group: c1
  Charge       = 0
  Multiplicity = 1
  Basis Set: CC-PVTZ
  Basis Set:
  @DF-RHF Final Energy:  -305.99694414527301
    Total Energy =                       -305.9969441452732326
    Molecular point group: c1
  Basis Set: CC-PVTZ
  Basis Set:
  Basis Set: CC-PVTZ
  Basis Set:
  @DF-RHF Final Energy:  -305.99790875930148
    Total Energy =                       -305.9979087593013105
  Basis Set: CC-PVTZ
  Basis Set:
  Basis Set: CC-PVTZ
  Basis Set:
  @DF-RHF Final Energy:  -305.99806757924227
    Total Energy =                       -305.9980675792422744
  Basis Set: CC-PVTZ
  Basis Set:
  Basis Set: CC-PVTZ
  Basis Set:
  @DF-RHF Final Energy:  -305.99809441658556
    Total Energy =                       -305.9980944165855590
  Basis Set: CC-PVTZ
  Basis Set:
  Basis Set: CC-PVTZ
  Basis Set:
  @DF-RHF Final Energy:  -305.99826161829083
    Total Energy =                       -305.9982616182908259
  Basis Set: CC-PVTZ
  Basis Set:
  Charge       = 0
  Multiplicity = 1
  Basis Set: CC-PVTZ
  Basis Set:

    Orbital Energies (a.u.)
    -----------------------

    Doubly Occupied:

       1A    -20.607457     2A    -20.536383     3A    -11.374634
       4A    -11.240164     5A    -11.228085     6A    -11.217741
       7A     -1.479393     8A     -1.368148     9A     -1.086249
      10A     -0.979132    11A     -0.848352    12A     -0.821438
      13A     -0.703627    14A     -0.681145    15A     -0.670414
      16A     -0.619056    17A     -0.593020    18A     -0.565167
      19A     -0.550206    20A     -0.527943    21A     -0.497383
      22A     -0.494935    23A     -0.469894    24A     -0.439942

  @DF-RHF Final Energy:  -305.99826276129807

   => Energetics <=

    Nuclear Repulsion Energy =            240.8409608222727911
    One-Electron Energy =                -894.4786326393054878
    Two-Electron Energy =                 347.6394090557348591
    DFT Exchange-Correlation Energy =       0.0000000000000000
    Empirical Dispersion Energy =           0.0000000000000000
    PCM Polarization Energy =               0.0000000000000000
    EFP Energy =                            0.0000000000000000
    Total Energy =                       -305.9982627612978376
    Molecular point group: c1
  Basis Set: CC-PVTZ
  Basis Set:

  -Total Gradient:
     Atom            X                  Y                   Z
    ------   -----------------  -----------------  -----------------
       1       -0.000018485658    -0.000030219943     0.000000874323
       2       -0.000026794468     0.000110029331     0.000139972706
       3        0.000097986778    -0.000188406107    -0.000165983470
       4       -0.000056870351     0.000206618649    -0.000060753843
       5       -0.000024209208     0.000037586274    -0.000005173009
       6        0.000021978864    -0.000014154880    -0.000003381681
       7        0.000052791234    -0.000135192482     0.000096916676
       8        0.000000221460    -0.000003624212    -0.000002695281
       9       -0.000025957999     0.000014838763     0.000003852552
      10       -0.000007363110     0.000002373250     0.000006668925
      11       -0.000010616477    -0.000001444668    -0.000010067352
      12        0.000006874117     0.000006371974    -0.000000786026
      13       -0.000015218029    -0.000008288537     0.000000586999
      14        0.000005662851     0.000003512587    -0.000000031518

  **** Optimization is complete! (in 6 steps) ****
    Final optimized geometry and variables:
    Molecular point group: c1

    Geometry (in Angstrom), charge = 0, multiplicity = 1:

    H            2.048301653080     1.551564026146    -0.070402779349
    O            1.142674395665     1.279354187185    -0.075240710956
    C            1.109304802832    -0.044983833771     0.004932205070
    C           -0.280340591445    -0.634379571495     0.000856507912
    O            2.096635808245    -0.693943138670     0.069354934810
    C           -1.450055396394     0.343373056448     0.001272976005
    H           -0.321737646731    -1.284120272018    -0.866932230664
    H           -0.324513068128    -1.291719102481     0.861672029591
    C           -2.791640485284    -0.381681800217     0.005436801751
    H           -1.386005083967     0.988437745733    -0.866636641889
    H           -1.382550681527     0.990754382265     0.867738559449
    H           -2.899925375230    -1.013881389085    -0.869512827753
    H           -3.612775131365     0.324810388869     0.006196425710
    H           -2.896186970096    -1.011544612075     0.882471615526

  Mulliken Charges: (a.u.)
   Center  Symbol    Alpha    Beta     Spin     Total
       1     H     0.38528  0.38528  0.00000  0.22945
       2     O     4.14890  4.14890  0.00000 -0.29780
       3     C     2.81158  2.81158  0.00000  0.37685
       4     C     3.09868  3.09868  0.00000 -0.19736
       5     O     4.19797  4.19797  0.00000 -0.39593
       6     C     3.08350  3.08350  0.00000 -0.16701
       7     H     0.43789  0.43789  0.00000  0.12423
       8     H     0.43660  0.43660  0.00000  0.12680
       9     C     3.15198  3.15198  0.00000 -0.30396
      10     H     0.44638  0.44638  0.00000  0.10724
      11     H     0.44697  0.44697  0.00000  0.10606
      12     H     0.45451  0.45451  0.00000  0.09097
      13     H     0.44537  0.44537  0.00000  0.10925
      14     H     0.45439  0.45439  0.00000  0.09121

   Total alpha = 24.00000, Total beta = 24.00000, Total charge =  0.00000
