                              Psi4 1.0.54 Driver

  ==> Input File <==

--------------------------------------------------------------------------
set {
	reference rhf
	basis cc-pvtz
}

set_num_threads( 4 )
memory 2 gb

molecule MOL {
0 1

H	 -2.171709	 0.882708	 0.500286
C	 -2.016894	 0.001719	 -0.114152
O	 -0.775228	 0.000056	 -0.739966
H	 -2.760846	 0.003757	 -0.898169
H	 -2.174774	 -0.879864	 0.498643
C	 0.195844	 -0.961739	 -0.377681
C	 1.387773	 -0.635176	 -1.270735
C	 0.592832	 -0.817933	 1.092815
C	 -0.297700	 -2.380631	 -0.667083
H	 1.725116	 0.377123	 -1.087557
H	 1.105487	 -0.712634	 -2.313049
H	 2.211073	 -1.314140	 -1.083241
H	 0.878938	 0.204840	 1.306703
H	 1.435398	 -1.461398	 1.316254
H	 -0.212799	 -1.094749	 1.761316
H	 -0.638794	 -2.458336	 -1.692416
H	 0.506123	 -3.092146	 -0.520485
H	 -1.110656	 -2.670578	 -0.013171

	symmetry c1
}
set optking {
	frozen_dihedral = ("
		6 3 2 5
	")
}

ee,wfn = optimize('scf', return_wfn=True)
oeprop( wfn, 'DIPOLE', 'QUADRUPOLE', 'MULLIKEN_CHARGES')
f=open( 'psi4out.xyz', 'w' )
f.write( "18  " )
f.write( str(ee) + "\n" )
f.write( MOL.save_string_xyz() )
f.close()
--------------------------------------------------------------------------

    Molecular point group: c1
  Charge       = 0
  Multiplicity = 1
  Basis Set: CC-PVTZ
  Basis Set:
  @DF-RHF Final Energy:  -271.27396409243636
    Total Energy =                       -271.2739640924362448
    Molecular point group: c1
  Basis Set: CC-PVTZ
  Basis Set:
  Basis Set: CC-PVTZ
  Basis Set:
  @DF-RHF Final Energy:  -271.27400222703380
    Total Energy =                       -271.2740022270339750
  Basis Set: CC-PVTZ
  Basis Set:
  Basis Set: CC-PVTZ
  Basis Set:
  @DF-RHF Final Energy:  -271.27409130307166
    Total Energy =                       -271.2740913030715433
  Basis Set: CC-PVTZ
  Basis Set:
  Basis Set: CC-PVTZ
  Basis Set:
  @DF-RHF Final Energy:  -271.27457231599391
    Total Energy =                       -271.2745723159935665
  Basis Set: CC-PVTZ
  Basis Set:
  Basis Set: CC-PVTZ
  Basis Set:
  @DF-RHF Final Energy:  -271.27459250271494
    Total Energy =                       -271.2745925027147678
  Basis Set: CC-PVTZ
  Basis Set:
  Basis Set: CC-PVTZ
  Basis Set:
  @DF-RHF Final Energy:  -271.27460039873586
    Total Energy =                       -271.2746003987357994
  Basis Set: CC-PVTZ
  Basis Set:
  Basis Set: CC-PVTZ
  Basis Set:
  @DF-RHF Final Energy:  -271.27460125923864
    Total Energy =                       -271.2746012592385227
  Basis Set: CC-PVTZ
  Basis Set:
  Charge       = 0
  Multiplicity = 1
  Basis Set: CC-PVTZ
  Basis Set:

    Orbital Energies (a.u.)
    -----------------------

    Doubly Occupied:

       1A    -20.538200     2A    -11.280791     3A    -11.258454
       4A    -11.207296     5A    -11.206827     6A    -11.201797
       7A     -1.371282     8A     -1.074135     9A     -0.946540
      10A     -0.940964    11A     -0.913499    12A     -0.753846
      13A     -0.656465    14A     -0.645556    15A     -0.640521
      16A     -0.590849    17A     -0.572164    18A     -0.552461
      19A     -0.538824    20A     -0.524797    21A     -0.515383
      22A     -0.491445    23A     -0.488354    24A     -0.439637
      25A     -0.404176

  @DF-RHF Final Energy:  -271.27460192981181

   => Energetics <=

    Nuclear Repulsion Energy =            272.5010869062003280
    One-Electron Energy =                -908.0428543979962797
    Two-Electron Energy =                 364.2671655619841431
    DFT Exchange-Correlation Energy =       0.0000000000000000
    Empirical Dispersion Energy =           0.0000000000000000
    PCM Polarization Energy =               0.0000000000000000
    EFP Energy =                            0.0000000000000000
    Total Energy =                       -271.2746019298118654
    Molecular point group: c1
  Basis Set: CC-PVTZ
  Basis Set:

  -Total Gradient:
     Atom            X                  Y                   Z
    ------   -----------------  -----------------  -----------------
       1        0.000004338977     0.000002448937    -0.000002576278
       2       -0.000770234856    -0.000970422053    -0.001394962148
       3        0.000639217545     0.001002796218     0.001178790166
       4       -0.000002078962     0.000001865660    -0.000003473033
       5        0.000454376249     0.000520618826     0.000833506497
       6       -0.000325806592    -0.000554360310    -0.000594592671
       7        0.000001626503    -0.000012774664    -0.000004161594
       8       -0.000001123170     0.000009284613     0.000001707621
       9       -0.000011382641     0.000002648022    -0.000004057821
      10       -0.000007169445    -0.000002255885     0.000001074638
      11        0.000004118558     0.000000077825    -0.000005806889
      12        0.000002219128     0.000000819859    -0.000001782422
      13       -0.000000314588     0.000002142300     0.000003790853
      14        0.000003772933    -0.000004956379     0.000000016943
      15       -0.000001141867     0.000001063632    -0.000003786914
      16        0.000003308240    -0.000000780602    -0.000005614407
      17        0.000001607683     0.000006645274     0.000004287093
      18        0.000004666302    -0.000004861272    -0.000002359631

  **** Optimization is complete! (in 8 steps) ****
    Final optimized geometry and variables:
    Molecular point group: c1

    Geometry (in Angstrom), charge = 0, multiplicity = 1:

    H           -1.899166639553     1.708406681012     0.893124555502
    C           -1.833040398201     0.823327451539     0.268859382579
    O           -0.603222791133     0.791217688702    -0.388106079993
    H           -2.624554707518     0.865316772655    -0.469122942785
    H           -2.003642504406    -0.038755689097     0.899855379184
    C            0.367589664627    -0.176861645108    -0.044220344558
    C            1.561806434594     0.164627821768    -0.928481272862
    C            0.761569962287    -0.058162949864     1.429218915449
    C           -0.129086813352    -1.587141640601    -0.368556340349
    H            1.903805347076     1.170837909117    -0.722510916682
    H            1.280806863465     0.111279148054    -1.972567102869
    H            2.381529924686    -0.522504739974    -0.754851499947
    H            1.086402736715     0.951579414096     1.649278655617
    H            1.575501838880    -0.735849683332     1.658106402394
    H           -0.061181185426    -0.301614700810     2.090200592367
    H           -0.434314025437    -1.644878415036    -1.406192654565
    H            0.660081983102    -2.311230698222    -0.203594479506
    H           -0.969845512751    -1.876977876936     0.249200480099

  Mulliken Charges: (a.u.)
   Center  Symbol    Alpha    Beta     Spin     Total
       1     H     0.45689  0.45689  0.00000  0.08623
       2     C     3.04289  3.04289  0.00000 -0.08577
       3     O     4.19366  4.19366  0.00000 -0.38733
       4     H     0.45063  0.45063  0.00000  0.09873
       5     H     0.46839  0.46839  0.00000  0.06322
       6     C     2.87907  2.87907  0.00000  0.24186
       7     C     3.14293  3.14293  0.00000 -0.28585
       8     C     3.16057  3.16057  0.00000 -0.32114
       9     C     3.16071  3.16071  0.00000 -0.32142
      10     H     0.44916  0.44916  0.00000  0.10167
      11     H     0.44884  0.44884  0.00000  0.10231
      12     H     0.45922  0.45922  0.00000  0.08155
      13     H     0.44657  0.44657  0.00000  0.10685
      14     H     0.44826  0.44826  0.00000  0.10349
      15     H     0.44863  0.44863  0.00000  0.10274
      16     H     0.44650  0.44650  0.00000  0.10700
      17     H     0.44896  0.44896  0.00000  0.10209
      18     H     0.44811  0.44811  0.00000  0.10378

   Total alpha = 25.00000, Total beta = 25.00000, Total charge = -0.00000

*** Psi4 exiting successfully. Buy a developer a beer!
