  ==> Input File <==

--------------------------------------------------------------------------
set {
	reference rhf
	basis cc-pvtz
}

set_num_threads( 4 )
memory 2 gb

molecule MOL {
0 1

H	 -3.034039	 -0.667848	 0.004703
O	 -2.240597	 -1.171748	 0.000934
C	 -1.159675	 -0.364500	 0.000370
C	 0.130296	 -0.854778	 -0.003711
C	 -1.388589	 1.002844	 0.005196
H	 0.310043	 -1.914376	 -0.005448
C	 1.188252	 0.037944	 -0.001553
H	 -2.403257	 1.351204	 0.010570
C	 -0.332440	 1.891623	 0.004946
H	 2.193313	 -0.339712	 -0.001679
C	 0.967963	 1.396713	 0.003569
C	 -0.581342	 3.378681	 -0.013818
H	 1.799788	 2.075322	 0.007865
H	 0.078863	 3.892030	 0.674241
H	 -1.601706	 3.611026	 0.259348
H	 -0.401216	 3.783644	 -1.003870

	symmetry c1
}
set optking {
	frozen_dihedral = ("
		5 3 2 1
	")
}

ee = optimize('scf')
oeprop('DIPOLE', 'QUADRUPOLE', 'MULLIKEN_CHARGES')
f=open( 'psi4out.xyz', 'w' )
f.write( "16  " )
f.write( str(ee) + "\n" )
f.write( MOL.save_string_xyz() )
f.close()
--------------------------------------------------------------------------

    Molecular point group: c1
  Charge       = 0
  Multiplicity = 1
  Basis Set: CC-PVTZ
  Basis Set:
  @DF-RHF Final Energy:  -344.71870004639891
    Total Energy =                       -344.7187000463990785
    Molecular point group: c1
  Basis Set: CC-PVTZ
  Basis Set:
  Basis Set: CC-PVTZ
  Basis Set:
  @DF-RHF Final Energy:  -344.72046664907452
    Total Energy =                       -344.7204666490741829
  Basis Set: CC-PVTZ
  Basis Set:
  Basis Set: CC-PVTZ
  Basis Set:
  @DF-RHF Final Energy:  -344.72061930428191
    Total Energy =                       -344.7206193042821951
  Basis Set: CC-PVTZ
  Basis Set:
  Basis Set: CC-PVTZ
  Basis Set:
  @DF-RHF Final Energy:  -344.72064054343997
    Total Energy =                       -344.7206405434403678
  Basis Set: CC-PVTZ
  Basis Set:
  @DF-RHF Final Energy:  -344.72064843263234
    Total Energy =                       -344.7206484326325153
  @DF-RHF Final Energy:  -344.72065258042636
    Total Energy =                       -344.7206525804264174
  @DF-RHF Final Energy:  -344.72068401094373
    Total Energy =                       -344.7206840109439554
  @DF-RHF Final Energy:  -344.72069956131725
    Total Energy =                       -344.7206995613171898
  @DF-RHF Final Energy:  -344.72070582038214
    Total Energy =                       -344.7207058203815109
  @DF-RHF Final Energy:  -344.72070986481162
    Total Energy =                       -344.7207098648111696
  @DF-RHF Final Energy:  -344.72071314533747
    Total Energy =                       -344.7207131453372426
  @DF-RHF Final Energy:  -344.72071634958843
    Total Energy =                       -344.7207163495881446
  @DF-RHF Final Energy:  -344.72072546885880
    Total Energy =                       -344.7207254688582339
  @DF-RHF Final Energy:  -344.72074818689379
    Total Energy =                       -344.7207481868937862
  @DF-RHF Final Energy:  -344.72076414617538
    Total Energy =                       -344.7207641461753269
  @DF-RHF Final Energy:  -344.72076932997641
    Total Energy =                       -344.7207693299762923
  @DF-RHF Final Energy:  -344.72077219180943
    Total Energy =                       -344.7207721918092034
  Basis Set: CC-PVTZ
  Basis Set:
  @DF-RHF Final Energy:  -344.72077441327156
    Total Energy =                       -344.7207744132716698
  Basis Set: CC-PVTZ
  Basis Set:
  Basis Set: CC-PVTZ
  Basis Set:
  @DF-RHF Final Energy:  -344.72077620556121
    Total Energy =                       -344.7207762055612079
  Basis Set: CC-PVTZ
  Basis Set:
  Basis Set: CC-PVTZ
  Basis Set:
  @DF-RHF Final Energy:  -344.72077881839436
    Total Energy =                       -344.7207788183943649
  Basis Set: CC-PVTZ
  Basis Set:
  Charge       = 0
  Multiplicity = 1
  Basis Set: CC-PVTZ
  Basis Set:

    Orbital Energies (a.u.)
    -----------------------

    Doubly Occupied:

       1A    -20.583404     2A    -11.295715     3A    -11.242256
       4A    -11.231020     5A    -11.221622     6A    -11.219028
       7A    -11.214989     8A    -11.212992     9A     -1.414201
      10A     -1.154474    11A     -1.047769    12A     -1.006777
      13A     -0.941058    14A     -0.845807    15A     -0.802645
      16A     -0.733149    17A     -0.683922    18A     -0.651849
      19A     -0.599763    20A     -0.597007    21A     -0.582885
      22A     -0.574924    23A     -0.570014    24A     -0.537729
      25A     -0.506957    26A     -0.484667    27A     -0.472793
      28A     -0.333854    29A     -0.310419

  @DF-RHF Final Energy:  -344.72077896877954

   => Energetics <=

    Nuclear Repulsion Energy =            346.4564832751116228
    One-Electron Energy =               -1154.2071442579263021
    Two-Electron Energy =                 463.0298820140351950
    DFT Exchange-Correlation Energy =       0.0000000000000000
    Empirical Dispersion Energy =           0.0000000000000000
    PCM Polarization Energy =               0.0000000000000000
    EFP Energy =                            0.0000000000000000
    Total Energy =                       -344.7207789687794843
    Molecular point group: c1
  Basis Set: CC-PVTZ
  Basis Set:

  -Total Gradient:
     Atom            X                  Y                   Z
    ------   -----------------  -----------------  -----------------
       1       -0.000001401865    -0.000000764831     0.000001034107
       2        0.000007241092     0.000007250208     0.000004361719
       3       -0.000004939236    -0.000017395563    -0.000010742113
       4       -0.000028134156    -0.000016020399    -0.000002667879
       5        0.000003223819     0.000011071310     0.000008501556
       6        0.000004631231     0.000004107618    -0.000001978943
       7        0.000011351274     0.000037781916     0.000021098806
       8       -0.000000964670    -0.000000494350    -0.000001584076
       9       -0.000010792380     0.000004143069    -0.000018919338
      10       -0.000000389983    -0.000001550431    -0.000002603846
      11        0.000015907936    -0.000025384771    -0.000007620254
      12       -0.000001269641    -0.000005322267     0.000002890846
      13        0.000001747876     0.000004207445    -0.000001536002
      14        0.000001937757     0.000005204952     0.000001492062
      15       -0.000002461713     0.000000000182     0.000004748038
      16        0.000004312660    -0.000006834089     0.000003525315

  **** Optimization is complete! (in 21 steps) ****
    Final optimized geometry and variables:
    Molecular point group: c1

    Geometry (in Angstrom), charge = 0, multiplicity = 1:

    H           -2.531311647768    -1.441887164806    -0.165223435375
    O           -1.703347115489    -1.883708448420    -0.111980047980
    C           -0.688610277068    -0.997507258827    -0.045516582921
    C            0.599284079538    -1.504949052878     0.037611218907
    C           -0.899657808134     0.365659680845    -0.058024057229
    H            0.746375236609    -2.566659709166     0.046282263973
    C            1.656029083648    -0.628277589703     0.106938445327
    H           -1.904220574227     0.746770826510    -0.122785658231
    C            0.169996558721     1.250673508470     0.012048991515
    H            2.655876046039    -1.014221792695     0.171493620933
    C            1.451832630153     0.743357595780     0.094758353862
    C           -0.085099888705     2.736706320133    -0.003324163605
    H            2.291275599893     1.409399687446     0.149789356141
    H            0.839924283148     3.292918931221     0.060520196707
    H           -0.711825131185     3.031198025306     0.830830165551
    H           -0.592702979344     3.033486228421    -0.914145827596

  Mulliken Charges: (a.u.)
   Center  Symbol    Alpha    Beta     Spin     Total
       1     H     0.38703  0.38703  0.00000  0.22594
       2     O     4.17471  4.17471  0.00000 -0.34941
       3     C     2.83755  2.83755  0.00000  0.32491
       4     C     3.12394  3.12394  0.00000 -0.24788
       5     C     3.15428  3.15428  0.00000 -0.30856
       6     H     0.41982  0.41982  0.00000  0.16036
       7     C     3.04671  3.04671  0.00000 -0.09342
       8     H     0.43785  0.43785  0.00000  0.12429
       9     C     2.94648  2.94648  0.00000  0.10704
      10     H     0.42330  0.42330  0.00000  0.15341
      11     C     3.12690  3.12690  0.00000 -0.25379
      12     C     3.14984  3.14984  0.00000 -0.29967
      13     H     0.42667  0.42667  0.00000  0.14666
      14     H     0.44960  0.44960  0.00000  0.10079
      15     H     0.44769  0.44769  0.00000  0.10463
      16     H     0.44765  0.44765  0.00000  0.10470

   Total alpha = 29.00000, Total beta = 29.00000, Total charge =  0.00000
