  ==> Input File <==

--------------------------------------------------------------------------
set {
	reference rhf
	basis 6-31G*
}

set_num_threads( 4 )
memory 2 gb

molecule MOL {
0 1

O	 0.947552	 -1.736916	 1.930278
C	 0.212142	 -1.488257	 1.030991
C	 -1.203387	 -1.981664	 0.906917
O	 0.550821	 -0.724572	 0.000672
H	 -1.881377	 -1.138040	 0.849376
H	 -1.448469	 -2.596410	 1.760096
H	 -1.312543	 -2.553681	 -0.007119
C	 1.863949	 -0.193559	 -0.000319
H	 2.028859	 0.409284	 -0.881648
H	 2.526261	 -1.045082	 -0.000003
H	 2.029520	 0.410555	 0.880008

	symmetry c1
}
set optking {
	frozen_dihedral = ("
		2 4 8 9
	")
}

ee = optimize('scf')
oeprop('DIPOLE', 'QUADRUPOLE', 'MULLIKEN_CHARGES')
f=open( 'psi4out.xyz', 'w' )
f.write( "11  " )
f.write( str(ee) + "\n" )
f.write( MOL.save_string_xyz() )
f.close()
--------------------------------------------------------------------------

    Molecular point group: c1
  Charge       = 0
  Multiplicity = 1
  Basis Set: 6-31G*
  Basis Set:
  @DF-RHF Final Energy:  -266.83480095242135
    Total Energy =                       -266.8348009524213467
    Molecular point group: c1
  Basis Set: 6-31G*
  Basis Set:
  Basis Set: 6-31G*
  Basis Set:
  @DF-RHF Final Energy:  -266.83607577631432
    Total Energy =                       -266.8360757763147149
  Basis Set: 6-31G*
  Basis Set:
  Basis Set: 6-31G*
  Basis Set:
  @DF-RHF Final Energy:  -266.83623730508782
    Total Energy =                       -266.8362373050879341
  Basis Set: 6-31G*
  Basis Set:
  Basis Set: 6-31G*
  Basis Set:
  @DF-RHF Final Energy:  -266.83636757979002
    Total Energy =                       -266.8363675797903056
  Basis Set: 6-31G*
  Basis Set:
  Basis Set: 6-31G*
  Basis Set:
  @DF-RHF Final Energy:  -266.83643566630315
    Total Energy =                       -266.8364356663026911
  Basis Set: 6-31G*
  Basis Set:
  Basis Set: 6-31G*
  Basis Set:
  @DF-RHF Final Energy:  -266.83644269555231
    Total Energy =                       -266.8364426955521367
  Basis Set: 6-31G*
  Basis Set:
  Charge       = 0
  Multiplicity = 1
  Basis Set: 6-31G*
  Basis Set:

    Orbital Energies (a.u.)
    -----------------------

    Doubly Occupied:

       1A    -20.605932     2A    -20.546568     3A    -11.376485
       4A    -11.282153     5A    -11.234765     6A     -1.471284
       7A     -1.364560     8A     -1.035985     9A     -0.952965
      10A     -0.778267    11A     -0.695811    12A     -0.681199
      13A     -0.677232    14A     -0.595192    15A     -0.592024
      16A     -0.560746    17A     -0.524683    18A     -0.524035
      19A     -0.458043    20A     -0.442423

  @DF-RHF Final Energy:  -266.83644288159394

   => Energetics <=

    Nuclear Repulsion Energy =            183.3346207730181163
    One-Electron Energy =                -727.5414219427659646
    Two-Electron Energy =                 277.3703582881536818
    DFT Exchange-Correlation Energy =       0.0000000000000000
    Empirical Dispersion Energy =           0.0000000000000000
    PCM Polarization Energy =               0.0000000000000000
    EFP Energy =                            0.0000000000000000
    Total Energy =                       -266.8364428815942233
    Molecular point group: c1
  Basis Set: 6-31G*
  Basis Set:

  -Total Gradient:
     Atom            X                  Y                   Z
    ------   -----------------  -----------------  -----------------
       1       -0.000002205783    -0.000018882431     0.000029021454
       2        0.000018196025    -0.000005585901    -0.000025175109
       3        0.000002451599     0.000015976711     0.000005017937
       4       -0.000003483805    -0.000010626922    -0.000048105445
       5       -0.000005381486     0.000002691091    -0.000000127345
       6        0.000003270709     0.000003440644     0.000002816070
       7        0.000005074450     0.000000448548    -0.000000220167
       8       -0.000004699719     0.000019875411     0.000055243974
       9       -0.000023209970    -0.000003800238    -0.000012968585
      10       -0.000007666892    -0.000002511693     0.000002494155
      11        0.000017654874    -0.000001025219    -0.000007996943

  **** Optimization is complete! (in 7 steps) ****
    Final optimized geometry and variables:
    Molecular point group: c1

    Geometry (in Angstrom), charge = 0, multiplicity = 1:

    O            0.450922367297    -0.532643088312     1.162171110449
    C           -0.281806831164    -0.273230461454     0.263697400009
    C           -1.700523391541    -0.756189622145     0.134940624150
    O            0.064212869411     0.491960139979    -0.763112047437
    H           -2.372504113110     0.092502231992     0.081243226295
    H           -1.951092620461    -1.373957723047     0.984249167261
    H           -1.812381592025    -1.322292968126    -0.782524443475
    C            1.381345353636     1.012918096201    -0.759918018647
    H            1.468639488525     1.598821679323    -1.661514199101
    H            2.106270146993     0.211772492771    -0.761751407835
    H            1.541322536587     1.635308536905     0.108639738042

  Mulliken Charges: (a.u.)
   Center  Symbol    Alpha    Beta     Spin     Total
       1     O     4.28203  4.28203  0.00000 -0.56406
       2     C     2.62256  2.62256  0.00000  0.75487
       3     C     3.28175  3.28175  0.00000 -0.56349
       4     O     4.29930  4.29930  0.00000 -0.59859
       5     H     0.39990  0.39990  0.00000  0.20021
       6     H     0.39656  0.39656  0.00000  0.20688
       7     H     0.39989  0.39989  0.00000  0.20022
       8     C     3.09251  3.09251  0.00000 -0.18502
       9     H     0.40835  0.40835  0.00000  0.18330
      10     H     0.40857  0.40857  0.00000  0.18286
      11     H     0.40859  0.40859  0.00000  0.18282

   Total alpha = 20.00000, Total beta = 20.00000, Total charge =  0.00000
