                              Psi4 1.0.54 Driver

  ==> Input File <==

--------------------------------------------------------------------------
set {
	reference rhf
	basis cc-pvtz
}

set_num_threads( 4 )
memory 2 gb

molecule MOL {
0 1

O	 -2.817697	 1.304178	 0.001046
C	 -2.664672	 0.129869	 0.003507
C	 -3.797908	 -0.860100	 -0.001145
O	 -1.481217	 -0.452708	 0.001092
H	 -4.408836	 -0.679689	 -0.875387
H	 -3.443486	 -1.878443	 -0.002770
H	 -4.412123	 -0.683688	 0.871605
C	 -0.332055	 0.384012	 -0.000250
C	 0.892252	 -0.506059	 -0.000295
H	 -0.360822	 1.020205	 -0.874146
H	 -0.359817	 1.021310	 0.872861
C	 2.188199	 0.299473	 -0.001416
H	 0.857046	 -1.152781	 -0.871031
H	 0.857910	 -1.151798	 0.871202
C	 2.014661	 1.710147	 -0.557304
H	 2.578121	 0.360392	 1.011613
H	 2.940287	 -0.224582	 -0.585971
C	 3.309708	 2.515042	 -0.559699
H	 1.264606	 2.235433	 0.027117
H	 1.625204	 1.650546	 -1.569656
H	 3.706268	 2.621521	 0.444416
H	 3.152235	 3.509829	 -0.959834
H	 4.069770	 2.031922	 -1.164475

	symmetry c1
}
set optking {
	frozen_dihedral = ("
		16 12 9 13
	")
}

ee,wfn = optimize('scf', return_wfn=True)
oeprop( wfn, 'DIPOLE', 'QUADRUPOLE', 'MULLIKEN_CHARGES')
f=open( 'psi4out.xyz', 'w' )
f.write( "23  " )
f.write( str(ee) + "\n" )
f.write( MOL.save_string_xyz() )
f.close()
--------------------------------------------------------------------------

    Molecular point group: c1
  Charge       = 0
  Multiplicity = 1
  Basis Set: CC-PVTZ
  Basis Set:
  @DF-RHF Final Energy:  -423.12449453805482
    Total Energy =                       -423.1244945380547051
    Molecular point group: c1
  Basis Set: CC-PVTZ
  Basis Set:
  Basis Set: CC-PVTZ
  Basis Set:
  @DF-RHF Final Energy:  -423.12346695514981
    Total Energy =                       -423.1234669551495244
  Basis Set: CC-PVTZ
  Basis Set:
  Basis Set: CC-PVTZ
  Basis Set:
  @DF-RHF Final Energy:  -423.12792891634507
    Total Energy =                       -423.1279289163448993
  Basis Set: CC-PVTZ
  Basis Set:
  Basis Set: CC-PVTZ
  Basis Set:
  @DF-RHF Final Energy:  -423.12789501114264
    Total Energy =                       -423.1278950111419590
  Basis Set: CC-PVTZ
  Basis Set:
  Basis Set: CC-PVTZ
  Basis Set:
  @DF-RHF Final Energy:  -423.12750947798105
    Total Energy =                       -423.1275094779812207
  Basis Set: CC-PVTZ
  Basis Set:
  Basis Set: CC-PVTZ
  Basis Set:
  @DF-RHF Final Energy:  -423.12825890615170
    Total Energy =                       -423.1282589061520412
  Basis Set: CC-PVTZ
  Basis Set:
  Basis Set: CC-PVTZ
  Basis Set:
  @DF-RHF Final Energy:  -423.12826516037904
    Total Energy =                       -423.1282651603789873
  Basis Set: CC-PVTZ
  Basis Set:
  Charge       = 0
  Multiplicity = 1
  Basis Set: CC-PVTZ
  Basis Set:

    Orbital Energies (a.u.)
    -----------------------

    Doubly Occupied:

       1A    -20.595688     2A    -20.529415     3A    -11.366271
       4A    -11.279156     5A    -11.230555     6A    -11.222240
       7A    -11.221246     8A    -11.219774     9A    -11.210781
      10A     -1.470997    11A     -1.363863    12A     -1.092932
      13A     -1.041222    14A     -1.002726    15A     -0.932595
      16A     -0.854166    17A     -0.789638    18A     -0.779833
      19A     -0.692944    20A     -0.688132    21A     -0.670375
      22A     -0.642380    23A     -0.607487    24A     -0.589606
      25A     -0.579387    26A     -0.571794    27A     -0.566007
      28A     -0.530134    29A     -0.525689    30A     -0.514185
      31A     -0.497568    32A     -0.475441    33A     -0.464475
      34A     -0.462621    35A     -0.450892    36A     -0.439315

  @DF-RHF Final Energy:  -423.12826548097109

   => Energetics <=

    Nuclear Repulsion Energy =            457.7030110713920976
    One-Electron Energy =               -1483.3194827916270242
    Two-Electron Energy =                 602.4882062392637181
    DFT Exchange-Correlation Energy =       0.0000000000000000
    Empirical Dispersion Energy =           0.0000000000000000
    PCM Polarization Energy =               0.0000000000000000
    EFP Energy =                            0.0000000000000000
    Total Energy =                       -423.1282654809713222
    Molecular point group: c1
  Basis Set: CC-PVTZ
  Basis Set:

  -Total Gradient:
     Atom            X                  Y                   Z
    ------   -----------------  -----------------  -----------------
       1        0.000009459315    -0.000043575756    -0.000032773095
       2        0.000043778888    -0.000010720357     0.000073775191
       3       -0.000003780596     0.000007005266    -0.000001665132
       4       -0.000052793772     0.000025568448    -0.000058135879
       5        0.000006608451    -0.000008800314     0.000004454862
       6       -0.000005158226     0.000014765710    -0.000003955177
       7        0.000012989305     0.000007018255    -0.000017715900
       8        0.000043248423     0.000037745448     0.000069058292
       9       -0.002288943665     0.004470075645    -0.004225073596
      10       -0.000017102301    -0.000011401324    -0.000016492170
      11        0.000013244415    -0.000019461942    -0.000025367725
      12       -0.003169264591     0.005278331644     0.001782351850
      13        0.002399079436    -0.004569251828     0.003210131056
      14        0.000003441775     0.000005535991     0.000005519808
      15        0.000004263856     0.000007486902     0.000093663981
      16        0.003020018194    -0.005133441589    -0.000837260717
      17        0.000011718291     0.000009687322     0.000002369113
      18       -0.000027293027     0.000002314631    -0.000040119848
      19        0.000049383995     0.000006019256     0.000007334665
      20       -0.000027951529    -0.000022358330    -0.000013215294
      21       -0.000006082036     0.000007617185     0.000019841667
      22       -0.000012697940    -0.000056056842     0.000006176988
      23       -0.000006166666    -0.000004103421    -0.000002902940

  **** Optimization is complete! (in 8 steps) ****
    Final optimized geometry and variables:
    Molecular point group: c1

    Geometry (in Angstrom), charge = 0, multiplicity = 1:

    O           -2.622048729054     0.755811752687     0.161910030369
    C           -2.422281348624    -0.411241557383     0.134385132093
    C           -3.515370232597    -1.445601284055     0.131151099087
    O           -1.216974964842    -0.945661524907     0.103525376928
    H           -4.151162217122    -1.271463509802    -0.726508097111
    H           -3.120980411205    -2.448680359471     0.100308824318
    H           -4.117564096825    -1.312181394117     1.019831261615
    C           -0.102570971760    -0.062403354149     0.101586488987
    C            1.146116824825    -0.917541633599     0.056827370548
    H           -0.182769720780     0.595840110877    -0.750035012741
    H           -0.136740100052     0.546520432644     0.994758889381
    C            2.478309497121    -0.149357422376     0.150375070717
    H            1.135794005520    -1.545606798466    -0.827109530962
    H            1.094821368964    -1.613631888922     0.887528951965
    C            2.511839774740     1.252427707127    -0.454452049578
    H            2.809105320505    -0.123242563802     1.184356791205
    H            3.231030151940    -0.749047626235    -0.353543414687
    C            3.901257936898     1.877612009258    -0.388359601715
    H            1.808787077246     1.901155259514     0.057454646806
    H            2.189234766708     1.207945186521    -1.491068800262
    H            4.242782577714     1.962550924555     0.637892604814
    H            3.904135487096     2.871099676688    -0.821004431600
    H            4.626433796636     1.278469464531    -0.928692579620

  Mulliken Charges: (a.u.)
   Center  Symbol    Alpha    Beta     Spin     Total
       1     O     4.20240  4.20240  0.00000 -0.40480
       2     C     2.81746  2.81746  0.00000  0.36508
       3     C     3.14006  3.14006  0.00000 -0.28012
       4     O     4.14547  4.14547  0.00000 -0.29093
       5     H     0.44218  0.44218  0.00000  0.11565
       6     H     0.44177  0.44177  0.00000  0.11646
       7     H     0.44216  0.44216  0.00000  0.11568
       8     C     2.97768  2.97768  0.00000  0.04464
       9     C     3.08973  3.08973  0.00000 -0.17946
      10     H     0.45117  0.45117  0.00000  0.09765
      11     H     0.45285  0.45285  0.00000  0.09430
      12     C     3.10008  3.10008  0.00000 -0.20016
      13     H     0.44861  0.44861  0.00000  0.10279
      14     H     0.44807  0.44807  0.00000  0.10386
      15     C     3.09386  3.09386  0.00000 -0.18772
      16     H     0.44978  0.44978  0.00000  0.10045
      17     H     0.45037  0.45037  0.00000  0.09925
      18     C     3.15029  3.15029  0.00000 -0.30058
      19     H     0.44949  0.44949  0.00000  0.10102
      20     H     0.45083  0.45083  0.00000  0.09834
      21     H     0.45452  0.45452  0.00000  0.09097
      22     H     0.44673  0.44673  0.00000  0.10655
      23     H     0.45446  0.45446  0.00000  0.09109

   Total alpha = 36.00000, Total beta = 36.00000, Total charge = -0.00000

*** Psi4 exiting successfully. Buy a developer a beer!
