  ==> Input File <==

--------------------------------------------------------------------------
set {
	reference rhf
	basis 6-31G*
}

set_num_threads( 4 )
memory 2 gb

molecule MOL {
0 1

H	 -3.420663	 1.227371	 -1.044276
O	 -3.452007	 0.283848	 -0.965577
C	 -3.181085	 -0.079926	 0.364119
C	 -1.765924	 0.277073	 0.805136
H	 -3.327791	 -1.152017	 0.410903
H	 -3.905698	 0.375695	 1.036898
C	 -0.677594	 -0.417312	 -0.014550
H	 -1.637766	 1.358238	 0.744969
H	 -1.659588	 0.017670	 1.857098
C	 0.738335	 -0.034840	 0.421385
H	 -0.814977	 -0.178223	 -1.064632
H	 -0.802730	 -1.495410	 0.071702
C	 1.822265	 -0.738362	 -0.399735
H	 0.853533	 1.043532	 0.342250
H	 0.871597	 -0.279636	 1.474438
C	 3.103438	 -1.065877	 0.375819
H	 2.073335	 -0.125379	 -1.263975
H	 1.412231	 -1.665282	 -0.795346
C	 3.895979	 0.157496	 0.840192
H	 3.743322	 -1.674948	 -0.258113
H	 2.854722	 -1.683138	 1.236826
H	 4.148104	 0.800374	 0.000978
H	 4.824711	 -0.142648	 1.315805
H	 3.341328	 0.752720	 1.557991

	symmetry c1
}
set optking {
	frozen_dihedral = ("
		17 13 10 7
	")
}

ee = optimize('scf')
oeprop('DIPOLE', 'QUADRUPOLE', 'MULLIKEN_CHARGES')
f=open( 'psi4out.xyz', 'w' )
f.write( "24  " )
f.write( str(ee) + "\n" )
f.write( MOL.save_string_xyz() )
f.close()
--------------------------------------------------------------------------

    Molecular point group: c1
  Charge       = 0
  Multiplicity = 1
  Basis Set: 6-31G*
  Basis Set:
  @DF-RHF Final Energy:  -349.24499677232819
    Total Energy =                       -349.2449967723281361
    Molecular point group: c1
  Basis Set: 6-31G*
  Basis Set:
  Basis Set: 6-31G*
  Basis Set:
  @DF-RHF Final Energy:  -349.24514474754352
    Total Energy =                       -349.2451447475439750
  Basis Set: 6-31G*
  Basis Set:
  Basis Set: 6-31G*
  Basis Set:
  @DF-RHF Final Energy:  -349.24517304739231
    Total Energy =                       -349.2451730473921998
  Basis Set: 6-31G*
  Basis Set:
  Basis Set: 6-31G*
  Basis Set:
  @DF-RHF Final Energy:  -349.24531080641833
    Total Energy =                       -349.2453108064183880
  Basis Set: 6-31G*
  Basis Set:
  Basis Set: 6-31G*
  Basis Set:
  @DF-RHF Final Energy:  -349.24534017624944
    Total Energy =                       -349.2453401762493854
  Basis Set: 6-31G*
  Basis Set:
  Charge       = 0
  Multiplicity = 1
  Basis Set: 6-31G*
  Basis Set:

    Orbital Energies (a.u.)
    -----------------------

    Doubly Occupied:

       1A    -20.553553     2A    -11.267754     3A    -11.217411
       4A    -11.213720     5A    -11.212648     6A    -11.211491
       7A    -11.211334     8A    -11.207243     9A     -1.360169
      10A     -1.088054    11A     -1.048476    12A     -0.984512
      13A     -0.914549    14A     -0.850780    15A     -0.801898
      16A     -0.775269    17A     -0.679587    18A     -0.651510
      19A     -0.627128    20A     -0.618875    21A     -0.592610
      22A     -0.590501    23A     -0.552001    24A     -0.545315
      25A     -0.515717    26A     -0.503659    27A     -0.502714
      28A     -0.473865    29A     -0.467799    30A     -0.459991
      31A     -0.452104    32A     -0.450663    33A     -0.418958

  @DF-RHF Final Energy:  -349.24533975416705

   => Energetics <=

    Nuclear Repulsion Energy =            384.4662640893056960
    One-Electron Energy =               -1235.3794916872157046
    Two-Electron Energy =                 501.6678878437426761
    DFT Exchange-Correlation Energy =       0.0000000000000000
    Empirical Dispersion Energy =           0.0000000000000000
    PCM Polarization Energy =               0.0000000000000000
    EFP Energy =                            0.0000000000000000
    Total Energy =                       -349.2453397541673326
    Molecular point group: c1
  Basis Set: 6-31G*
  Basis Set:

  -Total Gradient:
     Atom            X                  Y                   Z
    ------   -----------------  -----------------  -----------------
       1        0.000000359612     0.000001228854    -0.000001453332
       2       -0.000007270709    -0.000001050633    -0.000006398699
       3        0.000011459179     0.000031064790    -0.000020046463
       4       -0.000005453774     0.000064847100    -0.000056799976
       5        0.000011129064     0.000001051321     0.000004069517
       6       -0.000002659310     0.000002696620     0.000003580186
       7        0.000009158012    -0.002222219065     0.001852785202
       8        0.000011755615     0.000025176911     0.000033385445
       9       -0.000005664439    -0.000030912167    -0.000027374942
      10        0.000609118973     0.003319631574    -0.001956150167
      11        0.000005970383    -0.000055800537     0.000009215296
      12       -0.000016612690    -0.000000819116     0.000034000699
      13       -0.003282376847    -0.002811683586    -0.001871100149
      14       -0.000040272355    -0.000000618434    -0.000022622399
      15        0.000020278506    -0.000020270377     0.000007757205
      16       -0.000038592437    -0.000015572715    -0.000009672363
      17        0.002769037697     0.001659692919     0.002050777974
      18       -0.000022771856     0.000022656749     0.000010470576
      19       -0.000019721736     0.000042929187     0.000027178861
      20       -0.000015456941     0.000013790002    -0.000033229391
      21       -0.000021325602    -0.000024919829    -0.000029910169
      22        0.000014075251    -0.000000802167     0.000002545369
      23       -0.000007663306     0.000001711897     0.000004674143
      24        0.000023499725    -0.000001809296    -0.000005682423

  **** Optimization is complete! (in 6 steps) ****
    Final optimized geometry and variables:
    Molecular point group: c1

    Geometry (in Angstrom), charge = 0, multiplicity = 1:

    H           -3.400215067092     1.410951244334    -1.228784504496
    O           -3.448917631914     0.470300792502    -1.128005447065
    C           -3.182940651274     0.132730474930     0.209542328844
    C           -1.761629405569     0.475966990054     0.641742186986
    H           -3.347320733774    -0.935357098498     0.280841598347
    H           -3.899304649801     0.615449562785     0.872118690555
    C           -0.685453173274    -0.252372662017    -0.163825567064
    H           -1.616018687012     1.553423456290     0.559353561693
    H           -1.658228444467     0.236568692700     1.698856057449
    C            0.737372818342     0.108188029925     0.269585444780
    H           -0.818820021533    -0.031449161906    -1.218784740699
    H           -0.826607780056    -1.326414394866    -0.057478773094
    C            1.819558452033    -0.582990659187    -0.578148015699
    H            0.869185359538     1.186722495724     0.236110705176
    H            0.860049815041    -0.177235469423     1.313571925743
    C            3.114948886010    -0.883789153971     0.185149769365
    H            2.071542591818     0.047654429563    -1.428389349537
    H            1.428421777733    -1.514320384615    -0.978974002062
    C            3.845815051854     0.363808921600     0.683875494827
    H            3.781434042654    -1.445555414701    -0.465020770754
    H            2.892038610846    -1.534175767469     1.028658005408
    H            4.094277832171     1.025541040810    -0.141711370717
    H            4.772316712264     0.098087716017     1.183657708682
    H            3.244230056101     0.928104913639     1.389451074186

  Mulliken Charges: (a.u.)
   Center  Symbol    Alpha    Beta     Spin     Total
       1     H     0.28338  0.28338  0.00000  0.43323
       2     O     4.36827  4.36827  0.00000 -0.73654
       3     C     2.99609  2.99609  0.00000  0.00781
       4     C     3.16952  3.16952  0.00000 -0.33903
       5     H     0.41637  0.41637  0.00000  0.16725
       6     H     0.42816  0.42816  0.00000  0.14368
       7     C     3.15309  3.15309  0.00000 -0.30617
       8     H     0.42821  0.42821  0.00000  0.14359
       9     H     0.42243  0.42243  0.00000  0.15513
      10     C     3.15443  3.15443  0.00000 -0.30886
      11     H     0.41199  0.41199  0.00000  0.17602
      12     H     0.42324  0.42324  0.00000  0.15351
      13     C     3.15359  3.15359  0.00000 -0.30719
      14     H     0.42211  0.42211  0.00000  0.15578
      15     H     0.42457  0.42457  0.00000  0.15086
      16     C     3.15319  3.15319  0.00000 -0.30638
      17     H     0.42281  0.42281  0.00000  0.15438
      18     H     0.41958  0.41958  0.00000  0.16084
      19     C     3.24110  3.24110  0.00000 -0.48220
      20     H     0.42177  0.42177  0.00000  0.15645
      21     H     0.42396  0.42396  0.00000  0.15207
      22     H     0.42262  0.42262  0.00000  0.15475
      23     H     0.41960  0.41960  0.00000  0.16080
      24     H     0.41990  0.41990  0.00000  0.16020

   Total alpha = 33.00000, Total beta = 33.00000, Total charge = -0.00000
