  ==> Input File <==

--------------------------------------------------------------------------
set {
	reference rhf
	basis 6-31G*
}

set_num_threads( 1 )
memory 2 gb

molecule MOL {
0 1

H	 -3.420663	 1.227371	 -1.044276
O	 -3.452007	 0.283848	 -0.965577
C	 -3.181085	 -0.079926	 0.364119
C	 -1.765924	 0.277073	 0.805136
H	 -3.327791	 -1.152017	 0.410903
H	 -3.905698	 0.375695	 1.036898
C	 -1.199212	 -0.669902	 1.863717
H	 -1.113402	 0.284464	 -0.068432
H	 -1.773213	 1.296849	 1.186221
C	 0.229269	 -0.316203	 2.282666
H	 -1.228903	 -1.686905	 1.484860
H	 -1.846807	 -0.651358	 2.738743
C	 0.787543	 -1.264922	 3.346785
H	 0.868627	 -0.326897	 1.403163
H	 0.252618	 0.703661	 2.664684
C	 2.183590	 -0.898943	 3.863764
H	 0.806713	 -2.278827	 2.950145
H	 0.101203	 -1.283374	 4.190831
C	 3.297227	 -1.009906	 2.820737
H	 2.423234	 -1.551933	 4.699506
H	 2.164604	 0.112195	 4.265563
H	 3.331975	 -2.007979	 2.392038
H	 4.265957	 -0.809812	 3.268355
H	 3.163818	 -0.304768	 2.007013

	symmetry c1
}
set optking {
	frozen_dihedral = ("
		20 16 13 17,
		17 13 10 7,
		13 10 7 11,
		11 7 4 3,
		1 2 3 5
	")
}

ee = energy('scf')
oeprop('DIPOLE', 'QUADRUPOLE', 'MULLIKEN_CHARGES')
f=open( 'psi4out.xyz', 'w' )
f.write( "24  " )
f.write( str(ee) + "\n" )
f.write( MOL.save_string_xyz() )
f.close()
--------------------------------------------------------------------------

    Molecular point group: c1

    Geometry (in Angstrom), charge = 0, multiplicity = 1:

       Center              X                  Y                   Z               Mass
    ------------   -----------------  -----------------  -----------------  -----------------
           H         -2.988098630159     1.667684707654    -2.788743737604     1.007825032070
           O         -3.019442630159     0.724161707654    -2.710044737604    15.994914619560
           C         -2.748520630159     0.360387707654    -1.380348737604    12.000000000000
           C         -1.333359630159     0.717386707654    -0.939331737604    12.000000000000
           H         -2.895226630159    -0.711703292346    -1.333564737604     1.007825032070
           H         -3.473133630159     0.816008707654    -0.707569737604     1.007825032070
           C         -0.766647630159    -0.229588292346     0.119249262396    12.000000000000
           H         -0.680837630159     0.724777707654    -1.812899737604     1.007825032070
           H         -1.340648630159     1.737162707654    -0.558246737604     1.007825032070
           C          0.661833369841     0.124110707654     0.538198262396    12.000000000000
           H         -0.796338630159    -1.246591292346    -0.259607737604     1.007825032070
           H         -1.414242630159    -0.211044292346     0.994275262396     1.007825032070
           C          1.220107369841    -0.824608292346     1.602317262396    12.000000000000
           H          1.301191369841     0.113416707654    -0.341304737604     1.007825032070
           H          0.685182369841     1.143974707654     0.920216262396     1.007825032070
           C          2.616154369841    -0.458629292346     2.119296262396    12.000000000000
           H          1.239277369841    -1.838513292346     1.205677262396     1.007825032070
           H          0.533767369841    -0.843060292346     2.446363262396     1.007825032070
           C          3.729791369841    -0.569592292346     1.076269262396    12.000000000000
           H          2.855798369841    -1.111619292346     2.955038262396     1.007825032070
           H          2.597168369841     0.552508707654     2.521095262396     1.007825032070
           H          3.764539369841    -1.567665292346     0.647570262396     1.007825032070
           H          4.698521369841    -0.369498292346     1.523887262396     1.007825032070
           H          3.596382369841     0.135545707654     0.262545262396     1.007825032070

  Charge       = 0
  Multiplicity = 1
  Basis Set: 6-31G*
  Basis Set:

    Orbital Energies (a.u.)
    -----------------------

    Doubly Occupied:

       1A    -20.551965     2A    -11.266080     3A    -11.218782
       4A    -11.216042     5A    -11.215673     6A    -11.214975
       7A    -11.214364     8A    -11.208576     9A     -1.358407
      10A     -1.092128    11A     -1.050855    12A     -0.986144
      13A     -0.914293    14A     -0.850299    15A     -0.805517
      16A     -0.778715    17A     -0.691674    18A     -0.648177
      19A     -0.625575    20A     -0.609374    21A     -0.601235
      22A     -0.587876    23A     -0.563047    24A     -0.531762
      25A     -0.523570    26A     -0.517122    27A     -0.486913
      28A     -0.481792    29A     -0.465135    30A     -0.461891
      31A     -0.460569    32A     -0.454433    33A     -0.418446

  @DF-RHF Final Energy:  -349.24447222596149

   => Energetics <=

    Nuclear Repulsion Energy =            380.0113321302858935
    One-Electron Energy =               -1226.3686575283227285
    Two-Electron Energy =                 497.1128531720742103
    DFT Exchange-Correlation Energy =       0.0000000000000000
    Empirical Dispersion Energy =           0.0000000000000000
    PCM Polarization Energy =               0.0000000000000000
    EFP Energy =                            0.0000000000000000
    Total Energy =                       -349.2444722259626815

  Mulliken Charges: (a.u.)
   Center  Symbol    Alpha    Beta     Spin     Total
       1     H     0.28356  0.28356  0.00000  0.43288
       2     O     4.36992  4.36992  0.00000 -0.73984
       3     C     2.99041  2.99041  0.00000  0.01918
       4     C     3.17316  3.17316  0.00000 -0.34632
       5     H     0.41638  0.41638  0.00000  0.16723
       6     H     0.43048  0.43048  0.00000  0.13904
       7     C     3.15845  3.15845  0.00000 -0.31691
       8     H     0.41312  0.41312  0.00000  0.17375
       9     H     0.42577  0.42577  0.00000  0.14847
      10     C     3.15367  3.15367  0.00000 -0.30734
      11     H     0.41934  0.41934  0.00000  0.16131
      12     H     0.42348  0.42348  0.00000  0.15305
      13     C     3.15267  3.15267  0.00000 -0.30533
      14     H     0.42005  0.42005  0.00000  0.15989
      15     H     0.42410  0.42410  0.00000  0.15179
      16     C     3.15241  3.15241  0.00000 -0.30482
      17     H     0.42367  0.42367  0.00000  0.15266
      18     H     0.42248  0.42248  0.00000  0.15503
      19     C     3.24125  3.24125  0.00000 -0.48250
      20     H     0.42083  0.42083  0.00000  0.15833
      21     H     0.42357  0.42357  0.00000  0.15286
      22     H     0.42195  0.42195  0.00000  0.15610
      23     H     0.41920  0.41920  0.00000  0.16160
      24     H     0.42006  0.42006  0.00000  0.15988

   Total alpha = 33.00000, Total beta = 33.00000, Total charge =  0.00000
