  ==> Input File <==

--------------------------------------------------------------------------
set {
	reference rhf
	basis 6-31G*
}

set_num_threads( 1 )
memory 2 gb

molecule MOL {
0 1

H	 1.899215	 -1.590850	 0.102346
O	 1.223589	 -1.011073	 -0.218709
C	 1.135793	 0.118896	 0.612333
C	 0.031547	 1.023609	 0.088541
H	 2.077119	 0.665517	 0.612390
H	 0.934080	 -0.177462	 1.639263
C	 -1.134819	 0.293262	 -0.585751
H	 0.474374	 1.714721	 -0.623187
H	 -0.338529	 1.620940	 0.920081
C	 -1.917817	 -0.639439	 0.339494
H	 -0.758119	 -0.268455	 -1.433105
H	 -1.813832	 1.041889	 -0.986690
H	 -2.777680	 -1.057197	 -0.174994
H	 -1.310268	 -1.471279	 0.680599
H	 -2.283753	 -0.111424	 1.216626

	symmetry c1
}
set optking {
	frozen_dihedral = ("
		8 4 7 11,
		1 2 3 4
	")
}

ee = energy('scf')
oeprop('DIPOLE', 'QUADRUPOLE', 'MULLIKEN_CHARGES')
f=open( 'psi4out.xyz', 'w' )
f.write( "15  " )
f.write( str(ee) + "\n" )
f.write( MOL.save_string_xyz() )
f.close()
--------------------------------------------------------------------------

    Molecular point group: c1

    Geometry (in Angstrom), charge = 0, multiplicity = 1:

       Center              X                  Y                   Z               Mass
    ------------   -----------------  -----------------  -----------------  -----------------
           H          1.993449405218    -1.506516851519     0.049347237443     1.007825032070
           O          1.317823405218    -0.926739851519    -0.271707762557    15.994914619560
           C          1.230027405218     0.203229148481     0.559334237443    12.000000000000
           C          0.125781405218     1.107942148481     0.035542237443    12.000000000000
           H          2.171353405218     0.749850148481     0.559391237443     1.007825032070
           H          1.028314405218    -0.093128851519     1.586264237443     1.007825032070
           C         -1.040584594782     0.377595148481    -0.638749762557    12.000000000000
           H          0.568608405218     1.799054148481    -0.676185762557     1.007825032070
           H         -0.244294594782     1.705273148481     0.867082237443     1.007825032070
           C         -1.823582594782    -0.555105851519     0.286495237443    12.000000000000
           H         -0.663884594782    -0.184121851519    -1.486103762557     1.007825032070
           H         -1.719597594782     1.126222148481    -1.039688762557     1.007825032070
           H         -2.683445594782    -0.972863851519    -0.227992762557     1.007825032070
           H         -1.216033594782    -1.386945851519     0.627600237443     1.007825032070
           H         -2.189518594782    -0.027090851519     1.163627237443     1.007825032070

  Charge       = 0
  Multiplicity = 1
  Basis Set: 6-31G*
  Basis Set:

    Orbital Energies (a.u.)
    -----------------------

    Doubly Occupied:

       1A    -20.554454     2A    -11.267751     3A    -11.211417
       4A    -11.205397     5A    -11.198420     6A     -1.361552
       7A     -1.060197     8A     -0.968854     9A     -0.865222
      10A     -0.771622    11A     -0.704821    12A     -0.650891
      13A     -0.605578    14A     -0.567263    15A     -0.561785
      16A     -0.527501    17A     -0.506728    18A     -0.474397
      19A     -0.461205    20A     -0.451148    21A     -0.428083

  @DF-RHF Final Energy:  -232.14023344180805

   => Energetics <=

    Nuclear Repulsion Energy =            194.0101030443821060
    One-Electron Energy =                -699.4919403895718233
    Two-Electron Energy =                 273.3416039033815537
    DFT Exchange-Correlation Energy =       0.0000000000000000
    Empirical Dispersion Energy =           0.0000000000000000
    PCM Polarization Energy =               0.0000000000000000
    EFP Energy =                            0.0000000000000000
    Total Energy =                       -232.1402334418081637

  Mulliken Charges: (a.u.)
   Center  Symbol    Alpha    Beta     Spin     Total
       1     H     0.28043  0.28043  0.00000  0.43914
       2     O     4.37058  4.37058  0.00000 -0.74117
       3     C     2.99588  2.99588  0.00000  0.00824
       4     C     3.16766  3.16766  0.00000 -0.33533
       5     H     0.42840  0.42840  0.00000  0.14321
       6     H     0.43066  0.43066  0.00000  0.13867
       7     C     3.14773  3.14773  0.00000 -0.29545
       8     H     0.41802  0.41802  0.00000  0.16396
       9     H     0.42309  0.42309  0.00000  0.15382
      10     C     3.24279  3.24279  0.00000 -0.48559
      11     H     0.40669  0.40669  0.00000  0.18661
      12     H     0.42503  0.42503  0.00000  0.14993
      13     H     0.42137  0.42137  0.00000  0.15726
      14     H     0.41414  0.41414  0.00000  0.17172
      15     H     0.42752  0.42752  0.00000  0.14496

   Total alpha = 21.00000, Total beta = 21.00000, Total charge = -0.00000
