  ==> Input File <==

--------------------------------------------------------------------------
set {
	reference rhf
	basis cc-pvtz
}

set_num_threads( 4 )
memory 2 gb

molecule MOL {
0 1

O	 0.686635	 2.141736	 0.057260
C	 -0.417113	 2.557450	 0.157177
C	 -1.671174	 1.721529	 0.151810
O	 -0.697393	 3.843604	 0.289952
C	 -1.413045	 0.229353	 0.001137
H	 -2.204309	 1.937242	 1.071982
H	 -2.301617	 2.094175	 -0.648902
C	 -2.702562	 -0.586401	 0.000228
H	 -0.767302	 -0.105376	 0.805198
H	 -0.865323	 0.051566	 -0.917524
C	 -3.953810	 0.284959	 -0.000782
H	 -2.717793	 -1.238567	 -0.869075
H	 -2.719108	 -1.238472	 0.869576
H	 -3.983727	 0.924403	 -0.876454
H	 -4.852989	 -0.320147	 -0.001515
H	 -3.985140	 0.924399	 0.874841
C	 0.390111	 4.745946	 0.310773
H	 1.049325	 4.529633	 1.138343
H	 -0.039960	 5.727778	 0.424410
H	 0.950702	 4.688843	 -0.610476

	symmetry c1
}
set optking {
	frozen_dihedral = ("
		9 5 8 12
	")
}

ee = optimize('scf')
oeprop('DIPOLE', 'QUADRUPOLE', 'MULLIKEN_CHARGES')
f=open( 'psi4out.xyz', 'w' )
f.write( "20  " )
f.write( str(ee) + "\n" )
f.write( MOL.save_string_xyz() )
f.close()
--------------------------------------------------------------------------

    Molecular point group: c1
  Charge       = 0
  Multiplicity = 1
  Basis Set: CC-PVTZ
  Basis Set:
  @DF-RHF Final Energy:  -384.06834445252179
    Total Energy =                       -384.0683444525224104
    Molecular point group: c1
  Basis Set: CC-PVTZ
  Basis Set:
  Basis Set: CC-PVTZ
  Basis Set:
  @DF-RHF Final Energy:  -384.06862715904498
    Total Energy =                       -384.0686271590451497
  Basis Set: CC-PVTZ
  Basis Set:
  Basis Set: CC-PVTZ
  Basis Set:
  @DF-RHF Final Energy:  -384.07248087825621
    Total Energy =                       -384.0724808782561013
  Basis Set: CC-PVTZ
  Basis Set:
  Basis Set: CC-PVTZ
  Basis Set:
  @DF-RHF Final Energy:  -384.07305907198344
    Total Energy =                       -384.0730590719833799
  Basis Set: CC-PVTZ
  Basis Set:
  @DF-RHF Final Energy:  -384.07282098920371
    Total Energy =                       -384.0728209892031373
  Basis Set: CC-PVTZ
  Basis Set:
  @DF-RHF Final Energy:  -384.07247928470588
    Total Energy =                       -384.0724792847057643
  Basis Set: CC-PVTZ
  Basis Set:
  Basis Set: CC-PVTZ
  Basis Set:
  @DF-RHF Final Energy:  -384.07314669217101
    Total Energy =                       -384.0731466921713491
  Basis Set: CC-PVTZ
  Basis Set:
  Basis Set: CC-PVTZ
  Basis Set:
  @DF-RHF Final Energy:  -384.07314844284787
    Total Energy =                       -384.0731484428479234
  Basis Set: CC-PVTZ
  Basis Set:
  Charge       = 0
  Multiplicity = 1
  Basis Set: CC-PVTZ
  Basis Set:

    Orbital Energies (a.u.)
    -----------------------

    Doubly Occupied:

       1A    -20.595927     2A    -20.533930     3A    -11.364261
       4A    -11.278257     5A    -11.233244     6A    -11.218722
       7A    -11.217479     8A    -11.211661     9A     -1.471908
      10A     -1.365517    11A     -1.085950    12A     -1.022107
      13A     -0.968364    14A     -0.898570    15A     -0.799282
      16A     -0.762072    17A     -0.702883    18A     -0.686447
      19A     -0.674434    20A     -0.644413    21A     -0.606535
      22A     -0.591590    23A     -0.566699    24A     -0.547192
      25A     -0.543007    26A     -0.523410    27A     -0.517012
      28A     -0.473332    29A     -0.471906    30A     -0.462901
      31A     -0.452981    32A     -0.440953

  @DF-RHF Final Energy:  -384.07314845449190

   => Energetics <=

    Nuclear Repulsion Energy =            385.9680106874052967
    One-Electron Energy =               -1288.2164246837005521
    Two-Electron Energy =                 518.1752655418031281
    DFT Exchange-Correlation Energy =       0.0000000000000000
    Empirical Dispersion Energy =           0.0000000000000000
    PCM Polarization Energy =               0.0000000000000000
    EFP Energy =                            0.0000000000000000
    Total Energy =                       -384.0731484544921841
    Molecular point group: c1
  Basis Set: CC-PVTZ
  Basis Set:

  -Total Gradient:
     Atom            X                  Y                   Z
    ------   -----------------  -----------------  -----------------
       1       -0.000003924293     0.000012387728    -0.000021945986
       2        0.000002443736    -0.000015834761     0.000066004514
       3        0.000022624145     0.000019360077    -0.000030322116
       4        0.000001865883    -0.000012747078    -0.000017128138
       5        0.000955659275    -0.001339694628    -0.001837332775
       6       -0.000004663946    -0.000000790661     0.000002484670
       7        0.000010912892     0.000001582589     0.000005448367
       8        0.000991874707    -0.001475712452     0.001651008943
       9       -0.000947096710     0.001370815650     0.001289914931
      10       -0.000002168182     0.000004989353     0.000012969320
      11       -0.000006909941    -0.000014120452    -0.000018522872
      12       -0.001014601630     0.001457073495    -0.001109483267
      13       -0.000008951132    -0.000001559298    -0.000011999671
      14       -0.000016923860    -0.000025030719     0.000001323555
      15        0.000004288224    -0.000004999289     0.000008219667
      16        0.000012361882     0.000017834740     0.000009306869
      17        0.000000977781     0.000003984353     0.000001576939
      18       -0.000000360570     0.000000035619    -0.000000764192
      19        0.000002029333     0.000001682869    -0.000000729993
      20        0.000000562405     0.000000742866    -0.000000028767

  **** Optimization is complete! (in 9 steps) ****
    Final optimized geometry and variables:
    Molecular point group: c1

    Geometry (in Angstrom), charge = 0, multiplicity = 1:

    O            1.900024738568     0.225998400649    -0.069444121648
    C            0.811068540332     0.677777145385     0.035566428628
    C           -0.474140289805    -0.111296937497     0.034249894564
    O            0.575610917997     1.973077696042     0.171228906159
    C           -0.248069909136    -1.612194410103    -0.119926449831
    H           -0.988185704880     0.127685980715     0.957955909206
    H           -1.088774363042     0.293795564979    -0.760465978619
    C           -1.522175763239    -2.497955547060    -0.120710104990
    H            0.400853330730    -1.924630888345     0.687654757061
    H            0.311788776630    -1.777357718267    -1.030654760791
    C           -2.875685611619    -1.785920034996    -0.134578623626
    H           -1.488672094491    -3.142022266044    -0.992009385988
    H           -1.494703203212    -3.154554456819     0.741092889978
    H           -2.998964495342    -1.164667074549    -1.014281223014
    H           -3.674407863265    -2.518506666014    -0.142385467335
    H           -3.020123304639    -1.159577238458     0.737702820076
    C            1.693426140547     2.837377846865     0.189071336685
    H            2.348059799840     2.597444580024     1.013787654071
    H            1.297872874819     3.833307091952     0.305654608677
    H            2.248347825661     2.762490188294    -0.734358382097

  Mulliken Charges: (a.u.)
   Center  Symbol    Alpha    Beta     Spin     Total
       1     O     4.19681  4.19681  0.00000 -0.39361
       2     C     2.81241  2.81241  0.00000  0.37518
       3     C     3.09606  3.09606  0.00000 -0.19212
       4     O     4.14627  4.14627  0.00000 -0.29254
       5     C     3.09377  3.09377  0.00000 -0.18755
       6     H     0.43900  0.43900  0.00000  0.12200
       7     H     0.43864  0.43864  0.00000  0.12271
       8     C     3.08941  3.08941  0.00000 -0.17881
       9     H     0.44355  0.44355  0.00000  0.11291
      10     H     0.44326  0.44326  0.00000  0.11349
      11     C     3.15847  3.15847  0.00000 -0.31693
      12     H     0.44968  0.44968  0.00000  0.10064
      13     H     0.44971  0.44971  0.00000  0.10059
      14     H     0.45374  0.45374  0.00000  0.09251
      15     H     0.44283  0.44283  0.00000  0.11435
      16     H     0.45409  0.45409  0.00000  0.09182
      17     C     3.03841  3.03841  0.00000 -0.07681
      18     H     0.45434  0.45434  0.00000  0.09131
      19     H     0.44521  0.44521  0.00000  0.10957
      20     H     0.45435  0.45435  0.00000  0.09129

   Total alpha = 32.00000, Total beta = 32.00000, Total charge = -0.00000
