                              Psi4 1.0.54 Driver

  ==> Input File <==

--------------------------------------------------------------------------
set {
	reference rhf
	basis cc-pvtz
}

set_num_threads( 4 )
memory 2 gb

molecule MOL {
0 1

H	 -0.939693	 0.000281	 1.681345
O	 -0.046262	 -0.000157	 1.387678
C	 -0.000837	 0.000006	 -0.025491
C	 0.264643	 -1.417529	 -0.528744
C	 -1.320819	 0.532822	 -0.579476
C	 1.150459	 0.926346	 -0.392371
H	 0.340870	 -1.442993	 -1.609640
H	 -0.539844	 -2.086240	 -0.237715
H	 1.187423	 -1.797975	 -0.108982
H	 -1.302601	 0.578809	 -1.662223
H	 -2.147133	 -0.109070	 -0.289213
H	 -1.515066	 1.526420	 -0.195422
H	 1.265865	 0.992233	 -1.467838
H	 2.076302	 0.559698	 0.032593
H	 0.970298	 1.920297	 -0.002731

	symmetry c1
}
set optking {
	frozen_dihedral = ("
		4 3 2 1
	")
}

ee,wfn = optimize('scf', return_wfn=True)
oeprop( wfn, 'DIPOLE', 'QUADRUPOLE', 'MULLIKEN_CHARGES')
f=open( 'psi4out.xyz', 'w' )
f.write( "15  " )
f.write( str(ee) + "\n" )
f.write( MOL.save_string_xyz() )
f.close()
--------------------------------------------------------------------------

    Molecular point group: c1
  Charge       = 0
  Multiplicity = 1
  Basis Set: CC-PVTZ
  Basis Set:
  @DF-RHF Final Energy:  -232.24509482142838
    Total Energy =                       -232.2450948214284949
    Molecular point group: c1
  Basis Set: CC-PVTZ
  Basis Set:
  Basis Set: CC-PVTZ
  Basis Set:
  @DF-RHF Final Energy:  -232.24523655221552
    Total Energy =                       -232.2452365522154878
  Basis Set: CC-PVTZ
  Basis Set:
  Basis Set: CC-PVTZ
  Basis Set:
  @DF-RHF Final Energy:  -232.24528894324547
    Total Energy =                       -232.2452889432452139
  Basis Set: CC-PVTZ
  Basis Set:
  Basis Set: CC-PVTZ
  Basis Set:
  @DF-RHF Final Energy:  -232.24528995853913
    Total Energy =                       -232.2452899585395016
  Basis Set: CC-PVTZ
  Basis Set:
  Charge       = 0
  Multiplicity = 1
  Basis Set: CC-PVTZ
  Basis Set:

    Orbital Energies (a.u.)
    -----------------------

    Doubly Occupied:

       1A    -20.540822     2A    -11.281027     3A    -11.215383
       4A    -11.204228     5A    -11.203243     6A     -1.363337
       7A     -1.065645     8A     -0.945934     9A     -0.936890
      10A     -0.778560    11A     -0.672144    12A     -0.624466
      13A     -0.622754    14A     -0.576386    15A     -0.557359
      16A     -0.534308    17A     -0.517035    18A     -0.511394
      19A     -0.503389    20A     -0.458576    21A     -0.426975

  @DF-RHF Final Energy:  -232.24529145276841

   => Energetics <=

    Nuclear Repulsion Energy =            200.6008452649794549
    One-Electron Energy =                -712.6125687096258616
    Two-Electron Energy =                 279.7664319918779938
    DFT Exchange-Correlation Energy =       0.0000000000000000
    Empirical Dispersion Energy =           0.0000000000000000
    PCM Polarization Energy =               0.0000000000000000
    EFP Energy =                            0.0000000000000000
    Total Energy =                       -232.2452914527683561
    Molecular point group: c1
  Basis Set: CC-PVTZ
  Basis Set:

  -Total Gradient:
     Atom            X                  Y                   Z
    ------   -----------------  -----------------  -----------------
       1       -0.000009528208     0.001706242320     0.000037840797
       2        0.000345626968    -0.002019313069     0.000003923921
       3       -0.001353246889     0.000146485291     0.000047543694
       4        0.001016844094     0.000210354042    -0.000042991997
       5       -0.000014948275    -0.000010999790    -0.000011546874
       6        0.000005879079    -0.000012437473    -0.000022996853
       7        0.000001857774    -0.000020855370     0.000007337910
       8        0.000009748463     0.000022927005    -0.000003265922
       9       -0.000008979415     0.000009398171    -0.000000807720
      10       -0.000001547928     0.000003230636    -0.000005702352
      11        0.000005619859     0.000010353016    -0.000005454294
      12        0.000014480647    -0.000030309264     0.000000910010
      13        0.000000808126     0.000010424913     0.000000476227
      14       -0.000010989209    -0.000001992452    -0.000002670926
      15       -0.000001625086    -0.000023507976    -0.000002595617

  **** Optimization is complete! (in 5 steps) ****
    Final optimized geometry and variables:
    Molecular point group: c1

    Geometry (in Angstrom), charge = 0, multiplicity = 1:

    H           -0.894989127388    -0.034102655174     1.714995346988
    O           -0.013739109614    -0.026898984042     1.391473324830
    C           -0.000694259436    -0.002332403179    -0.025195124985
    C            0.257841286855    -1.419669136466    -0.531226718745
    C           -1.330427960694     0.529972910556    -0.550729179777
    C            1.144471311176     0.921319819900    -0.424577955970
    H            0.324329274976    -1.446712288477    -1.613209569224
    H           -0.540220323159    -2.085879212641    -0.223012293848
    H            1.185658443333    -1.795966614476    -0.119499283877
    H           -1.329625474802     0.579184575221    -1.632620447471
    H           -2.150220260828    -0.116151750017    -0.250765942020
    H           -1.520420444084     1.525605315384    -0.166385242108
    H            1.259844422417     0.956982098503    -1.501838991452
    H            2.072557622954     0.569733166656     0.008422180783
    H            0.963483872782     1.925448570955    -0.061742641642

  Mulliken Charges: (a.u.)
   Center  Symbol    Alpha    Beta     Spin     Total
       1     H     0.39291  0.39291  0.00000  0.21419
       2     O     4.21425  4.21425  0.00000 -0.42850
       3     C     2.87943  2.87943  0.00000  0.24114
       4     C     3.14234  3.14234  0.00000 -0.28468
       5     C     3.16021  3.16021  0.00000 -0.32041
       6     C     3.14035  3.14035  0.00000 -0.28070
       7     H     0.45870  0.45870  0.00000  0.08261
       8     H     0.45475  0.45475  0.00000  0.09050
       9     H     0.44821  0.44821  0.00000  0.10359
      10     H     0.45128  0.45128  0.00000  0.09744
      11     H     0.45288  0.45288  0.00000  0.09423
      12     H     0.44593  0.44593  0.00000  0.10814
      13     H     0.45948  0.45948  0.00000  0.08104
      14     H     0.44738  0.44738  0.00000  0.10524
      15     H     0.45191  0.45191  0.00000  0.09617

   Total alpha = 21.00000, Total beta = 21.00000, Total charge =  0.00000

*** Psi4 exiting successfully. Buy a developer a beer!
