  ==> Input File <==

--------------------------------------------------------------------------
set {
	reference rhf
	basis 6-31G*
}

set_num_threads( 4 )
memory 2 gb

molecule MOL {
0 1

H	 -0.763698	 1.744108	 0.004290
O	 0.055946	 1.300438	 -0.164479
C	 0.004957	 -0.004114	 0.366649
C	 1.201664	 -0.828089	 -0.095740
C	 -1.317755	 -0.601827	 -0.081511
H	 0.013527	 0.048298	 1.454924
H	 1.216388	 -0.895289	 -1.178704
H	 2.135132	 -0.372895	 0.226467
H	 1.166770	 -1.832878	 0.313827
H	 -1.355732	 -0.658248	 -1.164429
H	 -2.141614	 0.017037	 0.254547
H	 -1.447303	 -1.600817	 0.322594

	symmetry c1
}
set optking {
	frozen_dihedral = ("
		1 2 3 4
	")
}

ee = optimize('scf')
oeprop('DIPOLE', 'QUADRUPOLE', 'MULLIKEN_CHARGES')
f=open( 'psi4out.xyz', 'w' )
f.write( "12  " )
f.write( str(ee) + "\n" )
f.write( MOL.save_string_xyz() )
f.close()
--------------------------------------------------------------------------

    Molecular point group: c1
  Charge       = 0
  Multiplicity = 1
  Basis Set: 6-31G*
  Basis Set:
  @DF-RHF Final Energy:  -193.11287481492835
    Total Energy =                       -193.1128748149283467
    Molecular point group: c1
  Basis Set: 6-31G*
  Basis Set:
  Basis Set: 6-31G*
  Basis Set:
  @DF-RHF Final Energy:  -193.11465640768188
    Total Energy =                       -193.1146564076818493
  Basis Set: 6-31G*
  Basis Set:
  Basis Set: 6-31G*
  Basis Set:
  @DF-RHF Final Energy:  -193.11506573400072
    Total Energy =                       -193.1150657340006376
  Basis Set: 6-31G*
  Basis Set:
  Basis Set: 6-31G*
  Basis Set:
  @DF-RHF Final Energy:  -193.11507149117975
    Total Energy =                       -193.1150714911796911
  Basis Set: 6-31G*
  Basis Set:
  Charge       = 0
  Multiplicity = 1
  Basis Set: 6-31G*
  Basis Set:

    Orbital Energies (a.u.)
    -----------------------

    Doubly Occupied:

       1A    -20.550835     2A    -11.275544     3A    -11.215169
       4A    -11.206512     5A     -1.360256     6A     -1.042066
       7A     -0.940839     8A     -0.803594     9A     -0.694282
      10A     -0.631314    11A     -0.605111    12A     -0.546273
      13A     -0.532762    14A     -0.529164    15A     -0.511481
      16A     -0.467990    17A     -0.429517

  @DF-RHF Final Energy:  -193.11507211542434

   => Energetics <=

    Nuclear Repulsion Energy =            135.5902090980077048
    One-Electron Energy =                -530.7251422906372227
    Two-Electron Energy =                 202.0198610772050927
    DFT Exchange-Correlation Energy =       0.0000000000000000
    Empirical Dispersion Energy =           0.0000000000000000
    PCM Polarization Energy =               0.0000000000000000
    EFP Energy =                            0.0000000000000000
    Total Energy =                       -193.1150721154244536
    Molecular point group: c1
  Basis Set: 6-31G*
  Basis Set:

  -Total Gradient:
     Atom            X                  Y                   Z
    ------   -----------------  -----------------  -----------------
       1       -0.000454783145    -0.000422938870    -0.001162197984
       2        0.000435592862     0.000471618315     0.001214444548
       3        0.000416835026     0.000240296478     0.000555773938
       4       -0.000424918677    -0.000255965240    -0.000623783554
       5        0.000000133216    -0.000003469495     0.000005595439
       6        0.000004944933    -0.000029811489    -0.000015668159
       7       -0.000019487271     0.000011675262     0.000002275711
       8       -0.000002873799     0.000007847055     0.000010534142
       9        0.000011873326    -0.000007364686    -0.000008311226
      10        0.000009388518     0.000014494192     0.000014964215
      11        0.000025527325    -0.000003504029    -0.000006558125
      12       -0.000002232313    -0.000022877495     0.000012931055

  **** Optimization is complete! (in 5 steps) ****
    Final optimized geometry and variables:
    Molecular point group: c1

    Geometry (in Angstrom), charge = 0, multiplicity = 1:

    H           -0.642445910642     1.790736229792    -0.018545273142
    O            0.153935701782     1.296110991841    -0.152896011429
    C           -0.000001780191    -0.003751294951     0.369896541460
    C            1.202479207712    -0.804844962546    -0.099581797161
    C           -1.317224417736    -0.624393259901    -0.082751875258
    H            0.010024079660     0.042331241097     1.458264468113
    H            1.207862003390    -0.872376283950    -1.182400417331
    H            2.120583715059    -0.321413756794     0.214139926645
    H            1.183104747556    -1.809044114537     0.312014112271
    H           -1.355863206639    -0.679956218989    -1.166006347118
    H           -2.164469966732    -0.032567028539     0.256484051342
    H           -1.435594002861    -1.625571383984     0.319341185415

  Mulliken Charges: (a.u.)
   Center  Symbol    Alpha    Beta     Spin     Total
       1     H     0.28240  0.28240  0.00000  0.43520
       2     O     4.37313  4.37313  0.00000 -0.74625
       3     C     2.91408  2.91408  0.00000  0.17184
       4     C     3.23984  3.23984  0.00000 -0.47967
       5     C     3.25346  3.25346  0.00000 -0.50693
       6     H     0.42973  0.42973  0.00000  0.14054
       7     H     0.41586  0.41586  0.00000  0.16828
       8     H     0.41087  0.41087  0.00000  0.17825
       9     H     0.42357  0.42357  0.00000  0.15285
      10     H     0.41371  0.41371  0.00000  0.17258
      11     H     0.42483  0.42483  0.00000  0.15034
      12     H     0.41852  0.41852  0.00000  0.16297

   Total alpha = 17.00000, Total beta = 17.00000, Total charge =  0.00000
