  ==> Input File <==

--------------------------------------------------------------------------
set {
	reference rhf
	basis 6-31G*
}

set_num_threads( 4 )
memory 2 gb

molecule MOL {
0 1

H	 3.097275	 -0.158756	 0.640180
N	 2.434251	 -0.367735	 -0.081097
C	 1.267428	 0.496480	 0.024474
H	 2.171743	 -1.328039	 0.036463
C	 -0.016086	 -0.325158	 -0.029487
H	 1.288818	 1.183521	 -0.816092
H	 1.267576	 1.109062	 0.929528
C	 -1.282277	 0.529072	 0.046735
H	 -0.012495	 -0.908639	 -0.945788
H	 -0.015903	 -1.041248	 0.791956
C	 -2.563920	 -0.301775	 -0.006060
H	 -1.284084	 1.244622	 -0.773004
H	 -1.271387	 1.115393	 0.963286
H	 -2.621848	 -0.873522	 -0.927727
H	 -3.445135	 0.329952	 0.047812
H	 -2.609542	 -1.004582	 0.821105

	symmetry c1
}
set optking {
	frozen_dihedral = ("
		1 2 3 6
	")
}

ee = optimize('scf')
oeprop('DIPOLE', 'QUADRUPOLE', 'MULLIKEN_CHARGES')
f=open( 'psi4out.xyz', 'w' )
f.write( "16  " )
f.write( str(ee) + "\n" )
f.write( MOL.save_string_xyz() )
f.close()
--------------------------------------------------------------------------

    Molecular point group: c1
  Charge       = 0
  Multiplicity = 1
  Basis Set: 6-31G*
  Basis Set:
  @DF-RHF Final Energy:  -212.31228506626192
    Total Energy =                       -212.3122850662620067
    Molecular point group: c1
  Basis Set: 6-31G*
  Basis Set:
  Basis Set: 6-31G*
  Basis Set:
  @DF-RHF Final Energy:  -212.31271533668288
    Total Energy =                       -212.3127153366830271
  Basis Set: 6-31G*
  Basis Set:
  Basis Set: 6-31G*
  Basis Set:
  @DF-RHF Final Energy:  -212.31280577321624
    Total Energy =                       -212.3128057732164393
  Basis Set: 6-31G*
  Basis Set:
  Basis Set: 6-31G*
  Basis Set:
  @DF-RHF Final Energy:  -212.31280810509585
    Total Energy =                       -212.3128081050958826
  Basis Set: 6-31G*
  Basis Set:
  Basis Set: 6-31G*
  Basis Set:
  @DF-RHF Final Energy:  -212.31280912580769
    Total Energy =                       -212.3128091258076893
  Basis Set: 6-31G*
  Basis Set:
  Charge       = 0
  Multiplicity = 1
  Basis Set: 6-31G*
  Basis Set:

    Orbital Energies (a.u.)
    -----------------------

    Doubly Occupied:

       1A    -15.529398     2A    -11.239530     3A    -11.218704
       4A    -11.216754     5A    -11.211000     6A     -1.173731
       7A     -1.062837     8A     -0.960743     9A     -0.846881
      10A     -0.798386    11A     -0.660766    12A     -0.640219
      13A     -0.597405    14A     -0.581884    15A     -0.569374
      16A     -0.519740    17A     -0.512571    18A     -0.473529
      19A     -0.471840    20A     -0.463745    21A     -0.375784

  @DF-RHF Final Energy:  -212.31280924819117

   => Energetics <=

    Nuclear Repulsion Energy =            186.2425977250174469
    One-Electron Energy =                -654.8611754029359417
    Two-Electron Energy =                 256.3057684297276069
    DFT Exchange-Correlation Energy =       0.0000000000000000
    Empirical Dispersion Energy =           0.0000000000000000
    PCM Polarization Energy =               0.0000000000000000
    EFP Energy =                            0.0000000000000000
    Total Energy =                       -212.3128092481908880
    Molecular point group: c1
  Basis Set: 6-31G*
  Basis Set:

  -Total Gradient:
     Atom            X                  Y                   Z
    ------   -----------------  -----------------  -----------------
       1       -0.000649635291    -0.001087432082     0.000905020298
       2        0.000666760423     0.001121257741    -0.001326059342
       3        0.000716594995     0.000857852181     0.001217690311
       4       -0.000004404890     0.000006230044     0.000000447931
       5        0.000022435876     0.000004543693    -0.000012128044
       6       -0.000732151104    -0.000919848128    -0.000788370446
       7       -0.000006099775     0.000010282164     0.000006071553
       8       -0.000003867319     0.000000210889    -0.000005677658
       9        0.000001175596     0.000007895401     0.000007881364
      10        0.000001433769    -0.000000031736    -0.000007786626
      11       -0.000010888655     0.000003266484     0.000009623407
      12       -0.000000746172    -0.000001123441    -0.000005100378
      13        0.000003473372    -0.000001406364    -0.000004557353
      14        0.000001061177     0.000003409948    -0.000000086607
      15       -0.000004878518    -0.000002656534     0.000003389036
      16       -0.000000263482    -0.000002450262    -0.000000357446

  **** Optimization is complete! (in 6 steps) ****
    Final optimized geometry and variables:
    Molecular point group: c1

    Geometry (in Angstrom), charge = 0, multiplicity = 1:

    H            3.131846931162    -0.148886948552     0.618564948990
    N            2.463336858512    -0.342180565154    -0.099448013079
    C            1.271215322355     0.494880896044     0.038608208052
    H            2.231086582885    -1.312411646052    -0.019115597708
    C           -0.017368567952    -0.323173402040    -0.008734359440
    H            1.252023890505     1.216956368596    -0.773144814669
    H            1.296953604783     1.064144273084     0.965812863669
    C           -1.280585914414     0.537490010967     0.034228468004
    H           -0.017901674915    -0.921622347410    -0.918247788476
    H           -0.026573878235    -1.024119116613     0.825077175315
    C           -2.565494266132    -0.288687238057    -0.012165439406
    H           -1.269583278323     1.234010200142    -0.800891136476
    H           -1.274322162316     1.143273750105     0.937933576873
    H           -2.618060190842    -0.880257799575    -0.921667845950
    H           -3.443584750801     0.348741567747     0.018962991956
    H           -2.623070901739    -0.972395382079     0.830077654388

  Mulliken Charges: (a.u.)
   Center  Symbol    Alpha    Beta     Spin     Total
       1     H     0.33227  0.33227  0.00000  0.33546
       2     N     3.93085  3.93085  0.00000 -0.86171
       3     C     3.04549  3.04549  0.00000 -0.09098
       4     H     0.33221  0.33221  0.00000  0.33558
       5     C     3.16760  3.16760  0.00000 -0.33519
       6     H     0.42047  0.42047  0.00000  0.15906
       7     H     0.42974  0.42974  0.00000  0.14052
       8     C     3.15451  3.15451  0.00000 -0.30902
       9     H     0.41829  0.41829  0.00000  0.16342
      10     H     0.42566  0.42566  0.00000  0.14867
      11     C     3.23920  3.23920  0.00000 -0.47839
      12     H     0.42016  0.42016  0.00000  0.15968
      13     H     0.42255  0.42255  0.00000  0.15490
      14     H     0.42071  0.42071  0.00000  0.15858
      15     H     0.41852  0.41852  0.00000  0.16297
      16     H     0.42177  0.42177  0.00000  0.15645

   Total alpha = 21.00000, Total beta = 21.00000, Total charge =  0.00000
