  ==> Input File <==

--------------------------------------------------------------------------
set {
	reference rhf
	basis cc-pvtz
}

set_num_threads( 4 )
memory 2 gb

molecule MOL {
0 1

H	 -1.348303	 -1.996154	 -1.104378
N	 -0.641505	 -1.295853	 -1.179130
C	 -0.561396	 -0.500007	 0.035200
H	 -0.874220	 -0.724957	 -1.964788
C	 0.575129	 0.507849	 -0.048832
H	 -0.377891	 -1.175936	 0.863852
H	 -1.490056	 0.026396	 0.260818
C	 1.951750	 -0.141983	 0.035101
H	 0.478254	 1.061643	 -0.975981
H	 0.467676	 1.231891	 0.755499
H	 2.101550	 -0.848142	 -0.774949
H	 2.738260	 0.600794	 -0.026526
H	 2.078939	 -0.679792	 0.968824

	symmetry c1
}
set optking {
	frozen_dihedral = ("
		6 3 5 9
	")
}

ee = optimize('scf')
oeprop('DIPOLE', 'QUADRUPOLE', 'MULLIKEN_CHARGES')
f=open( 'psi4out.xyz', 'w' )
f.write( "13  " )
f.write( str(ee) + "\n" )
f.write( MOL.save_string_xyz() )
f.close()
--------------------------------------------------------------------------

    Molecular point group: c1
  Charge       = 0
  Multiplicity = 1
  Basis Set: CC-PVTZ
  Basis Set:
  @DF-RHF Final Energy:  -173.35170161127627
    Total Energy =                       -173.3517016112762406
    Molecular point group: c1
  Basis Set: CC-PVTZ
  Basis Set:
  Basis Set: CC-PVTZ
  Basis Set:
  @DF-RHF Final Energy:  -173.35185770604554
    Total Energy =                       -173.3518577060456209
  Basis Set: CC-PVTZ
  Basis Set:
  Basis Set: CC-PVTZ
  Basis Set:
  @DF-RHF Final Energy:  -173.35188499423651
    Total Energy =                       -173.3518849942364568
  Basis Set: CC-PVTZ
  Basis Set:
  Basis Set: CC-PVTZ
  Basis Set:
  @DF-RHF Final Energy:  -173.35188626482315
    Total Energy =                       -173.3518862648232925
  Basis Set: CC-PVTZ
  Basis Set:
  Charge       = 0
  Multiplicity = 1
  Basis Set: CC-PVTZ
  Basis Set:

    Orbital Energies (a.u.)
    -----------------------

    Doubly Occupied:

       1A    -15.527272     2A    -11.238928     3A    -11.210742
       4A    -11.197885     5A     -1.178911     6A     -1.030377
       7A     -0.901502     8A     -0.793457     9A     -0.664346
      10A     -0.629956    11A     -0.602943    12A     -0.558958
      13A     -0.529793    14A     -0.490263    15A     -0.475046
      16A     -0.467614    17A     -0.383563

  @DF-RHF Final Energy:  -173.35188643612344

   => Energetics <=

    Nuclear Repulsion Energy =            133.6985146993174567
    One-Electron Energy =                -498.3376848831886150
    Two-Electron Energy =                 191.2872837477477788
    DFT Exchange-Correlation Energy =       0.0000000000000000
    Empirical Dispersion Energy =           0.0000000000000000
    PCM Polarization Energy =               0.0000000000000000
    EFP Energy =                            0.0000000000000000
    Total Energy =                       -173.3518864361233796
    Molecular point group: c1
  Basis Set: CC-PVTZ
  Basis Set:

  -Total Gradient:
     Atom            X                  Y                   Z
    ------   -----------------  -----------------  -----------------
       1       -0.000004098098     0.000003114855     0.000005449880
       2       -0.000000515524     0.000003084456    -0.000003316192
       3       -0.000765253130     0.000939089171     0.001029447346
       4       -0.000001005927    -0.000000741108    -0.000003473958
       5       -0.000912863323     0.001082293053     0.000661850730
       6        0.000783179664    -0.000957132541    -0.000963891125
       7        0.000004286997    -0.000007984763    -0.000010513235
       8        0.000022856996    -0.000002649716    -0.000000484295
       9        0.000886376543    -0.001067934746    -0.000718603508
      10       -0.000000081275     0.000010068012     0.000005591847
      11       -0.000004807299    -0.000004069385    -0.000003746530
      12       -0.000008697558    -0.000000060330     0.000005718814
      13        0.000000621937     0.000002923042    -0.000004029771

  **** Optimization is complete! (in 5 steps) ****
    Final optimized geometry and variables:
    Molecular point group: c1

    Geometry (in Angstrom), charge = 0, multiplicity = 1:

    H           -1.626879251554    -1.644645899516    -0.792863073797
    N           -0.952475594419    -0.914453463327    -0.877671431124
    C           -0.881576875434    -0.119154364908     0.339932008529
    H           -1.223414296773    -0.350369720782    -1.655933303860
    C            0.267015500283     0.881963447863     0.275307571781
    H           -0.712312224434    -0.804397500075     1.163938205563
    H           -1.809543279225     0.411729778298     0.549549802230
    C            1.645701853377     0.232345643652     0.342529954909
    H            0.185222069001     1.447692769613    -0.649813724065
    H            0.157487942848     1.594737991674     1.086842623826
    H            1.770036651430    -0.491942896348    -0.451352714584
    H            2.430291347240     0.975205340417     0.252003504705
    H            1.785527549314    -0.281409983207     1.288305190231

  Mulliken Charges: (a.u.)
   Center  Symbol    Alpha    Beta     Spin     Total
       1     H     0.42867  0.42867  0.00000  0.14265
       2     N     3.69202  3.69202  0.00000 -0.38403
       3     C     3.03099  3.03099  0.00000 -0.06198
       4     H     0.43053  0.43053  0.00000  0.13893
       5     C     3.08129  3.08129  0.00000 -0.16259
       6     H     0.45871  0.45871  0.00000  0.08257
       7     H     0.46052  0.46052  0.00000  0.07897
       8     C     3.14669  3.14669  0.00000 -0.29337
       9     H     0.46005  0.46005  0.00000  0.07989
      10     H     0.45286  0.45286  0.00000  0.09429
      11     H     0.44692  0.44692  0.00000  0.10616
      12     H     0.45199  0.45199  0.00000  0.09602
      13     H     0.45876  0.45876  0.00000  0.08248

   Total alpha = 17.00000, Total beta = 17.00000, Total charge = -0.00000
