                              Psi4 1.0.54 Driver

  ==> Input File <==

--------------------------------------------------------------------------
set {
	reference rhf
	basis cc-pvtz
}

set_num_threads( 4 )
memory 2 gb

molecule MOL {
0 1

H	 -3.401682	 -1.036167	 0.000000
O	 -3.113760	 -0.140926	 0.000000
C	 -1.775087	 -0.058754	 0.000000
C	 -0.967418	 -1.170653	 -0.204415
C	 -1.210331	 1.187740	 0.213276
H	 -1.412966	 -2.134374	 -0.369212
C	 0.400035	 -1.030413	 -0.194506
H	 -1.851155	 2.032233	 0.368826
C	 0.160702	 1.311215	 0.220196
H	 1.034102	 -1.880465	 -0.350962
C	 0.981216	 0.212001	 0.017875
H	 0.599923	 2.277784	 0.385563
C	 2.447560	 0.368717	 0.029615
O	 3.226711	 -0.510190	 -0.133486
H	 2.797641	 1.391550	 0.205847

	symmetry c1
}
set optking {
	frozen_dihedral = ("
		5 3 2 1
	")
}

ee,wfn = optimize('scf', return_wfn=True)
oeprop( wfn, 'DIPOLE', 'QUADRUPOLE', 'MULLIKEN_CHARGES')
f=open( 'psi4out.xyz', 'w' )
f.write( "15  " )
f.write( str(ee) + "\n" )
f.write( MOL.save_string_xyz() )
f.close()
--------------------------------------------------------------------------

    Molecular point group: c1
  Charge       = 0
  Multiplicity = 1
  Basis Set: CC-PVTZ
  Basis Set:
  @DF-RHF Final Energy:  -418.44246155039360
    Total Energy =                       -418.4424615503936593
    Molecular point group: c1
  Basis Set: CC-PVTZ
  Basis Set:
  Basis Set: CC-PVTZ
  Basis Set:
  @DF-RHF Final Energy:  -418.44246513100683
    Total Energy =                       -418.4424651310066565
  Basis Set: CC-PVTZ
  Basis Set:
  Charge       = 0
  Multiplicity = 1
  Basis Set: CC-PVTZ
  Basis Set:

    Orbital Energies (a.u.)
    -----------------------

    Doubly Occupied:

       1A    -20.604437     2A    -20.545619     3A    -11.322779
       4A    -11.322388     5A    -11.258275     6A    -11.254651
       7A    -11.242382     8A    -11.236947     9A    -11.236676
      10A     -1.437556    11A     -1.401865    12A     -1.175293
      13A     -1.044911    14A     -1.042484    15A     -0.892049
      16A     -0.870874    17A     -0.797514    18A     -0.762501
      19A     -0.717773    20A     -0.670863    21A     -0.646682
      22A     -0.631441    23A     -0.616601    24A     -0.610722
      25A     -0.585487    26A     -0.562453    27A     -0.555431
      28A     -0.509009    29A     -0.490283    30A     -0.421657
      31A     -0.362531    32A     -0.331880

  @DF-RHF Final Energy:  -418.44246600264421

   => Energetics <=

    Nuclear Repulsion Energy =            402.2955734580266380
    One-Electron Energy =               -1367.1520457413098484
    Two-Electron Energy =                 546.4140062806391143
    DFT Exchange-Correlation Energy =       0.0000000000000000
    Empirical Dispersion Energy =           0.0000000000000000
    PCM Polarization Energy =               0.0000000000000000
    EFP Energy =                            0.0000000000000000
    Total Energy =                       -418.4424660026440961
    Molecular point group: c1
  Basis Set: CC-PVTZ
  Basis Set:

  -Total Gradient:
     Atom            X                  Y                   Z
    ------   -----------------  -----------------  -----------------
       1       -0.000009875193    -0.000019816756     0.001324721090
       2        0.000032906986    -0.000046846721    -0.001225478797
       3       -0.000042669655     0.000090268299    -0.001080719439
       4       -0.000120847188     0.000039721183     0.000077156542
       5        0.000152162133    -0.000080236740     0.000934424622
       6        0.000006192875     0.000002161901    -0.000019266553
       7        0.000099676719     0.000089319510    -0.000021115074
       8       -0.000014165871    -0.000006508113     0.000010974911
       9       -0.000132785795     0.000062169736     0.000019948038
      10       -0.000002915150    -0.000011646895     0.000008827339
      11        0.000029830031    -0.000128320791    -0.000020375152
      12        0.000009569680     0.000001985083     0.000000077404
      13       -0.000026866841     0.000034717202    -0.000032126169
      14        0.000018651644    -0.000028296945     0.000008680646
      15        0.000001135609     0.000001330042     0.000014270591

  **** Optimization is complete! (in 3 steps) ****
    Final optimized geometry and variables:
    Molecular point group: c1

    Geometry (in Angstrom), charge = 0, multiplicity = 1:

    H           -3.401393390087    -1.036409067675    -0.002576143684
    O           -3.114212557135    -0.140761467339    -0.000488768987
    C           -1.775137696200    -0.058280995408     0.004353093865
    C           -0.967441278372    -1.171051604923    -0.197459927759
    C           -1.210232710037     1.187099918828     0.220934961622
    H           -1.413821063872    -2.133635915260    -0.366632856883
    C            0.399809605928    -1.031794767408    -0.184668490317
    H           -1.850512468153     2.031602818025     0.379077520007
    C            0.161263972909     1.310595654643     0.226743366764
    H            1.033673099636    -1.882400008193    -0.339396305544
    C            0.981230080004     0.211086567322     0.026415870583
    H            0.600544987279     2.276918130925     0.393651395792
    C            2.447847932146     0.367651321984     0.040194311240
    O            3.226981837063    -0.511694326681    -0.119513267597
    H            2.797178659781     1.391160970378     0.214956675481

  Mulliken Charges: (a.u.)
   Center  Symbol    Alpha    Beta     Spin     Total
       1     H     0.38507  0.38507  0.00000  0.22986
       2     O     4.16696  4.16696  0.00000 -0.33391
       3     C     2.84511  2.84511  0.00000  0.30978
       4     C     3.13190  3.13190  0.00000 -0.26380
       5     C     3.10864  3.10864  0.00000 -0.21728
       6     H     0.43041  0.43041  0.00000  0.13918
       7     C     3.06663  3.06663  0.00000 -0.13327
       8     H     0.41652  0.41652  0.00000  0.16696
       9     C     3.06607  3.06607  0.00000 -0.13214
      10     H     0.40709  0.40709  0.00000  0.18582
      11     C     3.00378  3.00378  0.00000 -0.00757
      12     H     0.42138  0.42138  0.00000  0.15723
      13     C     2.91084  2.91084  0.00000  0.17832
      14     O     4.17904  4.17904  0.00000 -0.35807
      15     H     0.46055  0.46055  0.00000  0.07889

   Total alpha = 32.00000, Total beta = 32.00000, Total charge =  0.00000

*** Psi4 exiting successfully. Buy a developer a beer!
