  ==> Input File <==

--------------------------------------------------------------------------
set {
	reference rhf
	basis 6-31G*
}

set_num_threads( 4 )
memory 2 gb

molecule MOL {
0 1

H	 -3.892951	 0.981613	 -0.358725
C	 -3.196921	 0.361773	 0.172313
C	 -2.076860	 -0.007332	 -0.404944
H	 -3.439953	 0.057760	 1.173024
O	 -1.180634	 -0.819263	 0.215062
H	 -1.811520	 0.292194	 -1.403480
C	 0.051604	 -1.018856	 -0.387932
C	 1.043764	 0.054862	 -0.001873
H	 -0.017620	 -1.041351	 -1.469781
H	 0.437898	 -1.966374	 -0.042284
F	 1.148295	 0.104415	 1.318136
F	 2.247977	 -0.190889	 -0.491064
F	 0.673696	 1.245901	 -0.424799

	symmetry c1
}
set optking {
	frozen_dihedral = ("
		11 8 7 9
	")
}

ee = optimize('scf')
oeprop('DIPOLE', 'QUADRUPOLE', 'MULLIKEN_CHARGES')
f=open( 'psi4out.xyz', 'w' )
f.write( "13  " )
f.write( str(ee) + "\n" )
f.write( MOL.save_string_xyz() )
f.close()
--------------------------------------------------------------------------

    Molecular point group: c1
  Charge       = 0
  Multiplicity = 1
  Basis Set: 6-31G*
  Basis Set:
  @DF-RHF Final Energy:  -527.53533147071062
    Total Energy =                       -527.5353314707103891
    Molecular point group: c1
  Basis Set: 6-31G*
  Basis Set:
  Basis Set: 6-31G*
  Basis Set:
  @DF-RHF Final Energy:  -527.53578512603099
    Total Energy =                       -527.5357851260308735
  Basis Set: 6-31G*
  Basis Set:
  Basis Set: 6-31G*
  Basis Set:
  @DF-RHF Final Energy:  -527.53587714917671
    Total Energy =                       -527.5358771491767129
  Basis Set: 6-31G*
  Basis Set:
  Basis Set: 6-31G*
  Basis Set:
  @DF-RHF Final Energy:  -527.53588536204734
    Total Energy =                       -527.5358853620477930
  Basis Set: 6-31G*
  Basis Set:
  Charge       = 0
  Multiplicity = 1
  Basis Set: 6-31G*
  Basis Set:

    Orbital Energies (a.u.)
    -----------------------

    Doubly Occupied:

       1A    -26.344830     2A    -26.343440     3A    -26.340571
       4A    -20.608296     5A    -11.503154     6A    -11.318998
       7A    -11.299373     8A    -11.215789     9A     -1.741754
      10A     -1.639949    11A     -1.638161    12A     -1.438186
      13A     -1.084152    14A     -1.016452    15A     -0.925321
      16A     -0.836475    17A     -0.830974    18A     -0.821269
      19A     -0.792024    20A     -0.721528    21A     -0.711241
      22A     -0.696527    23A     -0.675849    24A     -0.660512
      25A     -0.654594    26A     -0.643087    27A     -0.634323
      28A     -0.584724    29A     -0.563126    30A     -0.523817
      31A     -0.514053    32A     -0.351474

  @DF-RHF Final Energy:  -527.53588588144362

   => Energetics <=

    Nuclear Repulsion Energy =            413.6093944558228941
    One-Electron Energy =               -1550.9425106881185457
    Two-Electron Energy =                 609.7972303508522600
    DFT Exchange-Correlation Energy =       0.0000000000000000
    Empirical Dispersion Energy =           0.0000000000000000
    PCM Polarization Energy =               0.0000000000000000
    EFP Energy =                            0.0000000000000000
    Total Energy =                       -527.5358858814433916
    Molecular point group: c1
  Basis Set: 6-31G*
  Basis Set:

  -Total Gradient:
     Atom            X                  Y                   Z
    ------   -----------------  -----------------  -----------------
       1        0.000008473238     0.000012733865     0.000006333680
       2       -0.000017082176    -0.000000146258    -0.000004804977
       3       -0.000007658437    -0.000073876888    -0.000024167578
       4        0.000000622599    -0.000000131336     0.000001290463
       5        0.000018518731     0.000027996983     0.000010949837
       6       -0.000001131327     0.000022983072     0.000012033183
       7        0.000493191007    -0.000445171759    -0.000017007814
       8        0.000395100197    -0.000395394471    -0.000059971186
       9       -0.000492434350     0.000455109301     0.000030832799
      10       -0.000034358019    -0.000010579097     0.000002164477
      11       -0.000371250990     0.000358604238     0.000003584971
      12       -0.000023499172     0.000021679542     0.000052790242
      13        0.000031508705     0.000026192807    -0.000014028094

  **** Optimization is complete! (in 5 steps) ****
    Final optimized geometry and variables:
    Molecular point group: c1

    Geometry (in Angstrom), charge = 0, multiplicity = 1:

    H           -3.884383021817     0.987291544455    -0.370934191922
    C           -3.192169115010     0.361203851578     0.157770943398
    C           -2.071752808134    -0.007923076529    -0.418790476616
    H           -3.439179309419     0.051071797293     1.155710077546
    O           -1.180132607004    -0.827225978620     0.198124430340
    H           -1.802253353706     0.298165717772    -1.414191778839
    C            0.057348499786    -1.018309454560    -0.397405076091
    C            1.042882417319     0.055648339335     0.005266209966
    H           -0.006686838158    -1.027729252282    -1.479776346195
    H            0.442787269385    -1.968294944152    -0.058144232372
    F            1.181671948304     0.135456561874     1.312124576152
    F            2.229552920336    -0.214339569145    -0.518013131883
    F            0.673230230064     1.248268321334    -0.433385686786

  Mulliken Charges: (a.u.)
   Center  Symbol    Alpha    Beta     Spin     Total
       1     H     0.40707  0.40707  0.00000  0.18587
       2     C     3.23545  3.23545  0.00000 -0.47089
       3     C     2.89571  2.89571  0.00000  0.20858
       4     H     0.40178  0.40178  0.00000  0.19643
       5     O     4.30157  4.30157  0.00000 -0.60314
       6     H     0.40670  0.40670  0.00000  0.18661
       7     C     3.06376  3.06376  0.00000 -0.12752
       8     C     2.45585  2.45585  0.00000  1.08829
       9     H     0.40555  0.40555  0.00000  0.18891
      10     H     0.38975  0.38975  0.00000  0.22050
      11     F     4.67421  4.67421  0.00000 -0.34842
      12     F     4.68260  4.68260  0.00000 -0.36519
      13     F     4.68001  4.68001  0.00000 -0.36002

   Total alpha = 32.00000, Total beta = 32.00000, Total charge = -0.00000
