  ==> Input File <==

--------------------------------------------------------------------------
set {
	reference rhf
	basis 6-31G*
}

set_num_threads( 4 )
memory 2 gb

molecule MOL {
0 1

H	 -3.572414	 0.552595	 -0.000000
O	 -3.106097	 -0.272125	 0.000000
C	 -1.775806	 -0.076183	 0.000000
C	 -1.213894	 1.197102	 -0.000000
C	 -0.964386	 -1.203864	 0.000000
H	 -1.849936	 2.065872	 -0.000000
C	 0.157995	 1.337606	 -0.000000
H	 -1.421544	 -2.175088	 0.000000
C	 0.405958	 -1.047043	 0.000000
H	 0.605090	 2.313929	 -0.000000
C	 0.984182	 0.218375	 0.000000
H	 1.035209	 -1.920602	 0.000000
C	 2.452467	 0.370529	 0.000000
O	 3.228994	 -0.533774	 0.000000
H	 2.809473	 1.405765	 0.000000

	symmetry c1
}
set optking {
	frozen_dihedral = ("
		7 11 13 14
	")
}

ee = optimize('scf')
oeprop('DIPOLE', 'QUADRUPOLE', 'MULLIKEN_CHARGES')
f=open( 'psi4out.xyz', 'w' )
f.write( "15  " )
f.write( str(ee) + "\n" )
f.write( MOL.save_string_xyz() )
f.close()
--------------------------------------------------------------------------

    Molecular point group: c1
  Charge       = 0
  Multiplicity = 1
  Basis Set: 6-31G*
  Basis Set:
  @DF-RHF Final Energy:  -418.28967399037811
    Total Energy =                       -418.2896739903781054
    Molecular point group: c1
  Basis Set: 6-31G*
  Basis Set:
  Basis Set: 6-31G*
  Basis Set:
  @DF-RHF Final Energy:  -418.28983950644209
    Total Energy =                       -418.2898395064421493
  Basis Set: 6-31G*
  Basis Set:
  Basis Set: 6-31G*
  Basis Set:
  @DF-RHF Final Energy:  -418.28986404411768
    Total Energy =                       -418.2898640441175075
  Basis Set: 6-31G*
  Basis Set:
  Charge       = 0
  Multiplicity = 1
  Basis Set: 6-31G*
  Basis Set:

    Orbital Energies (a.u.)
    -----------------------

    Doubly Occupied:

       1A    -20.611411     2A    -20.555613     3A    -11.327813
       4A    -11.324147     5A    -11.263508     6A    -11.253717
       7A    -11.245269     8A    -11.238786     9A    -11.237718
      10A     -1.432515    11A     -1.396848    12A     -1.170637
      13A     -1.043057    14A     -1.037024    15A     -0.893854
      16A     -0.858524    17A     -0.802845    18A     -0.756844
      19A     -0.695478    20A     -0.685762    21A     -0.639303
      22A     -0.624337    23A     -0.609140    24A     -0.608488
      25A     -0.582094    26A     -0.557356    27A     -0.549196
      28A     -0.506685    29A     -0.483759    30A     -0.418284
      31A     -0.357412    32A     -0.326947

  @DF-RHF Final Energy:  -418.28986757707759

   => Energetics <=

    Nuclear Repulsion Energy =            401.3533245319464982
    One-Electron Energy =               -1365.0976394109625289
    Two-Electron Energy =                 545.4544473019384441
    DFT Exchange-Correlation Energy =       0.0000000000000000
    Empirical Dispersion Energy =           0.0000000000000000
    PCM Polarization Energy =               0.0000000000000000
    EFP Energy =                            0.0000000000000000
    Total Energy =                       -418.2898675770775299
    Molecular point group: c1
  Basis Set: 6-31G*
  Basis Set:

  -Total Gradient:
     Atom            X                  Y                   Z
    ------   -----------------  -----------------  -----------------
       1       -0.000039779444    -0.000003138568    -0.000000000000
       2       -0.000014701148     0.000057716519    -0.000000000001
       3        0.000054287052    -0.000284901371     0.000000000003
       4        0.000105351890     0.000176109128    -0.000000000000
       5       -0.000133667969     0.000186245757     0.000000000001
       6       -0.000016083734    -0.000020099045    -0.000000000000
       7       -0.000018087838     0.000011551113     0.000000000007
       8        0.000025379356    -0.000020952990     0.000000000001
       9       -0.000012296362     0.000045065025    -0.000000000001
      10       -0.000054129336     0.000003873512    -0.000000000001
      11        0.000018720075    -0.000147170351    -0.000000000050
      12        0.000065559846    -0.000001343101    -0.000000000001
      13       -0.000019910564     0.000036702441     0.000000000140
      14        0.000055687311    -0.000017928784    -0.000000000046
      15       -0.000016329130    -0.000021729288    -0.000000000051

  **** Optimization is complete! (in 4 steps) ****
    Final optimized geometry and variables:
    Molecular point group: c1

    Geometry (in Angstrom), charge = 0, multiplicity = 1:

    H           -3.575998524134     0.562417823324    -0.000000000135
    O           -3.107173507112    -0.260825856196    -0.000000000134
    C           -1.777555252018    -0.060970981421    -0.000000000056
    C           -1.216801067729     1.207483768990     0.000000000012
    C           -0.964364114502    -1.193609776052    -0.000000000069
    H           -1.848340905915     2.079224120510     0.000000000026
    C            0.161262153880     1.339419843889     0.000000000068
    H           -1.426421521914    -2.162774384586    -0.000000000112
    C            0.401857126117    -1.046396674576    -0.000000000025
    H            0.594396957095     2.324952601540     0.000000000130
    C            0.983183476824     0.223757824606     0.000000000008
    H            1.042618715945    -1.908173044663    -0.000000000028
    C            2.450814523420     0.379707881773     0.000000000153
    O            3.230143637426    -0.522076542557     0.000000000115
    H            2.804935406386     1.416018404048    -0.000000000664

  Mulliken Charges: (a.u.)
   Center  Symbol    Alpha    Beta     Spin     Total
       1     H     0.26880  0.26880  0.00000  0.46240
       2     O     4.37252  4.37252  0.00000 -0.74503
       3     C     2.78489  2.78489  0.00000  0.43021
       4     C     3.14933  3.14933  0.00000 -0.29865
       5     C     3.12664  3.12664  0.00000 -0.25329
       6     H     0.39891  0.39891  0.00000  0.20218
       7     C     3.09176  3.09176  0.00000 -0.18352
       8     H     0.38546  0.38546  0.00000  0.22908
       9     C     3.07890  3.07890  0.00000 -0.15781
      10     H     0.38986  0.38986  0.00000  0.22029
      11     C     3.06788  3.06788  0.00000 -0.13577
      12     H     0.37468  0.37468  0.00000  0.25064
      13     C     2.83062  2.83062  0.00000  0.33876
      14     O     4.25422  4.25422  0.00000 -0.50845
      15     H     0.42553  0.42553  0.00000  0.14895

   Total alpha = 32.00000, Total beta = 32.00000, Total charge = -0.00000
