  ==> Input File <==

--------------------------------------------------------------------------
set {
	reference rhf
	basis 6-31G*
}

set_num_threads( 4 )
memory 2 gb

molecule MOL {
0 1

H	 -1.748661	 -2.220942	 -0.005015
C	 -1.343207	 -1.225221	 -0.013879
N	 -0.055091	 -1.100174	 -0.261126
C	 -2.150779	 -0.125890	 0.222726
C	 0.449969	 0.122615	 -0.277109
H	 -3.200618	 -0.238980	 0.422496
N	 -1.660212	 1.097703	 0.209594
C	 -0.371804	 1.219904	 -0.038265
C	 1.928147	 0.267347	 -0.541394
H	 0.029131	 2.217482	 -0.051283
C	 2.782957	 -0.217029	 0.634485
H	 2.173633	 -0.308685	 -1.427276
H	 2.156913	 1.305589	 -0.760241
H	 3.838911	 -0.124705	 0.401171
H	 2.572790	 -1.257134	 0.854692
H	 2.584155	 0.365416	 1.528658

	symmetry c1
}
set optking {
	frozen_dihedral = ("
		12 9 5 3
	")
}

ee = optimize('scf')
oeprop('DIPOLE', 'QUADRUPOLE', 'MULLIKEN_CHARGES')
f=open( 'psi4out.xyz', 'w' )
f.write( "16  " )
f.write( str(ee) + "\n" )
f.write( MOL.save_string_xyz() )
f.close()
--------------------------------------------------------------------------

    Molecular point group: c1
  Charge       = 0
  Multiplicity = 1
  Basis Set: 6-31G*
  Basis Set:
  @DF-RHF Final Energy:  -340.75844814227355
    Total Energy =                       -340.7584481422734370
    Molecular point group: c1
  Basis Set: 6-31G*
  Basis Set:
  Charge       = 0
  Multiplicity = 1
  Basis Set: 6-31G*
  Basis Set:

    Orbital Energies (a.u.)
    -----------------------

    Doubly Occupied:

       1A    -15.586928     2A    -15.582503     3A    -11.281120
       4A    -11.276642     5A    -11.272320     6A    -11.272079
       7A    -11.232889     8A    -11.217961     9A     -1.313569
      10A     -1.222183    11A     -1.084572    12A     -1.013879
      13A     -0.905118    14A     -0.893136    15A     -0.827945
      16A     -0.716417    17A     -0.709790    18A     -0.659241
      19A     -0.613065    20A     -0.602997    21A     -0.580200
      22A     -0.560839    23A     -0.521985    24A     -0.505948
      25A     -0.499992    26A     -0.486849    27A     -0.428712
      28A     -0.395077    29A     -0.345338

  @DF-RHF Final Energy:  -340.75844823167586

   => Energetics <=

    Nuclear Repulsion Energy =            349.8407939433120646
    One-Electron Energy =               -1153.9798948311281492
    Two-Electron Energy =                 463.3806526561402279
    DFT Exchange-Correlation Energy =       0.0000000000000000
    Empirical Dispersion Energy =           0.0000000000000000
    PCM Polarization Energy =               0.0000000000000000
    EFP Energy =                            0.0000000000000000
    Total Energy =                       -340.7584482316758567
    Molecular point group: c1
  Basis Set: 6-31G*
  Basis Set:

  -Total Gradient:
     Atom            X                  Y                   Z
    ------   -----------------  -----------------  -----------------
       1        0.000011160286    -0.000004298399     0.000048770611
       2        0.000021799488     0.000016122779    -0.000143683732
       3       -0.000025992740    -0.000023034999    -0.000022234077
       4        0.000013542392     0.000046558325     0.000019220374
       5        0.000027596762    -0.000002461872     0.000166431708
       6       -0.000003773013     0.000003728720     0.000010880043
       7       -0.000034851460    -0.000029732745     0.000014540509
       8        0.000029042269    -0.000028615178    -0.000021524688
       9       -0.000017488970     0.000026015199    -0.000051829000
      10       -0.000009968429     0.000008193090    -0.000020934090
      11       -0.000017934420    -0.000006988426     0.000000692765
      12        0.000002548731    -0.000017244362     0.000017048658
      13        0.000004285852     0.000013831182    -0.000014934051
      14       -0.000007178215    -0.000001529888    -0.000003809980
      15        0.000007607760    -0.000000021437     0.000003686982
      16       -0.000000396296    -0.000000521990    -0.000002322031

  **** Optimization is complete! (in 2 steps) ****
    Final optimized geometry and variables:
    Molecular point group: c1

    Geometry (in Angstrom), charge = 0, multiplicity = 1:

    H           -1.748159960608    -2.222857563473    -0.005137680188
    C           -1.343013618638    -1.226945086282    -0.014943599921
    N           -0.054709331510    -1.102009757479    -0.261309708638
    C           -2.150754560601    -0.127842119090     0.221756056064
    C            0.450115890647     0.120821344090    -0.277084821379
    H           -3.200567564109    -0.241025728440     0.421840348677
    N           -1.660441177184     1.095801720145     0.208177393946
    C           -0.372127640060     1.218094717101    -0.039672988516
    C            1.928106141029     0.265965823669    -0.541831755610
    H            0.028379491571     2.215914052399    -0.054025626096
    C            2.783135251360    -0.219507608260     0.633485697419
    H            2.173162141964    -0.309771456007    -1.427979088931
    H            2.156902073285     1.304374251273    -0.760125388560
    H            3.838941749150    -0.127284317261     0.400154212591
    H            2.572843599904    -1.259632916817     0.853080411159
    H            2.584562684517     0.362345306469     1.528224510635

  Mulliken Charges: (a.u.)
   Center  Symbol    Alpha    Beta     Spin     Total
       1     H     0.39378  0.39378  0.00000  0.21243
       2     C     2.99033  2.99033  0.00000  0.01935
       3     N     3.75269  3.75269  0.00000 -0.50538
       4     C     2.99781  2.99781  0.00000  0.00438
       5     C     2.87637  2.87637  0.00000  0.24726
       6     H     0.39424  0.39424  0.00000  0.21152
       7     N     3.72882  3.72882  0.00000 -0.45764
       8     C     2.99978  2.99978  0.00000  0.00044
       9     C     3.16757  3.16757  0.00000 -0.33514
      10     H     0.39508  0.39508  0.00000  0.20985
      11     C     3.24242  3.24242  0.00000 -0.48485
      12     H     0.40418  0.40418  0.00000  0.19164
      13     H     0.41474  0.41474  0.00000  0.17053
      14     H     0.41682  0.41682  0.00000  0.16636
      15     H     0.40686  0.40686  0.00000  0.18628
      16     H     0.41851  0.41851  0.00000  0.16297

   Total alpha = 29.00000, Total beta = 29.00000, Total charge = -0.00000
