  ==> Input File <==

--------------------------------------------------------------------------
set {
	reference rhf
	basis 6-31G*
}

set_num_threads( 4 )
memory 2 gb

molecule MOL {
0 1

H	 -2.563246	 -1.426993	 3.155826
C	 -2.492932	 -1.167919	 2.117271
C	 -1.323922	 -1.172690	 1.519446
H	 -3.392185	 -0.909144	 1.590688
O	 -1.180634	 -0.819263	 0.215062
H	 -0.412682	 -1.435724	 2.027038
C	 0.051604	 -1.018856	 -0.387932
C	 1.043764	 0.054862	 -0.001873
H	 -0.017620	 -1.041351	 -1.469781
H	 0.437898	 -1.966374	 -0.042284
F	 2.212596	 -0.199467	 -0.571921
F	 0.652529	 1.252447	 -0.405055
F	 1.230877	 0.110694	 1.300533

	symmetry c1
}
set optking {
	frozen_dihedral = ("
		3 5 7 9
	")
}

ee = optimize('scf')
oeprop('DIPOLE', 'QUADRUPOLE', 'MULLIKEN_CHARGES')
f=open( 'psi4out.xyz', 'w' )
f.write( "13  " )
f.write( str(ee) + "\n" )
f.write( MOL.save_string_xyz() )
f.close()
--------------------------------------------------------------------------

    Molecular point group: c1
  Charge       = 0
  Multiplicity = 1
  Basis Set: 6-31G*
  Basis Set:
  @DF-RHF Final Energy:  -527.53317264497161
    Total Energy =                       -527.5331726449722964
    Molecular point group: c1
  Basis Set: 6-31G*
  Basis Set:
  Basis Set: 6-31G*
  Basis Set:
  @DF-RHF Final Energy:  -527.53530628228782
    Total Energy =                       -527.5353062822879338
  Basis Set: 6-31G*
  Basis Set:
  Basis Set: 6-31G*
  Basis Set:
  @DF-RHF Final Energy:  -527.53568365097658
    Total Energy =                       -527.5356836509763525
  Basis Set: 6-31G*
  Basis Set:
  Basis Set: 6-31G*
  Basis Set:
  @DF-RHF Final Energy:  -527.53575970097268
    Total Energy =                       -527.5357597009727897
  Basis Set: 6-31G*
  Basis Set:
  @DF-RHF Final Energy:  -527.53578014637310
    Total Energy =                       -527.5357801463730993
  @DF-RHF Final Energy:  -527.53579544155832
    Total Energy =                       -527.5357954415586619
  Basis Set: 6-31G*
  Basis Set:
  @DF-RHF Final Energy:  -527.53580918613318
    Total Energy =                       -527.5358091861330649
  Basis Set: 6-31G*
  Basis Set:
  Basis Set: 6-31G*
  Basis Set:
  @DF-RHF Final Energy:  -527.53583990184984
    Total Energy =                       -527.5358399018499540
  Basis Set: 6-31G*
  Basis Set:
  Basis Set: 6-31G*
  Basis Set:
  @DF-RHF Final Energy:  -527.53585347189778
    Total Energy =                       -527.5358534718977808
  Basis Set: 6-31G*
  Basis Set:
  Charge       = 0
  Multiplicity = 1
  Basis Set: 6-31G*
  Basis Set:

    Orbital Energies (a.u.)
    -----------------------

    Doubly Occupied:

       1A    -26.344727     2A    -26.344061     3A    -26.340764
       4A    -20.608254     5A    -11.503352     6A    -11.318890
       7A    -11.298952     8A    -11.215888     9A     -1.741999
      10A     -1.640055    11A     -1.638505    12A     -1.438036
      13A     -1.083829    14A     -1.016674    15A     -0.925518
      16A     -0.836592    17A     -0.831068    18A     -0.822384
      19A     -0.790464    20A     -0.721429    21A     -0.711362
      22A     -0.695882    23A     -0.675973    24A     -0.660800
      25A     -0.654920    26A     -0.643326    27A     -0.635249
      28A     -0.585266    29A     -0.563181    30A     -0.523205
      31A     -0.512746    32A     -0.351882

  @DF-RHF Final Energy:  -527.53585389410000

   => Energetics <=

    Nuclear Repulsion Energy =            414.1808491862188930
    One-Electron Energy =               -1552.0829396598910535
    Two-Electron Energy =                 610.3662365795721598
    DFT Exchange-Correlation Energy =       0.0000000000000000
    Empirical Dispersion Energy =           0.0000000000000000
    PCM Polarization Energy =               0.0000000000000000
    EFP Energy =                            0.0000000000000000
    Total Energy =                       -527.5358538941000006
    Molecular point group: c1
  Basis Set: 6-31G*
  Basis Set:

  -Total Gradient:
     Atom            X                  Y                   Z
    ------   -----------------  -----------------  -----------------
       1        0.000002532798    -0.000007627673    -0.000002187028
       2       -0.000010065390     0.000010145764     0.000008771879
       3        0.000150668306     0.000666244351     0.000120473141
       4       -0.000001071461    -0.000001952573     0.000001542832
       5       -0.000153050889    -0.000780291039    -0.000244816495
       6       -0.000003646538    -0.000009159227     0.000007652714
       7       -0.000038969294    -0.000662154681     0.000118040194
       8       -0.000026909480    -0.000021798118     0.000080197539
       9        0.000045997663     0.000777071598    -0.000021416675
      10       -0.000003803785    -0.000005982935     0.000003199373
      11        0.000035634304     0.000008528647    -0.000008618398
      12        0.000007124963     0.000014511169     0.000008056827
      13       -0.000004441201     0.000012464721    -0.000070895907

  **** Optimization is complete! (in 10 steps) ****
    Final optimized geometry and variables:
    Molecular point group: c1

    Geometry (in Angstrom), charge = 0, multiplicity = 1:

    H           -2.705348421679    -1.093110793255     2.715100311089
    C           -2.576653199225    -0.765307538374     1.701838141706
    C           -1.469846496342    -1.052344292385     1.056603633292
    H           -3.367871490180    -0.206262564256     1.238659636073
    O           -1.279897907840    -0.695619568000    -0.241370062420
    H           -0.662428856943    -1.604864894117     1.503858634256
    C           -0.002925428133    -0.801421317879    -0.770105820602
    C            0.858596300091     0.392292667397    -0.421732611000
    H           -0.098180897938    -0.828653083669    -1.845397422530
    H            0.508783043472    -1.697365996588    -0.435977059918
    F            2.044475814528     0.260484297826    -0.998099644500
    F            0.327562620083     1.523050956360    -0.838729182190
    F            1.056478330135     0.496682200494     0.882030432443

  Mulliken Charges: (a.u.)
   Center  Symbol    Alpha    Beta     Spin     Total
       1     H     0.40704  0.40704  0.00000  0.18592
       2     C     3.23486  3.23486  0.00000 -0.46973
       3     C     2.89609  2.89609  0.00000  0.20781
       4     H     0.40181  0.40181  0.00000  0.19638
       5     O     4.30146  4.30146  0.00000 -0.60292
       6     H     0.40681  0.40681  0.00000  0.18639
       7     C     3.06348  3.06348  0.00000 -0.12696
       8     C     2.45684  2.45684  0.00000  1.08632
       9     H     0.38948  0.38948  0.00000  0.22104
      10     H     0.40554  0.40554  0.00000  0.18892
      11     F     4.68277  4.68277  0.00000 -0.36553
      12     F     4.67438  4.67438  0.00000 -0.34876
      13     F     4.67944  4.67944  0.00000 -0.35887

   Total alpha = 32.00000, Total beta = 32.00000, Total charge = -0.00000
