  ==> Input File <==

--------------------------------------------------------------------------
set {
	reference rhf
	basis 6-31G*
}

set_num_threads( 1 )
memory 2 gb

molecule MOL {
0 1

O	 -0.763945	 -4.552030	 -1.056825
C	 -0.233047	 -3.892884	 -1.898317
C	 0.064115	 -2.422296	 -1.663007
C	 0.197782	 -4.489306	 -3.219696
C	 1.321567	 -2.249155	 -0.795840
H	 -0.790082	 -1.991890	 -1.151731
H	 0.190256	 -1.901812	 -2.608106
C	 1.631333	 -0.777471	 -0.511575
H	 1.171582	 -2.793440	 0.129710
H	 2.175766	 -2.705257	 -1.293898
C	 2.915987	 -0.544314	 0.291766
H	 0.791251	 -0.330448	 0.016780
H	 1.713385	 -0.247164	 -1.458089
C	 3.373361	 0.914346	 0.347591
H	 3.708709	 -1.142521	 -0.150311
H	 2.780642	 -0.921148	 1.303579
H	 3.506512	 1.320010	 -0.651625
H	 4.322697	 0.999599	 0.867103
H	 2.660624	 1.545032	 0.868198
H	 -0.387532	 -4.053678	 -4.025239
H	 0.050965	 -5.560329	 -3.207930
H	 1.240357	 -4.261861	 -3.422450

	symmetry c1
}
set optking {
	frozen_dihedral = ("
		6 3 2 1,
		6 3 5 8,
		3 5 8 12
	")
}

ee = energy('scf')
oeprop('DIPOLE', 'QUADRUPOLE', 'MULLIKEN_CHARGES')
f=open( 'psi4out.xyz', 'w' )
f.write( "22  " )
f.write( str(ee) + "\n" )
f.write( MOL.save_string_xyz() )
f.close()
--------------------------------------------------------------------------

    Molecular point group: c1

    Geometry (in Angstrom), charge = 0, multiplicity = 1:

       Center              X                  Y                   Z               Mass
    ------------   -----------------  -----------------  -----------------  -----------------
           O         -1.836208964669    -2.303566715537     0.005293436071    15.994914619560
           C         -1.305310964669    -1.644420715537    -0.836198563929    12.000000000000
           C         -1.008148964669    -0.173832715537    -0.600888563929    12.000000000000
           C         -0.874481964669    -2.240842715537    -2.157577563929    12.000000000000
           C          0.249303035331    -0.000691715537     0.266278436071    12.000000000000
           H         -1.862345964669     0.256573284463    -0.089612563929     1.007825032070
           H         -0.882007964669     0.346651284463    -1.545987563929     1.007825032070
           C          0.559069035331     1.470992284463     0.550543436071    12.000000000000
           H          0.099318035331    -0.544976715537     1.191828436071     1.007825032070
           H          1.103502035331    -0.456793715537    -0.231779563929     1.007825032070
           C          1.843723035331     1.704149284463     1.353884436071    12.000000000000
           H         -0.281012964669     1.918015284463     1.078898436071     1.007825032070
           H          0.641121035331     2.001299284463    -0.395970563929     1.007825032070
           C          2.301097035331     3.162809284463     1.409709436071    12.000000000000
           H          2.636445035331     1.105942284463     0.911807436071     1.007825032070
           H          1.708378035331     1.327315284463     2.365697436071     1.007825032070
           H          2.434248035331     3.568473284463     0.410493436071     1.007825032070
           H          3.250433035331     3.248062284463     1.929221436071     1.007825032070
           H          1.588360035331     3.793495284463     1.930316436071     1.007825032070
           H         -1.459795964669    -1.805214715537    -2.963120563929     1.007825032070
           H         -1.021298964669    -3.311865715537    -2.145811563929     1.007825032070
           H          0.168093035331    -2.013397715537    -2.360331563929     1.007825032070

  Charge       = 0
  Multiplicity = 1
  Basis Set: 6-31G*
  Basis Set:

    Orbital Energies (a.u.)
    -----------------------

    Doubly Occupied:

       1A    -20.547507     2A    -11.324674     3A    -11.230366
       4A    -11.229411     5A    -11.228336     6A    -11.222381
       7A    -11.220688     8A    -11.213304     9A     -1.393243
      10A     -1.095086    11A     -1.045265    12A     -1.001220
      13A     -0.939294    14A     -0.846816    15A     -0.797815
      16A     -0.732512    17A     -0.665894    18A     -0.646784
      19A     -0.630916    20A     -0.608514    21A     -0.591564
      22A     -0.584658    23A     -0.562432    24A     -0.550857
      25A     -0.532420    26A     -0.515930    27A     -0.496935
      28A     -0.486456    29A     -0.472342    30A     -0.468861
      31A     -0.460248    32A     -0.396551

  @DF-RHF Final Energy:  -348.09902018939476

   => Energetics <=

    Nuclear Repulsion Energy =            368.1088114315068651
    One-Electron Energy =               -1200.9372207838464419
    Two-Electron Energy =                 484.7293891629446421
    DFT Exchange-Correlation Energy =       0.0000000000000000
    Empirical Dispersion Energy =           0.0000000000000000
    PCM Polarization Energy =               0.0000000000000000
    EFP Energy =                            0.0000000000000000
    Total Energy =                       -348.0990201893949347

  Mulliken Charges: (a.u.)
   Center  Symbol    Alpha    Beta     Spin     Total
       1     O     4.26230  4.26230  0.00000 -0.52459
       2     C     2.73716  2.73716  0.00000  0.52568
       3     C     3.20023  3.20023  0.00000 -0.40046
       4     C     3.28957  3.28957  0.00000 -0.57915
       5     C     3.16213  3.16213  0.00000 -0.32425
       6     H     0.40107  0.40107  0.00000  0.19786
       7     H     0.41678  0.41678  0.00000  0.16645
       8     C     3.15100  3.15100  0.00000 -0.30200
       9     H     0.40528  0.40528  0.00000  0.18944
      10     H     0.42093  0.42093  0.00000  0.15813
      11     C     3.15239  3.15239  0.00000 -0.30478
      12     H     0.42000  0.42000  0.00000  0.16000
      13     H     0.42434  0.42434  0.00000  0.15132
      14     C     3.23982  3.23982  0.00000 -0.47964
      15     H     0.42335  0.42335  0.00000  0.15330
      16     H     0.42007  0.42007  0.00000  0.15985
      17     H     0.42187  0.42187  0.00000  0.15626
      18     H     0.41792  0.41792  0.00000  0.16416
      19     H     0.42017  0.42017  0.00000  0.15965
      20     H     0.40690  0.40690  0.00000  0.18620
      21     H     0.39702  0.39702  0.00000  0.20596
      22     H     0.40970  0.40970  0.00000  0.18060

   Total alpha = 32.00000, Total beta = 32.00000, Total charge =  0.00000
