                              Psi4 1.0.54 Driver

  ==> Input File <==

--------------------------------------------------------------------------
set {
	reference rhf
	basis cc-pvtz
}

set_num_threads( 4 )
memory 2 gb

molecule MOL {
0 1

O	 -2.374524	 1.338732	 -0.336973
C	 -2.105006	 0.204727	 -0.107138
C	 -0.882025	 -0.448057	 -0.720521
C	 -2.950025	 -0.638147	 0.818213
C	 0.376580	 -0.139953	 0.100349
H	 -0.767856	 -0.053766	 -1.722325
H	 -1.023415	 -1.521382	 -0.790144
C	 1.630092	 -0.772074	 -0.501013
H	 0.486517	 0.935339	 0.162713
H	 0.248110	 -0.501238	 1.117830
C	 2.907733	 -0.545804	 0.309137
H	 1.772669	 -0.391556	 -1.509406
H	 1.468414	 -1.841987	 -0.599756
C	 3.373687	 0.906711	 0.372113
H	 3.699025	 -1.146759	 -0.127918
H	 2.764206	 -0.923386	 1.318179
H	 3.519683	 1.311999	 -0.623887
H	 4.316784	 0.983830	 0.900688
H	 2.661007	 1.540723	 0.885334
H	 -3.440437	 -1.417072	 0.243087
H	 -3.694492	 -0.025778	 1.303334
H	 -2.331200	 -1.129757	 1.560483

	symmetry c1
}
ee,wfn = energy('scf', return_wfn=True)
oeprop( wfn, 'DIPOLE', 'QUADRUPOLE', 'MULLIKEN_CHARGES')
oeprop( wfn, 'GRID_ESP')
f=open( 'psi4out.xyz', 'w' )
f.write( "22  " )
f.write( str(ee) + "\n" )
f.write( MOL.save_string_xyz() )
f.close()
--------------------------------------------------------------------------

    Molecular point group: c1

    Geometry (in Angstrom), charge = 0, multiplicity = 1:

       Center              X                  Y                   Z               Mass
    ------------   -----------------  -----------------  -----------------  -----------------
           O         -2.374408991010     1.338659827341    -0.336960841955    15.994914619560
           C         -2.104890991010     0.204654827341    -0.107125841955    12.000000000000
           C         -0.881909991010    -0.448129172659    -0.720508841955    12.000000000000
           C         -2.949909991010    -0.638219172659     0.818225158045    12.000000000000
           C          0.376695008990    -0.140025172659     0.100361158045    12.000000000000
           H         -0.767740991010    -0.053838172659    -1.722312841955     1.007825032070
           H         -1.023299991010    -1.521454172659    -0.790131841955     1.007825032070
           C          1.630207008990    -0.772146172659    -0.501000841955    12.000000000000
           H          0.486632008990     0.935266827341     0.162725158045     1.007825032070
           H          0.248225008990    -0.501310172659     1.117842158045     1.007825032070
           C          2.907848008990    -0.545876172659     0.309149158045    12.000000000000
           H          1.772784008990    -0.391628172659    -1.509393841955     1.007825032070
           H          1.468529008990    -1.842059172659    -0.599743841955     1.007825032070
           C          3.373802008990     0.906638827341     0.372125158045    12.000000000000
           H          3.699140008990    -1.146831172659    -0.127905841955     1.007825032070
           H          2.764321008990    -0.923458172659     1.318191158045     1.007825032070
           H          3.519798008990     1.311926827341    -0.623874841955     1.007825032070
           H          4.316899008990     0.983757827341     0.900700158045     1.007825032070
           H          2.661122008990     1.540650827341     0.885346158045     1.007825032070
           H         -3.440321991010    -1.417144172659     0.243099158045     1.007825032070
           H         -3.694376991010    -0.025850172659     1.303346158045     1.007825032070
           H         -2.331084991010    -1.129829172659     1.560495158045     1.007825032070

  Charge       = 0
  Multiplicity = 1
  Basis Set: CC-PVTZ
  Basis Set:

    Orbital Energies (a.u.)
    -----------------------

    Doubly Occupied:

       1A    -20.536761     2A    -11.319282     3A    -11.227973
       4A    -11.227378     5A    -11.226917     6A    -11.220649
       7A    -11.219061     8A    -11.209467     9A     -1.396829
      10A     -1.097366    11A     -1.045718    12A     -1.000250
      13A     -0.938896    14A     -0.858648    15A     -0.787217
      16A     -0.734259    17A     -0.664336    18A     -0.646530
      19A     -0.628054    20A     -0.622528    21A     -0.598267
      22A     -0.584348    23A     -0.564232    24A     -0.541014
      25A     -0.536190    26A     -0.520651    27A     -0.499454
      28A     -0.490624    29A     -0.471697    30A     -0.464879
      31A     -0.462212    32A     -0.398498

  @DF-RHF Final Energy:  -348.22350988791868

   => Energetics <=

    Nuclear Repulsion Energy =            373.6380668149374742
    One-Electron Energy =               -1212.2427973042790654
    Two-Electron Energy =                 490.3812206014225694
    DFT Exchange-Correlation Energy =       0.0000000000000000
    Empirical Dispersion Energy =           0.0000000000000000
    PCM Polarization Energy =               0.0000000000000000
    EFP Energy =                            0.0000000000000000
    Total Energy =                       -348.2235098879190218

  Mulliken Charges: (a.u.)
   Center  Symbol    Alpha    Beta     Spin     Total
       1     O     4.17781  4.17781  0.00000 -0.35563
       2     C     2.85851  2.85851  0.00000  0.28299
       3     C     3.09713  3.09713  0.00000 -0.19425
       4     C     3.15524  3.15524  0.00000 -0.31048
       5     C     3.10426  3.10426  0.00000 -0.20852
       6     H     0.43904  0.43904  0.00000  0.12193
       7     H     0.44860  0.44860  0.00000  0.10281
       8     C     3.09668  3.09668  0.00000 -0.19337
       9     H     0.43856  0.43856  0.00000  0.12288
      10     H     0.45222  0.45222  0.00000  0.09556
      11     C     3.09076  3.09076  0.00000 -0.18153
      12     H     0.45085  0.45085  0.00000  0.09830
      13     H     0.44882  0.44882  0.00000  0.10235
      14     C     3.15174  3.15174  0.00000 -0.30348
      15     H     0.44762  0.44762  0.00000  0.10476
      16     H     0.45466  0.45466  0.00000  0.09067
      17     H     0.45377  0.45377  0.00000  0.09246
      18     H     0.44619  0.44619  0.00000  0.10763
      19     H     0.45239  0.45239  0.00000  0.09523
      20     H     0.44835  0.44835  0.00000  0.10331
      21     H     0.43606  0.43606  0.00000  0.12787
      22     H     0.45074  0.45074  0.00000  0.09851

   Total alpha = 32.00000, Total beta = 32.00000, Total charge = -0.00000

*** Psi4 exiting successfully. Buy a developer a beer!
