  ==> Input File <==

--------------------------------------------------------------------------
set {
	reference rhf
	basis cc-pvtz
}

set_num_threads( 4 )
memory 2 gb

molecule MOL {
0 1

H	 -2.365385	 -0.535454	 2.320124
C	 -2.244939	 -1.518462	 1.870600
O	 -1.046083	 -1.616986	 1.177363
H	 -2.235074	 -2.260679	 2.655397
H	 -3.098678	 -1.706922	 1.222142
C	 -0.918477	 -0.721747	 0.121948
C	 0.454732	 -0.845482	 -0.489062
H	 -1.665521	 -0.931761	 -0.643420
H	 -1.066879	 0.300227	 0.463968
O	 1.401606	 -0.295166	 0.366636
H	 0.669361	 -1.895337	 -0.676597
H	 0.463270	 -0.324546	 -1.446415
C	 2.714315	 -0.441627	 -0.061017
H	 2.765292	 -0.641548	 -1.128869
H	 3.305661	 0.447341	 0.150952
H	 3.143725	 -1.278506	 0.470147

	symmetry c1
}
set optking {
	frozen_dihedral = ("
		7 10 13 14
	")
}

ee = optimize('scf')
oeprop('DIPOLE', 'QUADRUPOLE', 'MULLIKEN_CHARGES')
f=open( 'psi4out.xyz', 'w' )
f.write( "16  " )
f.write( str(ee) + "\n" )
f.write( MOL.save_string_xyz() )
f.close()
--------------------------------------------------------------------------

    Molecular point group: c1
  Charge       = 0
  Multiplicity = 1
  Basis Set: CC-PVTZ
  Basis Set:
  @DF-RHF Final Energy:  -307.09451104621058
    Total Energy =                       -307.0945110462100729
    Molecular point group: c1
  Basis Set: CC-PVTZ
  Basis Set:
  Basis Set: CC-PVTZ
  Basis Set:
  @DF-RHF Final Energy:  -307.09508137019515
    Total Energy =                       -307.0950813701948618
  Basis Set: CC-PVTZ
  Basis Set:
  Basis Set: CC-PVTZ
  Basis Set:
  @DF-RHF Final Energy:  -307.09520026604162
    Total Energy =                       -307.0952002660415019
  Basis Set: CC-PVTZ
  Basis Set:
  Charge       = 0
  Multiplicity = 1
  Basis Set: CC-PVTZ
  Basis Set:

    Orbital Energies (a.u.)
    -----------------------

    Doubly Occupied:

       1A    -20.547543     2A    -20.544988     3A    -11.267743
       4A    -11.266673     5A    -11.261396     6A    -11.261218
       7A     -1.389990     8A     -1.372271     9A     -1.031778
      10A     -0.937174    11A     -0.892237    12A     -0.824138
      13A     -0.685201    14A     -0.681525    15A     -0.659029
      16A     -0.636005    17A     -0.631255    18A     -0.597661
      19A     -0.552983    20A     -0.538593    21A     -0.508857
      22A     -0.479624    23A     -0.464240    24A     -0.421133
      25A     -0.410985

  @DF-RHF Final Energy:  -307.09520118499131

   => Energetics <=

    Nuclear Repulsion Energy =            258.6866460546218605
    One-Electron Energy =                -931.8352200445385733
    Two-Electron Energy =                 366.0533728049256297
    DFT Exchange-Correlation Energy =       0.0000000000000000
    Empirical Dispersion Energy =           0.0000000000000000
    PCM Polarization Energy =               0.0000000000000000
    EFP Energy =                            0.0000000000000000
    Total Energy =                       -307.0952011849910832
    Molecular point group: c1
  Basis Set: CC-PVTZ
  Basis Set:

  -Total Gradient:
     Atom            X                  Y                   Z
    ------   -----------------  -----------------  -----------------
       1        0.000000558336     0.000000159172    -0.000000827733
       2       -0.000002051995    -0.000002872712     0.000004983808
       3       -0.000008572348     0.000003414406     0.000014098031
       4       -0.000001335044     0.000000092312     0.000001153304
       5        0.000002351136     0.000000475612    -0.000001272586
       6        0.000020562924    -0.000015475532     0.000019229030
       7       -0.000133887456     0.001789348574    -0.001072789270
       8       -0.000005137830    -0.000001117441    -0.000007964132
       9        0.000007388401    -0.000009916510    -0.000003215277
      10        0.000250570580    -0.003209435657     0.001522719260
      11        0.000019044050     0.000031631993     0.000035687722
      12        0.000002902107    -0.000010023212    -0.000010819685
      13        0.000080144027     0.003833729373    -0.000938133664
      14       -0.000176510948    -0.002433241935     0.000429379986
      15       -0.000057789785     0.000022894890    -0.000000577543
      16        0.000001763844     0.000000336666     0.000008348749

  **** Optimization is complete! (in 4 steps) ****
    Final optimized geometry and variables:
    Molecular point group: c1

    Geometry (in Angstrom), charge = 0, multiplicity = 1:

    H           -2.415507262977     0.380459231428     1.826079198016
    C           -2.305616550913    -0.601969639474     1.372632412332
    O           -1.112031751359    -0.707559955285     0.671455009789
    H           -2.296643015680    -1.346833551261     2.154933241289
    H           -3.164910837900    -0.781616318244     0.728993107255
    C           -0.984089823785     0.190072590854    -0.381897669331
    C            0.384657943288     0.059265346438    -1.001159850250
    H           -1.736624761409    -0.012691724817    -1.143991529158
    H           -1.123600474327     1.211912850391    -0.035926092471
    O            1.337560018513     0.602604533046    -0.146242473217
    H            0.587490639968    -0.991863292854    -1.193225724564
    H            0.390989315906     0.584212522720    -1.955550570545
    C            2.661997324844     0.464852621902    -0.555363085774
    H            2.738388573532     0.269955247488    -1.621038787521
    H            3.196708605659     1.376479631371    -0.324838392766
    H            3.138379842927    -0.360491146862    -0.034195456690

  Mulliken Charges: (a.u.)
   Center  Symbol    Alpha    Beta     Spin     Total
       1     H     0.47015  0.47015  0.00000  0.05969
       2     C     3.03202  3.03202  0.00000 -0.06403
       3     O     4.17044  4.17044  0.00000 -0.34089
       4     H     0.44642  0.44642  0.00000  0.10717
       5     H     0.47372  0.47372  0.00000  0.05256
       6     C     2.96271  2.96271  0.00000  0.07458
       7     C     2.95899  2.95899  0.00000  0.08201
       8     H     0.47611  0.47611  0.00000  0.04778
       9     H     0.47109  0.47109  0.00000  0.05782
      10     O     4.17419  4.17419  0.00000 -0.34838
      11     H     0.47122  0.47122  0.00000  0.05756
      12     H     0.47566  0.47566  0.00000  0.04867
      13     C     3.02861  3.02861  0.00000 -0.05721
      14     H     0.47442  0.47442  0.00000  0.05115
      15     H     0.45344  0.45344  0.00000  0.09311
      16     H     0.46079  0.46079  0.00000  0.07841

   Total alpha = 25.00000, Total beta = 25.00000, Total charge =  0.00000
