                              Psi4 1.0.54 Driver

  ==> Input File <==

--------------------------------------------------------------------------
set {
	reference rhf
	basis cc-pvtz
}

set_num_threads( 4 )
memory 2 gb

molecule MOL {
0 1

O	 1.847685	 1.294399	 -0.000190
C	 1.704209	 0.119472	 -0.000093
C	 0.380337	 -0.600947	 -0.000234
O	 2.715427	 -0.733672	 0.000025
C	 -0.824290	 0.329213	 -0.000115
H	 0.371455	 -1.255476	 -0.865660
H	 0.371410	 -1.255787	 0.864952
C	 -2.146151	 -0.432825	 -0.000068
H	 -0.773936	 0.979158	 -0.866319
H	 -0.773838	 0.979034	 0.866186
C	 -3.366283	 0.483552	 0.000557
H	 -2.189286	 -1.084450	 -0.869996
H	 -2.188867	 -1.085083	 0.869399
C	 -3.077688	 1.865728	 -0.575390
H	 -3.736092	 0.586376	 1.016838
H	 -4.165441	 0.015801	 -0.567523
H	 -2.305616	 2.373609	 -0.006887
H	 -3.963560	 2.490007	 -0.559926
H	 -2.738739	 1.798558	 -1.603902
C	 4.020999	 -0.192556	 0.000019
H	 4.182809	 0.412891	 -0.879449
H	 4.692590	 -1.035653	 0.000152
H	 4.182726	 0.413087	 0.879368

	symmetry c1
}
set optking {
	frozen_dihedral = ("
		15 11 8 12
	")
}

ee,wfn = optimize('scf', return_wfn=True)
oeprop( wfn, 'DIPOLE', 'QUADRUPOLE', 'MULLIKEN_CHARGES')
f=open( 'psi4out.xyz', 'w' )
f.write( "23  " )
f.write( str(ee) + "\n" )
f.write( MOL.save_string_xyz() )
f.close()
--------------------------------------------------------------------------

    Molecular point group: c1
  Charge       = 0
  Multiplicity = 1
  Basis Set: CC-PVTZ
  Basis Set:
  @DF-RHF Final Energy:  -423.12123460443127
    Total Energy =                       -423.1212346044311516
    Molecular point group: c1
  Basis Set: CC-PVTZ
  Basis Set:
  Basis Set: CC-PVTZ
  Basis Set:
  @DF-RHF Final Energy:  -423.06070937346135
    Total Energy =                       -423.0607093734612363
  Basis Set: CC-PVTZ
  Basis Set:
  Basis Set: CC-PVTZ
  Basis Set:
  @DF-RHF Final Energy:  -423.12076011669541
    Total Energy =                       -423.1207601166962604
  Basis Set: CC-PVTZ
  Basis Set:
  Basis Set: CC-PVTZ
  Basis Set:
  @DF-RHF Final Energy:  -423.12430132863329
    Total Energy =                       -423.1243013286331234
  Basis Set: CC-PVTZ
  Basis Set:
  Basis Set: CC-PVTZ
  Basis Set:
  @DF-RHF Final Energy:  -423.12457281031539
    Total Energy =                       -423.1245728103153851
  Basis Set: CC-PVTZ
  Basis Set:
  Basis Set: CC-PVTZ
  Basis Set:
  @DF-RHF Final Energy:  -423.12390317746235
    Total Energy =                       -423.1239031774623527
  Basis Set: CC-PVTZ
  Basis Set:
  Basis Set: CC-PVTZ
  Basis Set:
  @DF-RHF Final Energy:  -423.12459712993012
    Total Energy =                       -423.1245971299298390
  Basis Set: CC-PVTZ
  Basis Set:
  Charge       = 0
  Multiplicity = 1
  Basis Set: CC-PVTZ
  Basis Set:

    Orbital Energies (a.u.)
    -----------------------

    Doubly Occupied:

       1A    -20.596271     2A    -20.534079     3A    -11.364475
       4A    -11.278443     5A    -11.233567     6A    -11.216936
       7A    -11.215971     8A    -11.214804     9A    -11.205794
      10A     -1.472124    11A     -1.365734    12A     -1.092972
      13A     -1.041596    14A     -0.985975    15A     -0.931978
      16A     -0.860676    17A     -0.780467    18A     -0.767412
      19A     -0.698684    20A     -0.686604    21A     -0.676089
      22A     -0.647311    23A     -0.609204    24A     -0.599134
      25A     -0.592842    26A     -0.558315    27A     -0.537658
      28A     -0.526149    29A     -0.520885    30A     -0.517477
      31A     -0.493968    32A     -0.464426    33A     -0.463970
      34A     -0.461036    35A     -0.451191    36A     -0.438354

  @DF-RHF Final Energy:  -423.12459733872822

   => Energetics <=

    Nuclear Repulsion Energy =            458.6274882293927249
    One-Electron Energy =               -1485.2990255821357550
    Two-Electron Energy =                 603.5469400140145808
    DFT Exchange-Correlation Energy =       0.0000000000000000
    Empirical Dispersion Energy =           0.0000000000000000
    PCM Polarization Energy =               0.0000000000000000
    EFP Energy =                            0.0000000000000000
    Total Energy =                       -423.1245973387285630
    Molecular point group: c1
  Basis Set: CC-PVTZ
  Basis Set:

  -Total Gradient:
     Atom            X                  Y                   Z
    ------   -----------------  -----------------  -----------------
       1       -0.000090045497     0.000036173053    -0.000027842467
       2        0.000016283127    -0.000018902902     0.000109198149
       3        0.000061720357     0.000048743320    -0.000055431567
       4        0.000019576479    -0.000062318789    -0.000069156166
       5        0.000012268282    -0.000005781475     0.000083283821
       6        0.000002178400    -0.000010570459    -0.000000818282
       7        0.000007486621     0.000022914288     0.000009388414
       8        0.002179602518     0.005627449692    -0.002531482989
       9       -0.000020815602     0.000020516000     0.000010259545
      10        0.000038213115    -0.000016183348    -0.000009034325
      11        0.003075324189     0.004632131883     0.003465609370
      12       -0.002352028776    -0.005494994060     0.001590674507
      13       -0.000000623987     0.000013810072    -0.000005782523
      14       -0.000012853159     0.000016611701    -0.000018097616
      15       -0.002931770789    -0.004794874949    -0.002560172197
      16        0.000005458390     0.000011414254     0.000011317518
      17       -0.000007868717    -0.000014312363    -0.000028488684
      18        0.000039028506    -0.000009016254     0.000003328834
      19       -0.000021407416     0.000002564574     0.000019945149
      20       -0.000031454284     0.000030762491     0.000010824838
      21        0.000003218425    -0.000019888940     0.000011100520
      22       -0.000002465937    -0.000012508894    -0.000005078730
      23        0.000010975752    -0.000003738891    -0.000013545118

  **** Optimization is complete! (in 8 steps) ****
    Final optimized geometry and variables:
    Molecular point group: c1

    Geometry (in Angstrom), charge = 0, multiplicity = 1:

    O            1.612913529191     1.086588036047     0.522334148780
    C            1.562544903781    -0.016495013344     0.095871377542
    C            0.299984023019    -0.774084467043    -0.225515178856
    O            2.637576791520    -0.744144922535    -0.159930992612
    C           -0.973161663621     0.014880086382     0.045725416565
    H            0.361687893575    -1.073905960964    -1.266584888101
    H            0.323468423598    -1.694504110897     0.348517984275
    C           -2.220811780318    -0.791872407514    -0.300449998555
    H           -0.943285626960     0.936229837147    -0.521030669458
    H           -0.995813921649     0.303815979929     1.090547270922
    C           -3.575019983761    -0.124471078330     0.010902075304
    H           -2.200219360583    -1.099753479880    -1.342505066655
    H           -2.184476823268    -1.728067472958     0.251675590592
    C           -3.632573546613     1.394421518162    -0.114562292822
    H           -3.913683748315    -0.438097274472     0.993331406405
    H           -4.309301602925    -0.547000002904    -0.668985896685
    H           -2.982390662347     1.888239725591     0.596677808654
    H           -4.641766880310     1.747054258639     0.063913940756
    H           -3.343159569415     1.719747301531    -1.108326129440
    C            3.896208502302    -0.155122840968     0.096754477191
    H            4.029143651873     0.735607391935    -0.499155197517
    H            4.631773525049    -0.895793692647    -0.172073875463
    H            3.991034809577     0.102354442203     1.141230602273

  Mulliken Charges: (a.u.)
   Center  Symbol    Alpha    Beta     Spin     Total
       1     O     4.19722  4.19722  0.00000 -0.39443
       2     C     2.80610  2.80610  0.00000  0.38780
       3     C     3.10316  3.10316  0.00000 -0.20632
       4     O     4.14626  4.14626  0.00000 -0.29252
       5     C     3.08550  3.08550  0.00000 -0.17100
       6     H     0.43999  0.43999  0.00000  0.12003
       7     H     0.43929  0.43929  0.00000  0.12142
       8     C     3.09989  3.09989  0.00000 -0.19979
       9     H     0.44312  0.44312  0.00000  0.11377
      10     H     0.44519  0.44519  0.00000  0.10962
      11     C     3.08778  3.08778  0.00000 -0.17555
      12     H     0.45249  0.45249  0.00000  0.09501
      13     H     0.45349  0.45349  0.00000  0.09302
      14     C     3.15688  3.15688  0.00000 -0.31376
      15     H     0.45187  0.45187  0.00000  0.09625
      16     H     0.45199  0.45199  0.00000  0.09603
      17     H     0.44911  0.44911  0.00000  0.10178
      18     H     0.44523  0.44523  0.00000  0.10953
      19     H     0.45357  0.45357  0.00000  0.09287
      20     C     3.03775  3.03775  0.00000 -0.07551
      21     H     0.45434  0.45434  0.00000  0.09132
      22     H     0.44537  0.44537  0.00000  0.10927
      23     H     0.45441  0.45441  0.00000  0.09118

   Total alpha = 36.00000, Total beta = 36.00000, Total charge = -0.00000

*** Psi4 exiting successfully. Buy a developer a beer!
