  ==> Input File <==

--------------------------------------------------------------------------
set {
	reference rhf
	basis 6-31G*
}

set_num_threads( 1 )
memory 2 gb

molecule MOL {
0 1

O	 1.214711	 1.306902	 -0.000018
C	 1.122059	 0.121804	 -0.000188
C	 -0.170150	 -0.657997	 -0.000612
O	 2.172624	 -0.688929	 0.000216
C	 -1.412532	 0.227344	 -0.000452
H	 -0.153702	 -1.313099	 -0.867402
H	 -0.153924	 -1.313811	 0.865644
C	 -2.619498	 -0.464444	 -0.636084
H	 -1.195508	 1.149525	 -0.530535
H	 -1.647918	 0.514333	 1.019712
C	 -3.869041	 0.415123	 -0.638933
H	 -2.378004	 -0.750591	 -1.657787
H	 -2.830972	 -1.389072	 -0.102780
H	 -3.700320	 1.333097	 -1.194372
H	 -4.709560	 -0.098499	 -1.094999
H	 -4.156874	 0.689534	 0.371755
C	 3.452279	 -0.082609	 0.000533
H	 3.583069	 0.529321	 -0.880332
H	 4.163299	 -0.894027	 0.001117
H	 3.582335	 0.529955	 0.881077

	symmetry c1
}
set optking {
	frozen_dihedral = ("
		9 5 8 12,
		1 2 3 6,
		1 2 4 17
	")
}

ee = energy('scf')
oeprop('DIPOLE', 'QUADRUPOLE', 'MULLIKEN_CHARGES')
f=open( 'psi4out.xyz', 'w' )
f.write( "20  " )
f.write( str(ee) + "\n" )
f.write( MOL.save_string_xyz() )
f.close()
--------------------------------------------------------------------------

    Molecular point group: c1

    Geometry (in Angstrom), charge = 0, multiplicity = 1:

       Center              X                  Y                   Z               Mass
    ------------   -----------------  -----------------  -----------------  -----------------
           O          1.192792735958     1.276115480539     0.159517882654    15.994914619560
           C          1.100140735958     0.091017480539     0.159347882654    12.000000000000
           C         -0.192068264042    -0.688783519461     0.158923882654    12.000000000000
           O          2.150705735958    -0.719715519461     0.159751882654    15.994914619560
           C         -1.434450264042     0.196557480539     0.159083882654    12.000000000000
           H         -0.175620264042    -1.343885519461    -0.707866117346     1.007825032070
           H         -0.175842264042    -1.344597519461     1.025179882654     1.007825032070
           C         -2.641416264042    -0.495230519461    -0.476548117346    12.000000000000
           H         -1.217426264042     1.118738480539    -0.370999117346     1.007825032070
           H         -1.669836264042     0.483546480539     1.179247882654     1.007825032070
           C         -3.890959264042     0.384336480539    -0.479397117346    12.000000000000
           H         -2.399922264042    -0.781377519461    -1.498251117346     1.007825032070
           H         -2.852890264042    -1.419858519461     0.056755882654     1.007825032070
           H         -3.722238264042     1.302310480539    -1.034836117346     1.007825032070
           H         -4.731478264042    -0.129285519461    -0.935463117346     1.007825032070
           H         -4.178792264042     0.658747480539     0.531290882654     1.007825032070
           C          3.430360735958    -0.113395519461     0.160068882654    12.000000000000
           H          3.561150735958     0.498534480539    -0.720796117346     1.007825032070
           H          4.141380735958    -0.924813519461     0.160652882654     1.007825032070
           H          3.560416735958     0.499168480539     1.040612882654     1.007825032070

  Charge       = 0
  Multiplicity = 1
  Basis Set: 6-31G*
  Basis Set:

    Orbital Energies (a.u.)
    -----------------------

    Doubly Occupied:

       1A    -20.604046     2A    -20.545924     3A    -11.372720
       4A    -11.281089     5A    -11.235070     6A    -11.219766
       7A    -11.217547     8A    -11.210020     9A     -1.469763
      10A     -1.363363    11A     -1.088282    12A     -1.024067
      13A     -0.969066    14A     -0.885398    15A     -0.804213
      16A     -0.767440    17A     -0.699026    18A     -0.682772
      19A     -0.672519    20A     -0.643251    21A     -0.598774
      22A     -0.592252    23A     -0.578863    24A     -0.542931
      25A     -0.532551    26A     -0.522152    27A     -0.502011
      28A     -0.478502    29A     -0.470592    30A     -0.468387
      31A     -0.456403    32A     -0.438071

  @DF-RHF Final Energy:  -383.93952697272647

   => Energetics <=

    Nuclear Repulsion Energy =            381.6438306359443118
    One-Electron Energy =               -1279.2931679716728013
    Two-Electron Energy =                 513.7098103630019068
    DFT Exchange-Correlation Energy =       0.0000000000000000
    Empirical Dispersion Energy =           0.0000000000000000
    PCM Polarization Energy =               0.0000000000000000
    EFP Energy =                            0.0000000000000000
    Total Energy =                       -383.9395269727265259

  Mulliken Charges: (a.u.)
   Center  Symbol    Alpha    Beta     Spin     Total
       1     O     4.28523  4.28523  0.00000 -0.57045
       2     C     2.60822  2.60822  0.00000  0.78357
       3     C     3.20907  3.20907  0.00000 -0.41813
       4     O     4.30644  4.30644  0.00000 -0.61288
       5     C     3.15497  3.15497  0.00000 -0.30994
       6     H     0.39999  0.39999  0.00000  0.20002
       7     H     0.39901  0.39901  0.00000  0.20198
       8     C     3.15536  3.15536  0.00000 -0.31071
       9     H     0.40186  0.40186  0.00000  0.19628
      10     H     0.41681  0.41681  0.00000  0.16639
      11     C     3.23969  3.23969  0.00000 -0.47938
      12     H     0.42222  0.42222  0.00000  0.15555
      13     H     0.42340  0.42340  0.00000  0.15320
      14     H     0.41932  0.41932  0.00000  0.16136
      15     H     0.41890  0.41890  0.00000  0.16221
      16     H     0.42071  0.42071  0.00000  0.15859
      17     C     3.09236  3.09236  0.00000 -0.18472
      18     H     0.40907  0.40907  0.00000  0.18186
      19     H     0.40839  0.40839  0.00000  0.18322
      20     H     0.40899  0.40899  0.00000  0.18201

   Total alpha = 32.00000, Total beta = 32.00000, Total charge = -0.00000
