  ==> Input File <==

--------------------------------------------------------------------------
set {
	reference rhf
	basis cc-pvtz
}

set_num_threads( 4 )
memory 2 gb

molecule MOL {
0 1

H	 5.269878	 0.195679	 1.068175
C	 4.673900	 -0.208485	 0.258034
C	 3.190199	 -0.204714	 0.610086
H	 4.865136	 0.391893	 -0.624684
H	 5.027838	 -1.214511	 0.056939
C	 2.319208	 -0.778154	 -0.505491
H	 2.876954	 0.809861	 0.827925
H	 3.035335	 -0.782733	 1.518235
C	 1.743883	 -2.155739	 -0.192204
H	 1.505179	 -0.095813	 -0.716671
H	 2.911183	 -0.854569	 -1.412966
C	 0.643890	 -2.160549	 0.855878
H	 1.307242	 -2.585755	 -1.090089
H	 2.526803	 -2.844026	 0.112450
C	 0.301486	 -3.487956	 1.504045
O	 0.055059	 -1.169749	 1.147202
C	 -0.253894	 -4.527813	 0.524957
H	 -0.422436	 -3.283699	 2.281255
H	 1.198176	 -3.880533	 1.976302
C	 -0.677435	 -5.817115	 1.223515
H	 -1.107926	 -4.105457	 0.002616
H	 0.488265	 -4.761839	 -0.231635
C	 -1.239092	 -6.858106	 0.261224
H	 -1.421145	 -5.585818	 1.980133
H	 0.175370	 -6.235342	 1.751136
H	 -2.112561	 -6.479304	 -0.258625
H	 -0.504812	 -7.137202	 -0.487106
H	 -1.532715	 -7.758641	 0.787659

	symmetry c1
}
set optking {
	frozen_dihedral = ("
		10 6 3 2
	")
}

ee = optimize('scf')
oeprop('DIPOLE', 'QUADRUPOLE', 'MULLIKEN_CHARGES')
f=open( 'psi4out.xyz', 'w' )
f.write( "28  " )
f.write( str(ee) + "\n" )
f.write( MOL.save_string_xyz() )
f.close()
--------------------------------------------------------------------------

    Molecular point group: c1
  Charge       = 0
  Multiplicity = 1
  Basis Set: CC-PVTZ
  Basis Set:
  @DF-RHF Final Energy:  -426.31444836330638
    Total Energy =                       -426.3144483633066102
    Molecular point group: c1
  Basis Set: CC-PVTZ
  Basis Set:
  Basis Set: CC-PVTZ
  Basis Set:
  @DF-RHF Final Energy:  -426.31475166473456
    Total Energy =                       -426.3147516647342172
  Basis Set: CC-PVTZ
  Basis Set:
  Basis Set: CC-PVTZ
  Basis Set:
  @DF-RHF Final Energy:  -426.31476516254452
    Total Energy =                       -426.3147651625441767
  Basis Set: CC-PVTZ
  Basis Set:
  Basis Set: CC-PVTZ
  Basis Set:
  @DF-RHF Final Energy:  -426.31481125708990
    Total Energy =                       -426.3148112570901276
  Basis Set: CC-PVTZ
  Basis Set:
  @DF-RHF Final Energy:  -426.31482836945986
    Total Energy =                       -426.3148283694599741
  @DF-RHF Final Energy:  -426.31483328577281
    Total Energy =                       -426.3148332857722380
  @DF-RHF Final Energy:  -426.31483670700504
    Total Energy =                       -426.3148367070048153
  @DF-RHF Final Energy:  -426.31484100210923
    Total Energy =                       -426.3148410021087784
  @DF-RHF Final Energy:  -426.31484352127325
    Total Energy =                       -426.3148435212735876
  @DF-RHF Final Energy:  -426.31487096495050
    Total Energy =                       -426.3148709649501598
  @DF-RHF Final Energy:  -426.31496053979038
    Total Energy =                       -426.3149605397900359
  @DF-RHF Final Energy:  -426.31289312398917
    Total Energy =                       -426.3128931239895110
  @DF-RHF Final Energy:  -426.31518424980516
    Total Energy =                       -426.3151842498054975
  @DF-RHF Final Energy:  -426.31527626292166
    Total Energy =                       -426.3152762629214294
  @DF-RHF Final Energy:  -426.31546217439541
    Total Energy =                       -426.3154621743956341
  @DF-RHF Final Energy:  -426.31549277082024
    Total Energy =                       -426.3154927708204696
  @DF-RHF Final Energy:  -426.31550089707525
    Total Energy =                       -426.3155008970755944
  @DF-RHF Final Energy:  -426.31551212515251
    Total Energy =                       -426.3155121251522814
  @DF-RHF Final Energy:  -426.31552840403390
    Total Energy =                       -426.3155284040335573
  @DF-RHF Final Energy:  -426.31573776370942
    Total Energy =                       -426.3157377637094214
  @DF-RHF Final Energy:  -426.31635961642689
    Total Energy =                       -426.3163596164274622
  @DF-RHF Final Energy:  -426.31662013725645
    Total Energy =                       -426.3166201372561090
  @DF-RHF Final Energy:  -426.31597408385733
    Total Energy =                       -426.3159740838583502
  @DF-RHF Final Energy:  -426.31712234904182
    Total Energy =                       -426.3171223490421653
  Basis Set: CC-PVTZ
  Basis Set:
  @DF-RHF Final Energy:  -426.31713078922007
    Total Energy =                       -426.3171307892205277
  Basis Set: CC-PVTZ
  Basis Set:
  Basis Set: CC-PVTZ
  Basis Set:
  @DF-RHF Final Energy:  -426.31714875110970
    Total Energy =                       -426.3171487511090163
  Basis Set: CC-PVTZ
  Basis Set:
  Basis Set: CC-PVTZ
  Basis Set:
  @DF-RHF Final Energy:  -426.31715121586615
    Total Energy =                       -426.3171512158660335
  Basis Set: CC-PVTZ
  Basis Set:
  Charge       = 0
  Multiplicity = 1
  Basis Set: CC-PVTZ
  Basis Set:

    Orbital Energies (a.u.)
    -----------------------

    Doubly Occupied:

       1A    -20.537919     2A    -11.317410     3A    -11.229251
       4A    -11.229044     5A    -11.217235     6A    -11.214776
       7A    -11.214707     8A    -11.211716     9A    -11.207885
      10A    -11.207173    11A     -1.398290    12A     -1.089395
      13A     -1.077707    14A     -1.022833    15A     -0.991539
      16A     -0.912374    17A     -0.867828    18A     -0.807800
      19A     -0.791062    20A     -0.723722    21A     -0.666032
      22A     -0.657403    23A     -0.636078    24A     -0.620172
      25A     -0.598889    26A     -0.596597    27A     -0.582541
      28A     -0.565207    29A     -0.538942    30A     -0.527535
      31A     -0.523222    32A     -0.513614    33A     -0.492236
      34A     -0.481040    35A     -0.474174    36A     -0.474163
      37A     -0.468931    38A     -0.460065    39A     -0.458175
      40A     -0.396735

  @DF-RHF Final Energy:  -426.31715175460283

   => Energetics <=

    Nuclear Repulsion Energy =            531.2708248377842892
    One-Electron Energy =               -1631.1731152416487021
    Two-Electron Energy =                 673.5851386492611255
    DFT Exchange-Correlation Energy =       0.0000000000000000
    Empirical Dispersion Energy =           0.0000000000000000
    PCM Polarization Energy =               0.0000000000000000
    EFP Energy =                            0.0000000000000000
    Total Energy =                       -426.3171517546031737
    Molecular point group: c1
  Basis Set: CC-PVTZ
  Basis Set:

  -Total Gradient:
     Atom            X                  Y                   Z
    ------   -----------------  -----------------  -----------------
       1       -0.000000626883    -0.000006928585    -0.000003800100
       2        0.000030417675     0.001075149117    -0.001005862808
       3        0.000353069370    -0.001193314717     0.001228289722
       4       -0.000000501399     0.000002074754     0.000000250166
       5        0.000012330249     0.000003970042     0.000006029188
       6       -0.001929855538    -0.000984163297     0.000474192904
       7       -0.000020453468    -0.000005580676     0.000003149432
       8        0.000013979482    -0.000000909882    -0.000015072664
       9       -0.000018296883    -0.000055958589    -0.000053648759
      10        0.001543746632     0.001166100221    -0.000688282694
      11       -0.000001633578    -0.000010389909     0.000013112703
      12        0.000073312902    -0.000139865639     0.000009736571
      13       -0.000006869305     0.000011347562     0.000016110970
      14        0.000009058220    -0.000008620056     0.000038168159
      15       -0.000048457787     0.000074962938    -0.000035459699
      16       -0.000060104262     0.000092944528    -0.000019331758
      17       -0.000049427178     0.000018442492     0.000060230510
      18        0.000018499935    -0.000011865909    -0.000002211334
      19        0.000061030498    -0.000014574662    -0.000002027379
      20        0.000012761897     0.000015374208     0.000016456223
      21       -0.000024586257    -0.000015672804    -0.000021444192
      22        0.000029359425     0.000008110408     0.000003568465
      23        0.000004846103    -0.000013587698    -0.000016454414
      24        0.000015486372     0.000003313933    -0.000001578273
      25       -0.000014805967    -0.000005861147    -0.000001886246
      26        0.000012745233     0.000000480899    -0.000002375900
      27       -0.000011025277    -0.000003777646    -0.000001832433
      28       -0.000004000216    -0.000001199889     0.000001973640

  **** Optimization is complete! (in 28 steps) ****
    Final optimized geometry and variables:
    Molecular point group: c1

    Geometry (in Angstrom), charge = 0, multiplicity = 1:

    H            2.565460202575     4.185531806016     1.512193415097
    C            2.817016410192     3.474309721708     0.733563435269
    C            1.561580890190     2.879903769692     0.100758482752
    H            3.416787433633     3.991960126417    -0.007353247602
    H            3.439713455385     2.704353636240     1.179315234038
    C            1.866113988086     1.838856569717    -0.994827139108
    H            0.968888881747     3.682989545497    -0.320423560122
    H            0.942926946754     2.436752243408     0.873345885571
    C            1.591798202423     0.397804706286    -0.581331944101
    H            1.302805970090     2.064223234001    -1.889904620756
    H            2.912802120092     1.912029669229    -1.272721450261
    C            0.120253677230     0.049178045285    -0.449843528787
    H            2.002036745245    -0.291553783664    -1.316179895449
    H            2.091178038386     0.157955762317     0.353626791068
    C           -0.189098624521    -1.273595468924     0.222603665320
    O           -0.735273930004     0.764301731187    -0.859687103402
    C           -1.648921721183    -1.697091410454     0.140580440574
    H            0.123399814439    -1.180092728633     1.260822874812
    H            0.460332671572    -2.032341297366    -0.206735426626
    C           -1.916357190650    -3.024663853587     0.844120317884
    H           -2.269966912013    -0.920493866702     0.571090591335
    H           -1.941132276656    -1.769880142348    -0.901676835879
    C           -3.377370738936    -3.454040252966     0.764104624267
    H           -1.621464726861    -2.946913407747     1.887445534094
    H           -1.290270525384    -3.799181337091     0.408601325888
    H           -4.026690948260    -2.715980004849     1.222550320994
    H           -3.693137929322    -3.574850263631    -0.266617398379
    H           -3.537649107552    -4.397881329160     1.272386721001

  Mulliken Charges: (a.u.)
   Center  Symbol    Alpha    Beta     Spin     Total
       1     H     0.44887  0.44887  0.00000  0.10226
       2     C     3.14746  3.14746  0.00000 -0.29493
       3     C     3.08640  3.08640  0.00000 -0.17279
       4     H     0.45410  0.45410  0.00000  0.09181
       5     H     0.45816  0.45816  0.00000  0.08368
       6     C     3.09371  3.09371  0.00000 -0.18742
       7     H     0.44509  0.44509  0.00000  0.10982
       8     H     0.45486  0.45486  0.00000  0.09027
       9     C     3.11899  3.11899  0.00000 -0.23799
      10     H     0.43997  0.43997  0.00000  0.12006
      11     H     0.44945  0.44945  0.00000  0.10110
      12     C     2.87431  2.87431  0.00000  0.25137
      13     H     0.43589  0.43589  0.00000  0.12822
      14     H     0.44250  0.44250  0.00000  0.11500
      15     C     3.10769  3.10769  0.00000 -0.21537
      16     O     4.17638  4.17638  0.00000 -0.35277
      17     C     3.07864  3.07864  0.00000 -0.15728
      18     H     0.44557  0.44557  0.00000  0.10887
      19     H     0.44483  0.44483  0.00000  0.11033
      20     C     3.08582  3.08582  0.00000 -0.17165
      21     H     0.44450  0.44450  0.00000  0.11101
      22     H     0.44879  0.44879  0.00000  0.10241
      23     C     3.14971  3.14971  0.00000 -0.29943
      24     H     0.45570  0.45570  0.00000  0.08860
      25     H     0.45609  0.45609  0.00000  0.08781
      26     H     0.45369  0.45369  0.00000  0.09263
      27     H     0.45408  0.45408  0.00000  0.09184
      28     H     0.44874  0.44874  0.00000  0.10252

   Total alpha = 40.00000, Total beta = 40.00000, Total charge = -0.00000
