                              Psi4 1.0.54 Driver

  ==> Input File <==

--------------------------------------------------------------------------
set {
	reference rhf
	basis cc-pvtz
}

set_num_threads( 4 )
memory 2 gb

molecule MOL {
0 1

H	 3.273419	 0.176595	 -0.102789
N	 2.433987	 -0.362316	 -0.080024
C	 1.263552	 0.494993	 0.021953
H	 2.497638	 -0.973615	 0.707122
C	 -0.016533	 -0.325589	 -0.026925
H	 1.280915	 1.180773	 -0.818522
H	 1.263064	 1.106893	 0.925038
C	 -1.280353	 0.525521	 0.047747
H	 -0.016686	 -0.912532	 -0.939714
H	 -0.014099	 -1.037598	 0.796369
C	 -0.991107	 2.022846	 0.066394
H	 -1.841221	 0.257630	 0.939165
H	 -1.923760	 0.294874	 -0.797063
H	 -0.376895	 2.291510	 0.919208
H	 -1.907195	 2.599447	 0.123529
H	 -0.462255	 2.330231	 -0.829715

	symmetry c1
}
set optking {
	frozen_dihedral = ("
		12 8 5 9
	")
}

ee,wfn = optimize('scf', return_wfn=True)
oeprop( wfn, 'DIPOLE', 'QUADRUPOLE', 'MULLIKEN_CHARGES')
f=open( 'psi4out.xyz', 'w' )
f.write( "16  " )
f.write( str(ee) + "\n" )
f.write( MOL.save_string_xyz() )
f.close()
--------------------------------------------------------------------------

    Molecular point group: c1
  Charge       = 0
  Multiplicity = 1
  Basis Set: CC-PVTZ
  Basis Set:
  @DF-RHF Final Energy:  -212.38577319883606
    Total Energy =                       -212.3857731988360911
    Molecular point group: c1
  Basis Set: CC-PVTZ
  Basis Set:
  Basis Set: CC-PVTZ
  Basis Set:
  @DF-RHF Final Energy:  -212.38465810746200
    Total Energy =                       -212.3846581074619166
  Basis Set: CC-PVTZ
  Basis Set:
  Basis Set: CC-PVTZ
  Basis Set:
  @DF-RHF Final Energy:  -212.38986944433171
    Total Energy =                       -212.3898694443316799
  Basis Set: CC-PVTZ
  Basis Set:
  Basis Set: CC-PVTZ
  Basis Set:
  @DF-RHF Final Energy:  -212.39035438981188
    Total Energy =                       -212.3903543898116482
  Basis Set: CC-PVTZ
  Basis Set:
  Basis Set: CC-PVTZ
  Basis Set:
  @DF-RHF Final Energy:  -212.39041742080451
    Total Energy =                       -212.3904174208046243
  Basis Set: CC-PVTZ
  Basis Set:
  Basis Set: CC-PVTZ
  Basis Set:
  @DF-RHF Final Energy:  -212.39042468839247
    Total Energy =                       -212.3904246883924429
  Basis Set: CC-PVTZ
  Basis Set:
  Basis Set: CC-PVTZ
  Basis Set:
  @DF-RHF Final Energy:  -212.39042766269063
    Total Energy =                       -212.3904276626904561
  Basis Set: CC-PVTZ
  Basis Set:
  Charge       = 0
  Multiplicity = 1
  Basis Set: CC-PVTZ
  Basis Set:

    Orbital Energies (a.u.)
    -----------------------

    Doubly Occupied:

       1A    -15.526105     2A    -11.237585     3A    -11.213548
       4A    -11.208279     5A    -11.206637     6A     -1.178017
       7A     -1.054590     8A     -0.955386     9A     -0.864860
      10A     -0.773870    11A     -0.661964    12A     -0.637980
      13A     -0.613286    14A     -0.580674    15A     -0.546557
      16A     -0.532766    17A     -0.517330    18A     -0.467543
      19A     -0.461912    20A     -0.448949    21A     -0.383300

  @DF-RHF Final Energy:  -212.39042812080291

   => Energetics <=

    Nuclear Repulsion Energy =            189.0753509209778542
    One-Electron Energy =                -660.7892795240071564
    Two-Electron Energy =                 259.3235004822263363
    DFT Exchange-Correlation Energy =       0.0000000000000000
    Empirical Dispersion Energy =           0.0000000000000000
    PCM Polarization Energy =               0.0000000000000000
    EFP Energy =                            0.0000000000000000
    Total Energy =                       -212.3904281208029943
    Molecular point group: c1
  Basis Set: CC-PVTZ
  Basis Set:

  -Total Gradient:
     Atom            X                  Y                   Z
    ------   -----------------  -----------------  -----------------
       1        0.000004362399     0.000006291678    -0.000000638051
       2       -0.000014282552     0.000002824395    -0.000004955192
       3       -0.000000763171     0.000015855699     0.000003785992
       4       -0.000001852584    -0.000002201846     0.000003716463
       5        0.001077685116     0.001891337332    -0.001750499410
       6        0.000011627260    -0.000002974456     0.000003233945
       7        0.000009525801    -0.000001793806    -0.000002088606
       8        0.001206655028     0.001657931233     0.001827928795
       9       -0.001112533788    -0.001860120487     0.001180359132
      10       -0.000005605858    -0.000002256969     0.000002590385
      11        0.000013284035     0.000031868844     0.000007782243
      12       -0.001186766397    -0.001732423300    -0.001267726517
      13        0.000004515525    -0.000019756561    -0.000004576853
      14       -0.000001729056     0.000010945075    -0.000004909579
      15        0.000002001264     0.000003771162    -0.000001984315
      16       -0.000006123025     0.000000702006     0.000007981569

  **** Optimization is complete! (in 8 steps) ****
    Final optimized geometry and variables:
    Molecular point group: c1

    Geometry (in Angstrom), charge = 0, multiplicity = 1:

    H            3.009910353326    -0.449734208165    -0.100309525405
    N            2.135699181797    -0.930701028620    -0.112255705864
    C            1.025819685146    -0.000641396861     0.031428650610
    H            2.150514477983    -1.587387577605     0.640084150752
    C           -0.294611358988    -0.757287852056    -0.043856897405
    H            1.093001130237     0.715138440343    -0.778743797519
    H            1.073596323281     0.567806760517     0.959336023233
    C           -1.597249072734     0.077948960926     0.054318504556
    H           -0.297280341755    -1.337385556297    -0.958649933139
    H           -0.296077275357    -1.492532508340     0.756669852808
    C           -1.461199688925     1.600077781205     0.025663927237
    H           -2.136026758936    -0.208300548843     0.950908909734
    H           -2.246192975836    -0.211366950727    -0.765313999384
    H           -0.876778313313     1.975435923001     0.856910643753
    H           -2.441874021187     2.058161072096     0.084881503362
    H           -0.996891926856     1.946208016770    -0.890409838951

  Mulliken Charges: (a.u.)
   Center  Symbol    Alpha    Beta     Spin     Total
       1     H     0.43023  0.43023  0.00000  0.13953
       2     N     3.69005  3.69005  0.00000 -0.38010
       3     C     3.02735  3.02735  0.00000 -0.05471
       4     H     0.43091  0.43091  0.00000  0.13819
       5     C     3.09215  3.09215  0.00000 -0.18429
       6     H     0.45503  0.45503  0.00000  0.08994
       7     H     0.46556  0.46556  0.00000  0.06888
       8     C     3.09088  3.09088  0.00000 -0.18176
       9     H     0.44647  0.44647  0.00000  0.10706
      10     H     0.45835  0.45835  0.00000  0.08330
      11     C     3.15850  3.15850  0.00000 -0.31701
      12     H     0.45239  0.45239  0.00000  0.09523
      13     H     0.45102  0.45102  0.00000  0.09796
      14     H     0.45390  0.45390  0.00000  0.09219
      15     H     0.44435  0.44435  0.00000  0.11129
      16     H     0.45285  0.45285  0.00000  0.09430

   Total alpha = 21.00000, Total beta = 21.00000, Total charge = -0.00000

*** Psi4 exiting successfully. Buy a developer a beer!
