  ==> Input File <==

--------------------------------------------------------------------------
set {
	reference rhf
	basis 6-31G*
}

set_num_threads( 1 )
memory 2 gb

molecule MOL {
0 1

H	 -3.268288	 -0.291324	 1.444831
C	 -3.308529	 -0.268686	 0.348706
C	 -2.656284	 0.931914	 -0.288279
O	 -3.839083	 -1.148750	 -0.247742
C	 -1.218017	 1.149660	 0.201853
H	 -2.696734	 0.812313	 -1.364740
H	 -3.259345	 1.800328	 -0.025925
C	 -0.250753	 0.046504	 -0.234893
H	 -0.867683	 2.106292	 -0.174184
H	 -1.214936	 1.231934	 1.287661
C	 1.180775	 0.282413	 0.250794
H	 -0.258878	 -0.024632	 -1.320582
H	 -0.599641	 -0.916864	 0.132174
C	 2.148627	 -0.814315	 -0.201312
H	 1.519989	 1.250133	 -0.110017
H	 1.187389	 0.341227	 1.338397
C	 3.580890	 -0.659131	 0.322722
H	 2.166869	 -0.852443	 -1.289387
H	 1.762857	 -1.776509	 0.128956
C	 4.324889	 0.564933	 -0.213704
H	 4.142010	 -1.551473	 0.056605
H	 3.564836	 -0.624694	 1.410140
H	 4.342616	 0.565491	 -1.300421
H	 3.866655	 1.493402	 0.110242
H	 5.353900	 0.572371	 0.132816

	symmetry c1
}
set optking {
	frozen_dihedral = ("
		6 3 5 8,
		6 3 2 4,
		3 5 8 12,
		12 8 11 14,
		20 17 14 18
	")
}

ee = energy('scf')
oeprop('DIPOLE', 'QUADRUPOLE', 'MULLIKEN_CHARGES')
f=open( 'psi4out.xyz', 'w' )
f.write( "25  " )
f.write( str(ee) + "\n" )
f.write( MOL.save_string_xyz() )
f.close()
--------------------------------------------------------------------------

    Molecular point group: c1

    Geometry (in Angstrom), charge = 0, multiplicity = 1:

       Center              X                  Y                   Z               Mass
    ------------   -----------------  -----------------  -----------------  -----------------
           H         -3.268898098169    -0.295954488017     1.454757852569     1.007825032070
           C         -3.309139098169    -0.273316488017     0.358632852569    12.000000000000
           C         -2.656894098169     0.927283511983    -0.278352147431    12.000000000000
           O         -3.839693098169    -1.153380488017    -0.237815147431    15.994914619560
           C         -1.218627098169     1.145029511983     0.211779852569    12.000000000000
           H         -2.697344098169     0.807682511983    -1.354813147431     1.007825032070
           H         -3.259955098169     1.795697511983    -0.015998147431     1.007825032070
           C         -0.251363098169     0.041873511983    -0.224966147431    12.000000000000
           H         -0.868293098169     2.101661511983    -0.164257147431     1.007825032070
           H         -1.215546098169     1.227303511983     1.297587852569     1.007825032070
           C          1.180164901831     0.277782511983     0.260720852569    12.000000000000
           H         -0.259488098169    -0.029262488017    -1.310655147431     1.007825032070
           H         -0.600251098169    -0.921494488017     0.142100852569     1.007825032070
           C          2.148016901831    -0.818945488017    -0.191385147431    12.000000000000
           H          1.519378901831     1.245502511983    -0.100090147431     1.007825032070
           H          1.186778901831     0.336596511983     1.348323852569     1.007825032070
           C          3.580279901831    -0.663761488017     0.332648852569    12.000000000000
           H          2.166258901831    -0.857073488017    -1.279460147431     1.007825032070
           H          1.762246901831    -1.781139488017     0.138882852569     1.007825032070
           C          4.324278901831     0.560302511983    -0.203777147431    12.000000000000
           H          4.141399901831    -1.556103488017     0.066531852569     1.007825032070
           H          3.564225901831    -0.629324488017     1.420066852569     1.007825032070
           H          4.342005901831     0.560860511983    -1.290494147431     1.007825032070
           H          3.866044901831     1.488771511983     0.120168852569     1.007825032070
           H          5.353289901831     0.567740511983     0.142742852569     1.007825032070

  Charge       = 0
  Multiplicity = 1
  Basis Set: 6-31G*
  Basis Set:

    Orbital Energies (a.u.)
    -----------------------

    Doubly Occupied:

       1A    -20.562008     2A    -11.326151     3A    -11.235359
       4A    -11.234652     5A    -11.223954     6A    -11.219896
       7A    -11.218046     8A    -11.217024     9A    -11.210717
      10A     -1.401987    11A     -1.104035    12A     -1.069756
      13A     -1.013413    14A     -0.942494    15A     -0.875269
      16A     -0.820696    17A     -0.788119    18A     -0.781338
      19A     -0.664543    20A     -0.661937    21A     -0.632852
      22A     -0.626010    23A     -0.601421    24A     -0.594774
      25A     -0.575587    26A     -0.549468    27A     -0.536080
      28A     -0.524884    29A     -0.508159    30A     -0.495129
      31A     -0.491766    32A     -0.479580    33A     -0.464842
      34A     -0.458892    35A     -0.441192    36A     -0.409557

  @DF-RHF Final Energy:  -387.12205374526258

   => Energetics <=

    Nuclear Repulsion Energy =            439.1777018737627145
    One-Electron Energy =               -1394.6763869416438411
    Two-Electron Energy =                 568.3766313226174134
    DFT Exchange-Correlation Energy =       0.0000000000000000
    Empirical Dispersion Energy =           0.0000000000000000
    PCM Polarization Energy =               0.0000000000000000
    EFP Energy =                            0.0000000000000000
    Total Energy =                       -387.1220537452636563

  Mulliken Charges: (a.u.)
   Center  Symbol    Alpha    Beta     Spin     Total
       1     H     0.43260  0.43260  0.00000  0.13480
       2     C     2.83084  2.83084  0.00000  0.33832
       3     C     3.20814  3.20814  0.00000 -0.41629
       4     O     4.23775  4.23775  0.00000 -0.47551
       5     C     3.16656  3.16656  0.00000 -0.33311
       6     H     0.39968  0.39968  0.00000  0.20063
       7     H     0.40669  0.40669  0.00000  0.18662
       8     C     3.15479  3.15479  0.00000 -0.30958
       9     H     0.41285  0.41285  0.00000  0.17430
      10     H     0.41962  0.41962  0.00000  0.16076
      11     C     3.15421  3.15421  0.00000 -0.30842
      12     H     0.41798  0.41798  0.00000  0.16405
      13     H     0.41842  0.41842  0.00000  0.16317
      14     C     3.15311  3.15311  0.00000 -0.30622
      15     H     0.42086  0.42086  0.00000  0.15828
      16     H     0.42375  0.42375  0.00000  0.15251
      17     C     3.15276  3.15276  0.00000 -0.30552
      18     H     0.42299  0.42299  0.00000  0.15402
      19     H     0.42064  0.42064  0.00000  0.15872
      20     C     3.24134  3.24134  0.00000 -0.48268
      21     H     0.41995  0.41995  0.00000  0.16010
      22     H     0.42324  0.42324  0.00000  0.15352
      23     H     0.42189  0.42189  0.00000  0.15622
      24     H     0.42068  0.42068  0.00000  0.15863
      25     H     0.41866  0.41866  0.00000  0.16268

   Total alpha = 36.00000, Total beta = 36.00000, Total charge =  0.00000
