                              Psi4 1.0.54 Driver

  ==> Input File <==

--------------------------------------------------------------------------
set {
	reference rhf
	basis cc-pvtz
}

set_num_threads( 4 )
memory 2 gb

molecule MOL {
0 1

H	 0.395387	 1.257511	 2.238962
C	 1.146406	 0.813145	 1.572507
C	 0.692262	 0.592428	 0.156232
O	 2.219408	 0.542052	 1.988212
C	 -0.554654	 -0.292621	 0.086567
H	 1.512351	 0.162866	 -0.403917
H	 0.466446	 1.568187	 -0.268949
C	 -1.846385	 0.513195	 -0.016346
H	 -0.473986	 -0.956115	 -0.769708
H	 -0.597929	 -0.929215	 0.966651
C	 -3.089953	 -0.365049	 -0.098564
H	 -1.798267	 1.154820	 -0.891143
H	 -1.925398	 1.173265	 0.842889
H	 -3.055079	 -1.012299	 -0.968245
H	 -3.988403	 0.236438	 -0.170014
H	 -3.183055	 -0.995885	 0.779079

	symmetry c1
}
set optking {
	frozen_dihedral = ("
		6 3 5 9
	")
}

ee,wfn = optimize('scf', return_wfn=True)
oeprop( wfn, 'DIPOLE', 'QUADRUPOLE', 'MULLIKEN_CHARGES')
f=open( 'psi4out.xyz', 'w' )
f.write( "16  " )
f.write( str(ee) + "\n" )
f.write( MOL.save_string_xyz() )
f.close()
--------------------------------------------------------------------------

    Molecular point group: c1
  Charge       = 0
  Multiplicity = 1
  Basis Set: CC-PVTZ
  Basis Set:
  @DF-RHF Final Energy:  -270.11508872392420
    Total Energy =                       -270.1150887239240888
    Molecular point group: c1
  Basis Set: CC-PVTZ
  Basis Set:
  Basis Set: CC-PVTZ
  Basis Set:
  @DF-RHF Final Energy:  -270.11509854220560
    Total Energy =                       -270.1150985422052599
  Basis Set: CC-PVTZ
  Basis Set:
  Basis Set: CC-PVTZ
  Basis Set:
  @DF-RHF Final Energy:  -270.11540538879854
    Total Energy =                       -270.1154053887987629
  Basis Set: CC-PVTZ
  Basis Set:
  Basis Set: CC-PVTZ
  Basis Set:
  @DF-RHF Final Energy:  -270.11552993373243
    Total Energy =                       -270.1155299337324891
  Basis Set: CC-PVTZ
  Basis Set:
  Basis Set: CC-PVTZ
  Basis Set:
  @DF-RHF Final Energy:  -270.11557334382337
    Total Energy =                       -270.1155733438235416
  Basis Set: CC-PVTZ
  Basis Set:
  Basis Set: CC-PVTZ
  Basis Set:
  @DF-RHF Final Energy:  -270.11559379380088
    Total Energy =                       -270.1155937938009401
  Basis Set: CC-PVTZ
  Basis Set:
  Basis Set: CC-PVTZ
  Basis Set:
  @DF-RHF Final Energy:  -270.11560212879567
    Total Energy =                       -270.1156021287956719
  Basis Set: CC-PVTZ
  Basis Set:
  Charge       = 0
  Multiplicity = 1
  Basis Set: CC-PVTZ
  Basis Set:

    Orbital Energies (a.u.)
    -----------------------

    Doubly Occupied:

       1A    -20.551283     2A    -11.321584     3A    -11.234436
       4A    -11.233829     5A    -11.229421     6A    -11.217938
       7A     -1.406604     8A     -1.097590     9A     -1.019417
      10A     -0.906893    11A     -0.822207    12A     -0.791493
      13A     -0.672157    14A     -0.659036    15A     -0.617134
      16A     -0.611724    17A     -0.583785    18A     -0.558887
      19A     -0.536849    20A     -0.510199    21A     -0.486299
      22A     -0.483625    23A     -0.475634    24A     -0.412031

  @DF-RHF Final Energy:  -270.11560251514811

   => Energetics <=

    Nuclear Repulsion Energy =            230.7398339722271885
    One-Electron Energy =                -822.8307646761621754
    Two-Electron Energy =                 321.9753281887868184
    DFT Exchange-Correlation Energy =       0.0000000000000000
    Empirical Dispersion Energy =           0.0000000000000000
    PCM Polarization Energy =               0.0000000000000000
    EFP Energy =                            0.0000000000000000
    Total Energy =                       -270.1156025151481685
    Molecular point group: c1
  Basis Set: CC-PVTZ
  Basis Set:

  -Total Gradient:
     Atom            X                  Y                   Z
    ------   -----------------  -----------------  -----------------
       1        0.000120420787    -0.000033966129    -0.000031836910
       2        0.000109692646     0.000008908835     0.000023780919
       3        0.001091312252    -0.001976606909     0.002904162888
       4       -0.000244433828     0.000025571408    -0.000040530192
       5       -0.001385758050     0.002416165903    -0.002275955033
       6       -0.000621243267     0.001280563906    -0.002021187750
       7        0.000013402850     0.000007913066    -0.000010983982
       8       -0.000007808325    -0.000040171570     0.000061353254
       9        0.000963319534    -0.001714212021     0.001431335691
      10       -0.000010414150     0.000008058553    -0.000014576548
      11       -0.000030794624     0.000012505698    -0.000031682526
      12        0.000020204866     0.000008095947     0.000008411637
      13       -0.000010892210     0.000003590257     0.000010673367
      14       -0.000002527049    -0.000010882602    -0.000001511076
      15       -0.000012451701    -0.000004661500    -0.000011122139
      16        0.000007970275     0.000009127157    -0.000000331598

  **** Optimization is complete! (in 8 steps) ****
    Final optimized geometry and variables:
    Molecular point group: c1

    Geometry (in Angstrom), charge = 0, multiplicity = 1:

    H            0.575368485345     0.734322721434     1.669586620949
    C            1.382555721807     0.452526760909     0.981105953836
    C            0.961388690655     0.215004716419    -0.442937435004
    O            2.491189896041     0.357275226462     1.379891399346
    C           -0.330972717776    -0.612925512855    -0.557181263424
    H            1.785232682950    -0.240332806413    -0.974493318676
    H            0.806600143435     1.194039755807    -0.892134756387
    C           -1.601956506585     0.225124369481    -0.666062675728
    H           -0.249797298745    -1.272873075185    -1.413210052260
    H           -0.412803968411    -1.274358123131     0.302434317465
    C           -2.868444639357    -0.620120179407    -0.738788202564
    H           -1.535053646825     0.855152448393    -1.548451497103
    H           -1.667806751675     0.899814957602     0.183450608546
    H           -2.845309058609    -1.284705192060    -1.595839497820
    H           -3.750211615804     0.003347476003    -0.827254088374
    H           -2.983018955429    -1.231661699154     0.149734020160

  Mulliken Charges: (a.u.)
   Center  Symbol    Alpha    Beta     Spin     Total
       1     H     0.46502  0.46502  0.00000  0.06997
       2     C     2.90410  2.90410  0.00000  0.19181
       3     C     3.08738  3.08738  0.00000 -0.17477
       4     O     4.16491  4.16491  0.00000 -0.32983
       5     C     3.10959  3.10959  0.00000 -0.21917
       6     H     0.43543  0.43543  0.00000  0.12913
       7     H     0.45004  0.45004  0.00000  0.09992
       8     C     3.08432  3.08432  0.00000 -0.16864
       9     H     0.44153  0.44153  0.00000  0.11694
      10     H     0.44964  0.44964  0.00000  0.10072
      11     C     3.14937  3.14937  0.00000 -0.29874
      12     H     0.45163  0.45163  0.00000  0.09674
      13     H     0.45368  0.45368  0.00000  0.09265
      14     H     0.45339  0.45339  0.00000  0.09323
      15     H     0.44651  0.44651  0.00000  0.10698
      16     H     0.45347  0.45347  0.00000  0.09307

   Total alpha = 24.00000, Total beta = 24.00000, Total charge = -0.00000

*** Psi4 exiting successfully. Buy a developer a beer!
