  ==> Input File <==

--------------------------------------------------------------------------
set {
	reference rhf
	basis 6-31G*
}

set_num_threads( 4 )
memory 2 gb

molecule MOL {
0 1

H	 1.008026	 -0.741407	 -1.345052
O	 1.221911	 0.176689	 -1.249102
C	 0.709265	 0.639550	 -0.033818
C	 -0.793441	 0.596080	 0.058728
H	 1.050906	 1.663306	 0.068199
H	 1.134719	 0.085046	 0.801969
C	 -1.530462	 -0.493172	 -0.025500
H	 -1.268471	 1.554324	 0.202247
H	 -1.092586	 -1.461565	 -0.186463
H	 -2.602122	 -0.450675	 0.050101

	symmetry c1
}
set optking {
	frozen_dihedral = ("
		5 3 4 7
	")
}

ee = optimize('scf')
oeprop('DIPOLE', 'QUADRUPOLE', 'MULLIKEN_CHARGES')
f=open( 'psi4out.xyz', 'w' )
f.write( "10  " )
f.write( str(ee) + "\n" )
f.write( MOL.save_string_xyz() )
f.close()
--------------------------------------------------------------------------

    Molecular point group: c1
  Charge       = 0
  Multiplicity = 1
  Basis Set: 6-31G*
  Basis Set:
  @DF-RHF Final Energy:  -191.91066881169940
    Total Energy =                       -191.9106688116993382
    Molecular point group: c1
  Basis Set: 6-31G*
  Basis Set:
  Basis Set: 6-31G*
  Basis Set:
  @DF-RHF Final Energy:  -191.91116376098665
    Total Energy =                       -191.9111637609866534
  Basis Set: 6-31G*
  Basis Set:
  Basis Set: 6-31G*
  Basis Set:
  @DF-RHF Final Energy:  -191.91128139439945
    Total Energy =                       -191.9112813943993956
  Basis Set: 6-31G*
  Basis Set:
  Basis Set: 6-31G*
  Basis Set:
  @DF-RHF Final Energy:  -191.91132188101918
    Total Energy =                       -191.9113218810191768
  Basis Set: 6-31G*
  Basis Set:
  Basis Set: 6-31G*
  Basis Set:
  @DF-RHF Final Energy:  -191.91132888960081
    Total Energy =                       -191.9113288896007816
  Basis Set: 6-31G*
  Basis Set:
  Basis Set: 6-31G*
  Basis Set:
  @DF-RHF Final Energy:  -191.91132994397464
    Total Energy =                       -191.9113299439746072
  Basis Set: 6-31G*
  Basis Set:
  Charge       = 0
  Multiplicity = 1
  Basis Set: 6-31G*
  Basis Set:

    Orbital Energies (a.u.)
    -----------------------

    Doubly Occupied:

       1A    -20.554464     2A    -11.276388     3A    -11.236071
       4A    -11.230206     5A     -1.361652     6A     -1.063136
       7A     -0.926489     8A     -0.773486     9A     -0.697604
      10A     -0.639254    11A     -0.625193    12A     -0.577599
      13A     -0.538190    14A     -0.494178    15A     -0.436890
      16A     -0.375048

  @DF-RHF Final Energy:  -191.91132999832706

   => Energetics <=

    Nuclear Repulsion Energy =            118.4642659833256744
    One-Electron Energy =                -495.1395010299100363
    Two-Electron Energy =                 184.7639050482572713
    DFT Exchange-Correlation Energy =       0.0000000000000000
    Empirical Dispersion Energy =           0.0000000000000000
    PCM Polarization Energy =               0.0000000000000000
    EFP Energy =                            0.0000000000000000
    Total Energy =                       -191.9113299983270906
    Molecular point group: c1
  Basis Set: 6-31G*
  Basis Set:

  -Total Gradient:
     Atom            X                  Y                   Z
    ------   -----------------  -----------------  -----------------
       1       -0.000002865317     0.000006772579     0.000011304388
       2        0.000024315992    -0.000001588573    -0.000036535532
       3        0.000050201711    -0.000192886199     0.001994802852
       4        0.000111467051    -0.000283235427     0.002838163260
       5       -0.000095246508     0.000234426856    -0.002491037185
       6        0.000000503444     0.000005557468    -0.000003159686
       7       -0.000105096621     0.000222302329    -0.002313365450
       8        0.000004578242     0.000002383706    -0.000002199013
       9        0.000007253029     0.000001822042     0.000002052217
      10        0.000004888973     0.000004445220    -0.000000025851

  **** Optimization is complete! (in 7 steps) ****
    Final optimized geometry and variables:
    Molecular point group: c1

    Geometry (in Angstrom), charge = 0, multiplicity = 1:

    H            0.864577308795    -0.874099908298    -1.099861974961
    O            1.260031453641    -0.042040888700    -0.882953021766
    C            0.740475795202     0.420856853797     0.338335827034
    C           -0.774450994909     0.393700549460     0.394998294565
    H            1.094031098821     1.438435657072     0.424035758761
    H            1.154926875771    -0.148986344573     1.166824393122
    C           -1.495907654860    -0.707365259083     0.315526844480
    H           -1.277414251847     1.344181709248     0.460659062005
    H           -1.046999374082    -1.686383818501     0.255067949249
    H           -2.570682153587    -0.682246379867     0.317772174358

  Mulliken Charges: (a.u.)
   Center  Symbol    Alpha    Beta     Spin     Total
       1     H     0.28187  0.28187  0.00000  0.43625
       2     O     4.36674  4.36674  0.00000 -0.73348
       3     C     3.00281  3.00281  0.00000 -0.00562
       4     C     3.08953  3.08953  0.00000 -0.17906
       5     H     0.41226  0.41226  0.00000  0.17548
       6     H     0.42241  0.42241  0.00000  0.15519
       7     C     3.19697  3.19697  0.00000 -0.39395
       8     H     0.40414  0.40414  0.00000  0.19171
       9     H     0.41681  0.41681  0.00000  0.16637
      10     H     0.40645  0.40645  0.00000  0.18710

   Total alpha = 16.00000, Total beta = 16.00000, Total charge =  0.00000
