  ==> Input File <==

--------------------------------------------------------------------------
set {
	reference rhf
	basis 6-31G*
}

set_num_threads( 4 )
memory 2 gb

molecule MOL {
0 1

H	 -4.016196	 -0.587636	 -0.493638
C	 -2.951580	 -0.435615	 -0.509945
C	 -2.422858	 0.685689	 -1.131458
C	 -2.112730	 -1.361272	 0.090406
H	 -3.074538	 1.402802	 -1.596678
C	 -1.053873	 0.880471	 -1.152017
H	 -2.524398	 -2.229881	 0.571711
C	 -0.742043	 -1.168363	 0.071062
H	 -0.627147	 1.742286	 -1.628306
C	 -0.209021	 -0.045574	 -0.551028
H	 -0.089179	 -1.882102	 0.534382
C	 1.258116	 0.210701	 -0.600933
O	 1.970282	 -0.730723	 0.000018
O	 1.750378	 1.160678	 -1.124461
C	 3.377318	 -0.566646	 -0.000065
H	 3.695437	 -0.028981	 -0.881264
H	 3.789299	 -1.563704	 0.000236
H	 3.695516	 -0.028316	 0.880770

	symmetry c1
}
set optking {
	frozen_dihedral = ("
		12 13 15 16
	")
}

ee = optimize('scf')
oeprop('DIPOLE', 'QUADRUPOLE', 'MULLIKEN_CHARGES')
f=open( 'psi4out.xyz', 'w' )
f.write( "18  " )
f.write( str(ee) + "\n" )
f.write( MOL.save_string_xyz() )
f.close()
--------------------------------------------------------------------------

    Molecular point group: c1
  Charge       = 0
  Multiplicity = 1
  Basis Set: 6-31G*
  Basis Set:
  @DF-RHF Final Energy:  -457.34919307739551
    Total Energy =                       -457.3491930773957392
    Molecular point group: c1
  Basis Set: 6-31G*
  Basis Set:
  Basis Set: 6-31G*
  Basis Set:
  @DF-RHF Final Energy:  -457.34928734212821
    Total Energy =                       -457.3492873421278091
  Basis Set: 6-31G*
  Basis Set:
  Basis Set: 6-31G*
  Basis Set:
  @DF-RHF Final Energy:  -457.34922896741011
    Total Energy =                       -457.3492289674101130
  Basis Set: 6-31G*
  Basis Set:
  Basis Set: 6-31G*
  Basis Set:
  @DF-RHF Final Energy:  -457.34947720322350
    Total Energy =                       -457.3494772032232731
  Basis Set: 6-31G*
  Basis Set:
  Charge       = 0
  Multiplicity = 1
  Basis Set: 6-31G*
  Basis Set:

    Orbital Energies (a.u.)
    -----------------------

    Doubly Occupied:

       1A    -20.607108     2A    -20.544013     3A    -11.378721
       4A    -11.282201     5A    -11.245299     6A    -11.245059
       7A    -11.243850     8A    -11.241422     9A    -11.237218
      10A    -11.236450    11A     -1.471372    12A     -1.364224
      13A     -1.164989    14A     -1.047930    15A     -1.024543
      16A     -0.978816    17A     -0.859907    18A     -0.834036
      19A     -0.777417    20A     -0.739957    21A     -0.683667
      22A     -0.675849    23A     -0.671717    24A     -0.631209
      25A     -0.623743    26A     -0.597553    27A     -0.585302
      28A     -0.564071    29A     -0.526651    30A     -0.516442
      31A     -0.503540    32A     -0.498516    33A     -0.457292
      34A     -0.444335    35A     -0.344682    36A     -0.340720

  @DF-RHF Final Energy:  -457.34948015809749

   => Energetics <=

    Nuclear Repulsion Energy =            492.7702454005619188
    One-Electron Energy =               -1599.8598067754273870
    Two-Electron Energy =                 649.7400812167682034
    DFT Exchange-Correlation Energy =       0.0000000000000000
    Empirical Dispersion Energy =           0.0000000000000000
    PCM Polarization Energy =               0.0000000000000000
    EFP Energy =                            0.0000000000000000
    Total Energy =                       -457.3494801580973217
    Molecular point group: c1
  Basis Set: 6-31G*
  Basis Set:

  -Total Gradient:
     Atom            X                  Y                   Z
    ------   -----------------  -----------------  -----------------
       1       -0.000000494682     0.000001266250    -0.000000298858
       2        0.000002233231    -0.000002651391     0.000000654723
       3        0.000008767105    -0.000003926510     0.000003563171
       4       -0.000001794311    -0.000004697854     0.000003518086
       5       -0.000000349858    -0.000000474258    -0.000001997528
       6       -0.000003169957    -0.000001063277    -0.000006032845
       7       -0.000003489219     0.000002023107     0.000000747538
       8       -0.000026434587    -0.000018276916     0.000014827874
       9       -0.000003000125    -0.000002301775     0.000005461370
      10        0.000011120367    -0.000029508991     0.000021863150
      11       -0.000007130550     0.000009538235    -0.000008698491
      12        0.000015814624    -0.000616393805    -0.001389108289
      13        0.000005701472     0.001571650007     0.002095216208
      14        0.000056648650    -0.000126345052     0.000098988776
      15        0.000181050680    -0.002294198218    -0.001705851830
      16       -0.000160856448     0.001505552548     0.000812966258
      17        0.000006698132     0.000002094365     0.000013678862
      18       -0.000081314535     0.000007713535     0.000040501823

  **** Optimization is complete! (in 5 steps) ****
    Final optimized geometry and variables:
    Molecular point group: c1

    Geometry (in Angstrom), charge = 0, multiplicity = 1:

    H           -4.027909556555    -0.476386442512    -0.010397151475
    C           -2.964318989897    -0.317497720383    -0.026022529391
    C           -2.442549530192     0.808678582158    -0.644606959432
    C           -2.119739916260    -1.239091501706     0.572450226727
    H           -3.098609277589     1.522849668004    -1.108287296995
    C           -1.074912116459     1.012402598854    -0.664041678177
    H           -2.525995147418    -2.111395954837     1.051645244372
    C           -0.750306349898    -1.037318038499     0.553936985649
    H           -0.653861733900     1.878241174752    -1.137929693811
    C           -0.224056917932     0.090305784235    -0.065321886644
    H           -0.093362395823    -1.747874359034     1.016124438450
    C            1.241851458984     0.357088633583    -0.115244593055
    O            1.955212662794    -0.580338739573     0.491153177073
    O            1.723838097796     1.310991128520    -0.640929083978
    C            3.367311881709    -0.459472508701     0.480930810331
    H            3.702217291637     0.050562241851    -0.407139679829
    H            3.759924103719    -1.463655168093     0.524565466947
    H            3.686281198521     0.097394696693     1.352085742343

  Mulliken Charges: (a.u.)
   Center  Symbol    Alpha    Beta     Spin     Total
       1     H     0.39544  0.39544  0.00000  0.20911
       2     C     3.09000  3.09000  0.00000 -0.18000
       3     C     3.10707  3.10707  0.00000 -0.21414
       4     C     3.10712  3.10712  0.00000 -0.21425
       5     H     0.39544  0.39544  0.00000  0.20913
       6     C     3.08649  3.08649  0.00000 -0.17299
       7     H     0.39634  0.39634  0.00000  0.20733
       8     C     3.08702  3.08702  0.00000 -0.17403
       9     H     0.37596  0.37596  0.00000  0.24808
      10     C     3.07752  3.07752  0.00000 -0.15504
      11     H     0.38056  0.38056  0.00000  0.23888
      12     C     2.57944  2.57944  0.00000  0.84112
      13     O     4.31580  4.31580  0.00000 -0.63160
      14     O     4.29162  4.29162  0.00000 -0.58324
      15     C     3.09550  3.09550  0.00000 -0.19100
      16     H     0.39782  0.39782  0.00000  0.20436
      17     H     0.40901  0.40901  0.00000  0.18198
      18     H     0.41186  0.41186  0.00000  0.17628

   Total alpha = 36.00000, Total beta = 36.00000, Total charge =  0.00000
