                              Psi4 1.0.54 Driver

  ==> Input File <==

--------------------------------------------------------------------------
set {
	reference rhf
	basis cc-pvtz
}

set_num_threads( 4 )
memory 2 gb

molecule MOL {
0 1

O	 3.219313	 0.959291	 -0.614106
C	 2.698710	 0.058177	 -0.050237
C	 1.246364	 -0.005813	 0.348416
O	 3.344101	 -1.038700	 0.312317
C	 0.453207	 1.232821	 -0.049003
H	 0.839270	 -0.907818	 -0.092281
H	 1.216683	 -0.160521	 1.422434
C	 -0.998367	 1.217982	 0.432195
H	 0.481498	 1.345443	 -1.127236
H	 0.951413	 2.105557	 0.354893
C	 -1.882951	 0.151251	 -0.211235
H	 -1.429490	 2.193659	 0.228843
H	 -1.019755	 1.099323	 1.513279
C	 -3.342450	 0.243269	 0.226009
H	 -1.826223	 0.246578	 -1.293162
H	 -1.508033	 -0.839650	 0.027695
C	 -4.234517	 -0.821434	 -0.405970
H	 -3.730149	 1.228245	 -0.022691
H	 -3.398860	 0.159952	 1.308941
C	 -5.248342	 -0.247480	 -1.390101
H	 -3.613537	 -1.553420	 -0.915187
H	 -4.759753	 -1.361009	 0.377511
H	 -5.864856	 -1.028666	 -1.819801
H	 -4.752953	 0.268778	 -2.205685
H	 -5.907514	 0.463426	 -0.902954
C	 4.720529	 -1.114346	 0.001449
H	 4.874321	 -1.055557	 -1.065852
H	 5.057824	 -2.067950	 0.373977
H	 5.264321	 -0.313596	 0.480350

	symmetry c1
}
set optking {
	frozen_dihedral = ("
		21 17 14 11
	")
}

ee,wfn = optimize('scf', return_wfn=True)
oeprop( wfn, 'DIPOLE', 'QUADRUPOLE', 'MULLIKEN_CHARGES')
f=open( 'psi4out.xyz', 'w' )
f.write( "29  " )
f.write( str(ee) + "\n" )
f.write( MOL.save_string_xyz() )
f.close()
--------------------------------------------------------------------------

    Molecular point group: c1
  Charge       = 0
  Multiplicity = 1
  Basis Set: CC-PVTZ
  Basis Set:
  @DF-RHF Final Energy:  -501.21923598697799
    Total Energy =                       -501.2192359869773099
    Molecular point group: c1
  Basis Set: CC-PVTZ
  Basis Set:
  Basis Set: CC-PVTZ
  Basis Set:
  @DF-RHF Final Energy:  -501.21949299255652
    Total Energy =                       -501.2194929925567521
  Basis Set: CC-PVTZ
  Basis Set:
  Basis Set: CC-PVTZ
  Basis Set:
  @DF-RHF Final Energy:  -501.21955700679734
    Total Energy =                       -501.2195570067966628
  Basis Set: CC-PVTZ
  Basis Set:
  Basis Set: CC-PVTZ
  Basis Set:
  @DF-RHF Final Energy:  -501.21932786871957
    Total Energy =                       -501.2193278687195743
  Basis Set: CC-PVTZ
  Basis Set:
  Basis Set: CC-PVTZ
  Basis Set:
  @DF-RHF Final Energy:  -501.21956693804179
    Total Energy =                       -501.2195669380424761
  Basis Set: CC-PVTZ
  Basis Set:
  Charge       = 0
  Multiplicity = 1
  Basis Set: CC-PVTZ
  Basis Set:

    Orbital Energies (a.u.)
    -----------------------

    Doubly Occupied:

       1A    -20.596048     2A    -20.533896     3A    -11.364307
       4A    -11.278289     5A    -11.233000     6A    -11.217134
       7A    -11.215408     8A    -11.214232     9A    -11.213671
      10A    -11.212071    11A    -11.207344    12A     -1.471923
      13A     -1.365531    14A     -1.098797    15A     -1.066360
      16A     -1.019836    17A     -0.977784    18A     -0.928776
      19A     -0.863681    20A     -0.801351    21A     -0.789402
      22A     -0.765925    23A     -0.702872    24A     -0.685529
      25A     -0.676085    26A     -0.642760    27A     -0.632027
      28A     -0.604487    29A     -0.602954    30A     -0.582725
      31A     -0.564974    32A     -0.554730    33A     -0.533406
      34A     -0.523948    35A     -0.517564    36A     -0.516393
      37A     -0.498065    38A     -0.476360    39A     -0.474283
      40A     -0.461114    41A     -0.458547    42A     -0.454784
      43A     -0.443247    44A     -0.436784

  @DF-RHF Final Energy:  -501.21956692912045

   => Energetics <=

    Nuclear Repulsion Energy =            612.8922814177999498
    One-Electron Energy =               -1897.2668846269884853
    Two-Electron Energy =                 783.1550362800682024
    DFT Exchange-Correlation Energy =       0.0000000000000000
    Empirical Dispersion Energy =           0.0000000000000000
    PCM Polarization Energy =               0.0000000000000000
    EFP Energy =                            0.0000000000000000
    Total Energy =                       -501.2195669291203330
    Molecular point group: c1
  Basis Set: CC-PVTZ
  Basis Set:

  -Total Gradient:
     Atom            X                  Y                   Z
    ------   -----------------  -----------------  -----------------
       1       -0.000015298528     0.000078508067    -0.000003297356
       2        0.000004714789    -0.000047250064    -0.000062510208
       3        0.000028206804    -0.000003021577     0.000017378607
       4       -0.000016769039    -0.000043979488     0.000047687475
       5        0.000006777954     0.000017632616    -0.000031733944
       6        0.000024514546     0.000004584611     0.000003832892
       7        0.000000910511     0.000000346701     0.000007880477
       8       -0.000039132178     0.000008125053    -0.000020748102
       9        0.000010964312     0.000001358285    -0.000008777342
      10        0.000007460880    -0.000002201654    -0.000005063556
      11        0.000242602398    -0.000796932981     0.000950339739
      12       -0.000007328890     0.000014127915     0.000017316745
      13        0.000001002249    -0.000018844795    -0.000002987575
      14       -0.000357657562     0.001242602050    -0.001545850825
      15        0.000025264642    -0.000014975145    -0.000019742519
      16       -0.000002553287    -0.000015869739     0.000014723219
      17        0.000209601209    -0.001379899610     0.001969560452
      18       -0.000031137874     0.000015665605    -0.000004547422
      19       -0.000003608964    -0.000023268441    -0.000001890777
      20       -0.000008553766     0.000006976405     0.000020907658
      21       -0.000058040208     0.000902887650    -0.001348922258
      22        0.000008687768     0.000014636982     0.000023600659
      23       -0.000000536344    -0.000008238538     0.000005861398
      24        0.000004180234     0.000010382239    -0.000015285022
      25       -0.000018283123     0.000021231017    -0.000007275585
      26       -0.000006960708     0.000021489616    -0.000007433986
      27       -0.000000133385    -0.000001459774    -0.000001350501
      28       -0.000013072186    -0.000004947085     0.000006396752
      29        0.000004177753     0.000000334078     0.000001930902

  **** Optimization is complete! (in 6 steps) ****
    Final optimized geometry and variables:
    Molecular point group: c1

    Geometry (in Angstrom), charge = 0, multiplicity = 1:

    O            3.165956139924     0.929979834023    -0.512836155349
    C            2.659797633009     0.034953715825     0.073481855167
    C            1.211314668649    -0.036857078332     0.484678424510
    O            3.320135534685    -1.047015071478     0.453530004908
    C            0.401709936931     1.185140823760     0.069223419733
    H            0.810871398788    -0.951767003330     0.064941876541
    H            1.191410917000    -0.170732843267     1.561710012803
    C           -1.046434026552     1.163725990578     0.560858752510
    H            0.421489453804     1.277499282046    -1.011128125286
    H            0.893048443705     2.070800996488     0.452904032031
    C           -1.924795117289     0.078811554850    -0.058979261598
    H           -1.488601061442     2.131870241171     0.345456581299
    H           -1.059340768516     1.061916069835     1.643892971874
    C           -3.382622412395     0.159956717105     0.390954997903
    H           -1.877913331670     0.157935475403    -1.143230688095
    H           -1.539795668659    -0.905163599371     0.191309321616
    C           -4.289991471984    -0.903717789647    -0.259548564919
    H           -3.768319368358     1.151173147831     0.171944206755
    H           -3.415351618847     0.060613052755     1.471589301816
    C           -5.299204841633    -0.317677368963    -1.244250178782
    H           -3.676986618111    -1.627008061959    -0.788092493435
    H           -4.823735194468    -1.456617399544     0.505209751235
    H           -5.898312856654    -1.095603824611    -1.704147223555
    H           -4.798664220817     0.227369354464    -2.038192670680
    H           -5.974340545498     0.371382788233    -0.748010567300
    C            4.694943198662    -1.113854629008     0.133595585102
    H            4.840025326190    -1.075380563891    -0.935853582706
    H            5.045659958155    -2.055823066194     0.522983331051
    H            5.233366983962    -0.297475399580     0.591742351185

  Mulliken Charges: (a.u.)
   Center  Symbol    Alpha    Beta     Spin     Total
       1     O     4.19698  4.19698  0.00000 -0.39396
       2     C     2.80480  2.80480  0.00000  0.39039
       3     C     3.10167  3.10167  0.00000 -0.20335
       4     O     4.14719  4.14719  0.00000 -0.29439
       5     C     3.09247  3.09247  0.00000 -0.18494
       6     H     0.43916  0.43916  0.00000  0.12168
       7     H     0.43989  0.43989  0.00000  0.12022
       8     C     3.10493  3.10493  0.00000 -0.20986
       9     H     0.44625  0.44625  0.00000  0.10750
      10     H     0.43963  0.43963  0.00000  0.12074
      11     C     3.09306  3.09306  0.00000 -0.18611
      12     H     0.44470  0.44470  0.00000  0.11060
      13     H     0.45372  0.45372  0.00000  0.09255
      14     C     3.09564  3.09564  0.00000 -0.19129
      15     H     0.45261  0.45261  0.00000  0.09479
      16     H     0.45270  0.45270  0.00000  0.09461
      17     C     3.08979  3.08979  0.00000 -0.17957
      18     H     0.45327  0.45327  0.00000  0.09346
      19     H     0.44891  0.44891  0.00000  0.10217
      20     C     3.14713  3.14713  0.00000 -0.29426
      21     H     0.45537  0.45537  0.00000  0.08926
      22     H     0.44871  0.44871  0.00000  0.10259
      23     H     0.44956  0.44956  0.00000  0.10088
      24     H     0.45515  0.45515  0.00000  0.08970
      25     H     0.45474  0.45474  0.00000  0.09051
      26     C     3.03811  3.03811  0.00000 -0.07622
      27     H     0.45435  0.45435  0.00000  0.09129
      28     H     0.44527  0.44527  0.00000  0.10945
      29     H     0.45423  0.45423  0.00000  0.09154

   Total alpha = 44.00000, Total beta = 44.00000, Total charge = -0.00000

*** Psi4 exiting successfully. Buy a developer a beer!
