                              Psi4 1.0.54 Driver

  ==> Input File <==

--------------------------------------------------------------------------
set {
	reference rhf
	basis cc-pvtz
}

set_num_threads( 4 )
memory 2 gb

molecule MOL {
0 1

H	 -3.436473	 1.252944	 -1.023892
O	 -3.458596	 0.315260	 -0.960865
C	 -3.176635	 -0.080824	 0.355601
C	 -1.763371	 0.265266	 0.799691
H	 -3.321825	 -1.153438	 0.379502
H	 -3.895468	 0.357385	 1.043382
C	 -0.673390	 -0.426948	 -0.013392
H	 -1.631049	 1.344913	 0.747560
H	 -1.664587	 -0.001624	 1.849167
C	 0.737842	 -0.043159	 0.423759
H	 -0.806103	 -0.190518	 -1.063345
H	 -0.797221	 -1.503753	 0.074146
C	 1.824000	 -0.743224	 -0.390623
H	 0.850588	 1.033777	 0.343840
H	 0.868587	 -0.286314	 1.476203
C	 2.403664	 -2.001937	 0.257049
H	 2.629887	 -0.041063	 -0.591535
H	 1.411275	 -1.013670	 -1.358681
C	 3.192415	 -1.753996	 1.540615
H	 3.055382	 -2.488498	 -0.462185
H	 1.599007	 -2.704219	 0.458913
H	 4.000955	 -1.050130	 1.370579
H	 3.630008	 -2.675696	 1.906982
H	 2.567475	 -1.354955	 2.330438

	symmetry c1
}
set optking {
	frozen_dihedral = ("
		17 13 10 7
	")
}

ee,wfn = optimize('scf', return_wfn=True)
oeprop( wfn, 'DIPOLE', 'QUADRUPOLE', 'MULLIKEN_CHARGES')
f=open( 'psi4out.xyz', 'w' )
f.write( "24  " )
f.write( str(ee) + "\n" )
f.write( MOL.save_string_xyz() )
f.close()
--------------------------------------------------------------------------

    Molecular point group: c1
  Charge       = 0
  Multiplicity = 1
  Basis Set: CC-PVTZ
  Basis Set:
  @DF-RHF Final Energy:  -349.37597821071495
    Total Energy =                       -349.3759782107147771
    Molecular point group: c1
  Basis Set: CC-PVTZ
  Basis Set:
  Basis Set: CC-PVTZ
  Basis Set:
  @DF-RHF Final Energy:  -349.37595559569354
    Total Energy =                       -349.3759555956935401
  Basis Set: CC-PVTZ
  Basis Set:
  Basis Set: CC-PVTZ
  Basis Set:
  @DF-RHF Final Energy:  -349.37648856036196
    Total Energy =                       -349.3764885603619632
  Basis Set: CC-PVTZ
  Basis Set:
  Basis Set: CC-PVTZ
  Basis Set:
  @DF-RHF Final Energy:  -349.37649566216845
    Total Energy =                       -349.3764956621681108
  Basis Set: CC-PVTZ
  Basis Set:
  Basis Set: CC-PVTZ
  Basis Set:
  @DF-RHF Final Energy:  -349.37654277047363
    Total Energy =                       -349.3765427704734066
  Basis Set: CC-PVTZ
  Basis Set:
  Charge       = 0
  Multiplicity = 1
  Basis Set: CC-PVTZ
  Basis Set:

    Orbital Energies (a.u.)
    -----------------------

    Doubly Occupied:

       1A    -20.546373     2A    -11.265641     3A    -11.215119
       4A    -11.212390     5A    -11.210241     6A    -11.209280
       7A    -11.209084     8A    -11.205291     9A     -1.364213
      10A     -1.089067    11A     -1.048571    12A     -0.985884
      13A     -0.915530    14A     -0.852038    15A     -0.806400
      16A     -0.772277    17A     -0.682835    18A     -0.652270
      19A     -0.625964    20A     -0.616929    21A     -0.606084
      22A     -0.581907    23A     -0.557091    24A     -0.544191
      25A     -0.520407    26A     -0.506927    27A     -0.497582
      28A     -0.478168    29A     -0.468258    30A     -0.461647
      31A     -0.452429    32A     -0.446678    33A     -0.422108

  @DF-RHF Final Energy:  -349.37654373012822

   => Energetics <=

    Nuclear Repulsion Energy =            386.9960458305406519
    One-Electron Energy =               -1240.6874218090142676
    Two-Electron Energy =                 504.3148322483458514
    DFT Exchange-Correlation Energy =       0.0000000000000000
    Empirical Dispersion Energy =           0.0000000000000000
    PCM Polarization Energy =               0.0000000000000000
    EFP Energy =                            0.0000000000000000
    Total Energy =                       -349.3765437301277643
    Molecular point group: c1
  Basis Set: CC-PVTZ
  Basis Set:

  -Total Gradient:
     Atom            X                  Y                   Z
    ------   -----------------  -----------------  -----------------
       1       -0.000001297733    -0.000002149417    -0.000005563808
       2        0.000007370459     0.000018778420    -0.000014226590
       3       -0.000008093423    -0.000030933539     0.000021235300
       4        0.000012184611    -0.000026160730     0.000049185276
       5       -0.000004343360    -0.000002168277     0.000003912848
       6       -0.000005501599    -0.000002736733     0.000006750431
       7        0.000050668624     0.001623452808    -0.001414498943
       8       -0.000000195135    -0.000011181220    -0.000019549533
       9       -0.000012562271     0.000012744005     0.000031184801
      10       -0.000314262974    -0.001984900592     0.001220019577
      11        0.000001593239     0.000035261333    -0.000024579185
      12       -0.000008736874    -0.000015247976    -0.000002981063
      13        0.001530079730    -0.000443023444     0.002614191118
      14       -0.000010005396     0.000031427056    -0.000013995015
      15        0.000023851167    -0.000025534879     0.000023579830
      16       -0.000011892861    -0.000048466636     0.000007160472
      17       -0.001229898401     0.000814479787    -0.002462889272
      18       -0.000036291976     0.000014179718    -0.000005391747
      19        0.000046717291    -0.000038119641     0.000065516577
      20        0.000026457408    -0.000033085201    -0.000039465701
      21       -0.000063751599    -0.000008970307    -0.000036150305
      22        0.000046035781     0.000023369891     0.000026457135
      23       -0.000024520505     0.000096734673    -0.000046424056
      24       -0.000013604206     0.000002250902     0.000016521855

  **** Optimization is complete! (in 6 steps) ****
    Final optimized geometry and variables:
    Molecular point group: c1

    Geometry (in Angstrom), charge = 0, multiplicity = 1:

    H           -3.273353443664     1.818038324106    -1.258008799765
    O           -3.287320511631     0.878308197683    -1.238159745907
    C           -3.027701290747     0.425246550679     0.064406387554
    C           -1.626828262067     0.763374797515     0.552106663115
    H           -3.162832984488    -0.648595461607     0.036330218061
    H           -3.764428226886     0.825003694058     0.756673618308
    C           -0.514245148564     0.120907614574    -0.270678420167
    H           -1.504376024570     1.845558516022     0.552725375028
    H           -1.545682423299     0.449134434198     1.589910704663
    C            0.885329952439     0.511442651685     0.201390975365
    H           -0.631533547677     0.398940501776    -1.311801844265
    H           -0.625516185434    -0.960477232557    -0.230089734983
    C            2.008639950178    -0.190015158797    -0.581853177889
    H            0.990701026852     1.587599578330     0.099366912862
    H            0.981890534503     0.304041608764     1.262491867452
    C            2.561245650325    -1.455995783172     0.077021649487
    H            2.821171834098     0.505921504864    -0.767986162077
    H            1.627947974526    -0.450367948882    -1.565149385414
    C            3.439800229230    -1.192856600061     1.297679944022
    H            3.143555634561    -2.005749194375    -0.656035742783
    H            1.736775049572    -2.107008469493     0.356145366322
    H            4.300435783997    -0.588153934368     1.030829015114
    H            3.807171049893    -2.122084016908     1.717945248560
    H            2.902521834172    -0.671277946222     2.081115223538

  Mulliken Charges: (a.u.)
   Center  Symbol    Alpha    Beta     Spin     Total
       1     H     0.39525  0.39525  0.00000  0.20950
       2     O     4.20364  4.20364  0.00000 -0.40729
       3     C     2.97731  2.97731  0.00000  0.04538
       4     C     3.10327  3.10327  0.00000 -0.20653
       5     H     0.45893  0.45893  0.00000  0.08213
       6     H     0.46020  0.46020  0.00000  0.07961
       7     C     3.08565  3.08565  0.00000 -0.17130
       8     H     0.45888  0.45888  0.00000  0.08224
       9     H     0.45301  0.45301  0.00000  0.09399
      10     C     3.10002  3.10002  0.00000 -0.20003
      11     H     0.44549  0.44549  0.00000  0.10901
      12     H     0.45489  0.45489  0.00000  0.09022
      13     C     3.10490  3.10490  0.00000 -0.20980
      14     H     0.44867  0.44867  0.00000  0.10266
      15     H     0.45425  0.45425  0.00000  0.09150
      16     C     3.08855  3.08855  0.00000 -0.17710
      17     H     0.44705  0.44705  0.00000  0.10591
      18     H     0.44937  0.44937  0.00000  0.10127
      19     C     3.14913  3.14913  0.00000 -0.29826
      20     H     0.44860  0.44860  0.00000  0.10280
      21     H     0.45482  0.45482  0.00000  0.09035
      22     H     0.45489  0.45489  0.00000  0.09023
      23     H     0.44811  0.44811  0.00000  0.10379
      24     H     0.45513  0.45513  0.00000  0.08973

   Total alpha = 33.00000, Total beta = 33.00000, Total charge =  0.00000

*** Psi4 exiting successfully. Buy a developer a beer!
