  ==> Input File <==

--------------------------------------------------------------------------
set {
	reference rhf
	basis cc-pvtz
}

set_num_threads( 4 )
memory 2 gb

molecule MOL {
0 1

O	 1.715572	 -0.545922	 0.087526
C	 0.860843	 0.273204	 -0.013120
C	 -0.623368	 -0.117453	 -0.005652
C	 1.234459	 1.735100	 -0.159043
C	 -0.892588	 -1.253841	 -1.002900
C	 -1.473463	 1.100646	 -0.372896
C	 -0.981836	 -0.579025	 1.418506
H	 -0.609333	 -0.970024	 -2.010649
H	 -1.950451	 -1.487353	 -1.013175
H	 -0.360848	 -2.161259	 -0.746463
H	 -1.232203	 1.461623	 -1.364827
H	 -2.524364	 0.834451	 -0.354500
H	 -1.312381	 1.914833	 0.318657
H	 -2.035706	 -0.826342	 1.468082
H	 -0.425078	 -1.458934	 1.716857
H	 -0.788494	 0.205047	 2.140903
H	 1.104460	 2.232816	 0.795495
H	 2.272754	 1.800924	 -0.445536
H	 0.617970	 2.250949	 -0.882281

	symmetry c1
}
set optking {
	frozen_dihedral = ("
		1 2 3 5
	")
}

ee = optimize('scf')
oeprop('DIPOLE', 'QUADRUPOLE', 'MULLIKEN_CHARGES')
f=open( 'psi4out.xyz', 'w' )
f.write( "19  " )
f.write( str(ee) + "\n" )
f.write( MOL.save_string_xyz() )
f.close()
--------------------------------------------------------------------------

    Molecular point group: c1
  Charge       = 0
  Multiplicity = 1
  Basis Set: CC-PVTZ
  Basis Set:
  @DF-RHF Final Energy:  -309.16935261776467
    Total Energy =                       -309.1693526177646163
    Molecular point group: c1
  Basis Set: CC-PVTZ
  Basis Set:
  Basis Set: CC-PVTZ
  Basis Set:
  @DF-RHF Final Energy:  -309.17019491335282
    Total Energy =                       -309.1701949133529865
  Basis Set: CC-PVTZ
  Basis Set:
  Basis Set: CC-PVTZ
  Basis Set:
  @DF-RHF Final Energy:  -309.17222338115261
    Total Energy =                       -309.1722233811524347
  Basis Set: CC-PVTZ
  Basis Set:
  Basis Set: CC-PVTZ
  Basis Set:
  @DF-RHF Final Energy:  -309.17267069672761
    Total Energy =                       -309.1726706967274367
  Basis Set: CC-PVTZ
  Basis Set:
  @DF-RHF Final Energy:  -309.17283737241115
    Total Energy =                       -309.1728373724108678
  @DF-RHF Final Energy:  -309.17291133203713
    Total Energy =                       -309.1729113320367333
  @DF-RHF Final Energy:  -309.17295890524923
    Total Energy =                       -309.1729589052491178
  @DF-RHF Final Energy:  -309.17298427212705
    Total Energy =                       -309.1729842721265982
  @DF-RHF Final Energy:  -309.17300468586393
    Total Energy =                       -309.1730046858641572
  @DF-RHF Final Energy:  -309.17302219425892
    Total Energy =                       -309.1730221942586923
  @DF-RHF Final Energy:  -309.17306080516516
    Total Energy =                       -309.1730608051652780
  Basis Set: CC-PVTZ
  Basis Set:
  @DF-RHF Final Energy:  -309.17307562075030
    Total Energy =                       -309.1730756207504101
  Basis Set: CC-PVTZ
  Basis Set:
  Basis Set: CC-PVTZ
  Basis Set:
  @DF-RHF Final Energy:  -309.17300365088016
    Total Energy =                       -309.1730036508802186
  Basis Set: CC-PVTZ
  Basis Set:
  Basis Set: CC-PVTZ
  Basis Set:
  @DF-RHF Final Energy:  -309.17308268829225
    Total Energy =                       -309.1730826882919700
  Basis Set: CC-PVTZ
  Basis Set:
  Charge       = 0
  Multiplicity = 1
  Basis Set: CC-PVTZ
  Basis Set:

    Orbital Energies (a.u.)
    -----------------------

    Doubly Occupied:

       1A    -20.536340     2A    -11.318505     3A    -11.245501
       4A    -11.226115     5A    -11.219849     6A    -11.216877
       7A    -11.211741     8A     -1.398276     9A     -1.109034
      10A     -1.004740    11A     -0.943174    12A     -0.939298
      13A     -0.833999    14A     -0.705711    15A     -0.666825
      16A     -0.633603    17A     -0.624168    18A     -0.589049
      19A     -0.586528    20A     -0.573408    21A     -0.552655
      22A     -0.546677    23A     -0.523512    24A     -0.514997
      25A     -0.503120    26A     -0.472459    27A     -0.463020
      28A     -0.393764

  @DF-RHF Final Energy:  -309.17308215217594

   => Energetics <=

    Nuclear Repulsion Energy =            326.7962508495641600
    One-Electron Energy =               -1066.8327737735357914
    Two-Electron Energy =                 430.8634407717954673
    DFT Exchange-Correlation Energy =       0.0000000000000000
    Empirical Dispersion Energy =           0.0000000000000000
    PCM Polarization Energy =               0.0000000000000000
    EFP Energy =                            0.0000000000000000
    Total Energy =                       -309.1730821521762209
    Molecular point group: c1
  Basis Set: CC-PVTZ
  Basis Set:

  -Total Gradient:
     Atom            X                  Y                   Z
    ------   -----------------  -----------------  -----------------
       1       -0.000011415097     0.000103312229     0.000955731909
       2       -0.000024646000     0.000000152592    -0.001527780164
       3        0.000139940143    -0.000556589028     0.000967400509
       4        0.000009646492    -0.000005298684     0.000065312189
       5       -0.000119868403     0.000440351921    -0.000479007233
       6       -0.000001225607    -0.000006577674     0.000047483556
       7        0.000013844261     0.000006840087     0.000016961478
       8        0.000012354156    -0.000001222039     0.000008438566
       9       -0.000016557093     0.000007462259    -0.000014522448
      10       -0.000013289047     0.000002459741     0.000017947668
      11        0.000049024629     0.000025812816    -0.000006814206
      12        0.000001342839    -0.000008713004    -0.000028090281
      13       -0.000055878710    -0.000021910448     0.000007929454
      14        0.000008657820     0.000001442866    -0.000003741340
      15        0.000012771448     0.000014232336    -0.000001685574
      16       -0.000003476025     0.000003344775     0.000011486317
      17        0.000023259641    -0.000001550365    -0.000008740840
      18        0.000001004261     0.000000475411    -0.000007596752
      19       -0.000025489706    -0.000004025792    -0.000020712809

  **** Optimization is complete! (in 15 steps) ****
    Final optimized geometry and variables:
    Molecular point group: c1

    Geometry (in Angstrom), charge = 0, multiplicity = 1:

    O            1.694753817314    -0.688960485465     0.064519297086
    C            0.887760408586     0.178483363863    -0.031434420673
    C           -0.612182003475    -0.168862310928     0.004833137404
    C            1.335572757577     1.618734477104    -0.142555524856
    C           -0.861911414171    -1.305800801274    -0.995227834337
    C           -1.522190140834     1.015605538499    -0.339532522239
    C           -0.918049892624    -0.652542656443     1.431799149090
    H           -0.646737198434    -0.988894108433    -2.010166766735
    H           -1.901054549078    -1.612454670138    -0.956499588399
    H           -0.239809816545    -2.159940491589    -0.772309631388
    H           -1.335277760318     1.392876073889    -1.338191116974
    H           -2.557272455113     0.697784584008    -0.302590799271
    H           -1.411326488556     1.836907775185     0.357621795879
    H           -1.960606042015    -0.938388646700     1.511587011949
    H           -0.305348215532    -1.505912410570     1.686749649785
    H           -0.732818351293     0.127584149995     2.163208373150
    H            0.936952706720     2.205639783696     0.676656598594
    H            2.413632141404     1.650811165232    -0.119203515014
    H            0.977143792326     2.064758231468    -1.062133219937

  Mulliken Charges: (a.u.)
   Center  Symbol    Alpha    Beta     Spin     Total
       1     O     4.18141  4.18141  0.00000 -0.36282
       2     C     2.84616  2.84616  0.00000  0.30768
       3     C     3.00576  3.00576  0.00000 -0.01152
       4     C     3.16272  3.16272  0.00000 -0.32544
       5     C     3.15344  3.15344  0.00000 -0.30687
       6     C     3.16564  3.16564  0.00000 -0.33129
       7     C     3.15340  3.15340  0.00000 -0.30679
       8     H     0.45028  0.45028  0.00000  0.09944
       9     H     0.45075  0.45075  0.00000  0.09850
      10     H     0.43507  0.43507  0.00000  0.12985
      11     H     0.44552  0.44552  0.00000  0.10896
      12     H     0.44251  0.44251  0.00000  0.11498
      13     H     0.44573  0.44573  0.00000  0.10854
      14     H     0.44914  0.44914  0.00000  0.10173
      15     H     0.43683  0.43683  0.00000  0.12634
      16     H     0.44976  0.44976  0.00000  0.10047
      17     H     0.44698  0.44698  0.00000  0.10604
      18     H     0.43169  0.43169  0.00000  0.13662
      19     H     0.44721  0.44721  0.00000  0.10558

   Total alpha = 28.00000, Total beta = 28.00000, Total charge = -0.00000
