                              Psi4 1.0.54 Driver

  ==> Input File <==

--------------------------------------------------------------------------
set {
	reference rhf
	basis cc-pvtz
}

set_num_threads( 4 )
memory 2 gb

molecule MOL {
0 1

O	 0.074770	 1.259872	 0.000487
C	 0.029490	 0.077183	 0.000078
C	 -1.232113	 -0.748027	 0.000015
O	 1.106773	 -0.690081	 -0.000204
C	 -2.501422	 0.088592	 -0.000052
H	 -1.188777	 -1.400384	 -0.865133
H	 -1.188857	 -1.400312	 0.865225
H	 -2.548170	 0.725504	 -0.873205
H	 -3.371613	 -0.556398	 -0.000040
H	 -2.548215	 0.725571	 0.873047
C	 1.884330	 -0.716454	 -1.180183
H	 1.300004	 -1.076894	 -2.013779
H	 2.703723	 -1.388111	 -0.981949
H	 2.258334	 0.269706	 -1.412246

	symmetry c1
}
set optking {
	frozen_dihedral = ("
		11 4 2 3
	")
}

ee,wfn = optimize('scf', return_wfn=True)
oeprop( wfn, 'DIPOLE', 'QUADRUPOLE', 'MULLIKEN_CHARGES')
f=open( 'psi4out.xyz', 'w' )
f.write( "14  " )
f.write( str(ee) + "\n" )
f.write( MOL.save_string_xyz() )
f.close()
--------------------------------------------------------------------------

    Molecular point group: c1
  Charge       = 0
  Multiplicity = 1
  Basis Set: CC-PVTZ
  Basis Set:
  @DF-RHF Final Energy:  -305.97049948960432
    Total Energy =                       -305.9704994896042081
    Molecular point group: c1
  Basis Set: CC-PVTZ
  Basis Set:
  Basis Set: CC-PVTZ
  Basis Set:
  @DF-RHF Final Energy:  -305.97033854605434
    Total Energy =                       -305.9703385460541654
  Basis Set: CC-PVTZ
  Basis Set:
  Basis Set: CC-PVTZ
  Basis Set:
  @DF-RHF Final Energy:  -305.97068851314430
    Total Energy =                       -305.9706885131441823
  Basis Set: CC-PVTZ
  Basis Set:
  Basis Set: CC-PVTZ
  Basis Set:
  @DF-RHF Final Energy:  -305.97137962834864
    Total Energy =                       -305.9713796283484726
  Basis Set: CC-PVTZ
  Basis Set:
  Basis Set: CC-PVTZ
  Basis Set:
  @DF-RHF Final Energy:  -305.97140012719802
    Total Energy =                       -305.9714001271980237
  Basis Set: CC-PVTZ
  Basis Set:
  Charge       = 0
  Multiplicity = 1
  Basis Set: CC-PVTZ
  Basis Set:

    Orbital Energies (a.u.)
    -----------------------

    Doubly Occupied:

       1A    -20.579973     2A    -20.545329     3A    -11.368432
       4A    -11.286672     5A    -11.240984     6A    -11.217394
       7A     -1.463879     8A     -1.369507     9A     -1.064663
      10A     -0.976445    11A     -0.889554    12A     -0.767457
      13A     -0.702700    14A     -0.680221    15A     -0.674431
      16A     -0.620505    17A     -0.616490    18A     -0.556650
      19A     -0.543695    20A     -0.524693    21A     -0.511335
      22A     -0.497397    23A     -0.458639    24A     -0.440339

  @DF-RHF Final Energy:  -305.97140190542916

   => Energetics <=

    Nuclear Repulsion Energy =            247.1010208714338034
    One-Electron Energy =                -906.9500769778843505
    Two-Electron Energy =                 353.8776542010213007
    DFT Exchange-Correlation Energy =       0.0000000000000000
    Empirical Dispersion Energy =           0.0000000000000000
    PCM Polarization Energy =               0.0000000000000000
    EFP Energy =                            0.0000000000000000
    Total Energy =                       -305.9714019054292748
    Molecular point group: c1
  Basis Set: CC-PVTZ
  Basis Set:

  -Total Gradient:
     Atom            X                  Y                   Z
    ------   -----------------  -----------------  -----------------
       1       -0.000004145136    -0.000000511766     0.000011259934
       2       -0.001605308370    -0.001392382424     0.006454316090
       3        0.000193221142    -0.000425248076    -0.005116092955
       4        0.004431319727     0.006304193256     0.000207992299
       5        0.000002481226    -0.000012669484     0.000029357833
       6       -0.000005595908    -0.000032633349     0.000013115628
       7       -0.000011116673    -0.000024334444     0.000029054861
       8        0.000001133854     0.000003945014    -0.000012364135
       9       -0.000004891407    -0.000005059485    -0.000003916013
      10        0.000004419182     0.000005110533     0.000003624522
      11       -0.002990096437    -0.004394493343    -0.001672666788
      12       -0.000010371137    -0.000021335041     0.000008868669
      13       -0.000005310113    -0.000010351299     0.000030352924
      14        0.000004260053     0.000005769908     0.000017097131

  **** Optimization is complete! (in 6 steps) ****
    Final optimized geometry and variables:
    Molecular point group: c1

    Geometry (in Angstrom), charge = 0, multiplicity = 1:

    O            0.171853518968     1.375011647009     0.039673096741
    C            0.103241783074     0.209142288866     0.188971329791
    C           -1.174424897193    -0.586696114284     0.222066786374
    O            1.199130131672    -0.565614717828     0.301060726855
    C           -2.433418692941     0.263891930497     0.187896306196
    H           -1.131203894560    -1.263014666642    -0.627006912781
    H           -1.143983092533    -1.221436842871     1.100801214677
    H           -2.466050791997     0.875703208776    -0.703478553730
    H           -3.312533815321    -0.368673610341     0.202419675782
    H           -2.476473264978     0.926613740556     1.042210878536
    C            2.003208037132    -0.691502758146    -0.851763407900
    H            1.454708718960    -1.184663677761    -1.646690621877
    H            2.848872136135    -1.299685295733    -0.574858514044
    H            2.344996975603     0.276398099260    -1.190698794380

  Mulliken Charges: (a.u.)
   Center  Symbol    Alpha    Beta     Spin     Total
       1     O     4.17430  4.17430  0.00000 -0.34860
       2     C     2.79218  2.79218  0.00000  0.41563
       3     C     3.09965  3.09965  0.00000 -0.19929
       4     O     4.16891  4.16891  0.00000 -0.33781
       5     C     3.13912  3.13912  0.00000 -0.27825
       6     H     0.44614  0.44614  0.00000  0.10773
       7     H     0.43868  0.43868  0.00000  0.12264
       8     H     0.44780  0.44780  0.00000  0.10441
       9     H     0.45045  0.45045  0.00000  0.09910
      10     H     0.44773  0.44773  0.00000  0.10454
      11     C     3.03419  3.03419  0.00000 -0.06839
      12     H     0.46734  0.46734  0.00000  0.06533
      13     H     0.44424  0.44424  0.00000  0.11152
      14     H     0.44928  0.44928  0.00000  0.10144

   Total alpha = 24.00000, Total beta = 24.00000, Total charge =  0.00000

*** Psi4 exiting successfully. Buy a developer a beer!
