                              Psi4 1.0.54 Driver

  ==> Input File <==

--------------------------------------------------------------------------
set {
	reference rhf
	basis cc-pvtz
}

set_num_threads( 4 )
memory 2 gb

molecule MOL {
0 1

H	 -3.258660	 -0.290394	 1.471450
C	 -3.307964	 -0.275695	 0.374072
C	 -2.653809	 0.914422	 -0.273689
O	 -3.855140	 -1.148880	 -0.205112
C	 -1.216901	 1.136108	 0.207794
H	 -2.700131	 0.790676	 -1.347875
H	 -3.256452	 1.781007	 -0.010713
C	 -0.247837	 0.040196	 -0.230469
H	 -0.872882	 2.093195	 -0.169002
H	 -1.209325	 1.218376	 1.291938
C	 1.181757	 0.280428	 0.247371
H	 -0.259600	 -0.030819	 -1.314870
H	 -0.591284	 -0.923375	 0.136958
C	 2.151032	 -0.811012	 -0.202643
H	 1.515939	 1.247397	 -0.115449
H	 1.191514	 0.341223	 1.333422
C	 3.580021	 -0.656538	 0.320835
H	 2.170545	 -0.847575	 -1.289412
H	 1.766632	 -1.772905	 0.124928
C	 3.697845	 0.098362	 1.642700
H	 4.164710	 -0.134721	 -0.430321
H	 4.031608	 -1.639588	 0.425658
H	 3.248333	 1.083561	 1.569775
H	 3.211819	 -0.427466	 2.455700
H	 4.737905	 0.230835	 1.917820

	symmetry c1
}
set optking {
	frozen_dihedral = ("
		20 17 14 18
	")
}

ee,wfn = optimize('scf', return_wfn=True)
oeprop( wfn, 'DIPOLE', 'QUADRUPOLE', 'MULLIKEN_CHARGES')
f=open( 'psi4out.xyz', 'w' )
f.write( "25  " )
f.write( str(ee) + "\n" )
f.write( MOL.save_string_xyz() )
f.close()
--------------------------------------------------------------------------

    Molecular point group: c1
  Charge       = 0
  Multiplicity = 1
  Basis Set: CC-PVTZ
  Basis Set:
  @DF-RHF Final Energy:  -387.25399678842086
    Total Energy =                       -387.2539967884209773
    Molecular point group: c1
  Basis Set: CC-PVTZ
  Basis Set:
  Basis Set: CC-PVTZ
  Basis Set:
  @DF-RHF Final Energy:  -387.08349534756502
    Total Energy =                       -387.0834953475651901
  Basis Set: CC-PVTZ
  Basis Set:
  Basis Set: CC-PVTZ
  Basis Set:
  @DF-RHF Final Energy:  -387.20061366982685
    Total Energy =                       -387.2006136698273622
  Basis Set: CC-PVTZ
  Basis Set:
  Basis Set: CC-PVTZ
  Basis Set:
  @DF-RHF Final Energy:  -387.25197382638459
    Total Energy =                       -387.2519738263843010
  Basis Set: CC-PVTZ
  Basis Set:
  @DF-RHF Final Energy:  -387.25524492291959
    Total Energy =                       -387.2552449229193599
  @DF-RHF Final Energy:  -387.25566486535388
    Total Energy =                       -387.2556648653542197
  @DF-RHF Final Energy:  -387.25362874871911
    Total Energy =                       -387.2536287487191657
  @DF-RHF Final Energy:  -387.25569611927574
    Total Energy =                       -387.2556961192761946
  Basis Set: CC-PVTZ
  Basis Set:
  @DF-RHF Final Energy:  -387.25571630684192
    Total Energy =                       -387.2557163068419186
  Basis Set: CC-PVTZ
  Basis Set:
  Basis Set: CC-PVTZ
  Basis Set:
  @DF-RHF Final Energy:  -387.25572647454317
    Total Energy =                       -387.2557264745432803
  Basis Set: CC-PVTZ
  Basis Set:
  Basis Set: CC-PVTZ
  Basis Set:
  @DF-RHF Final Energy:  -387.25572859047611
    Total Energy =                       -387.2557285904759965
  Basis Set: CC-PVTZ
  Basis Set:
  Charge       = 0
  Multiplicity = 1
  Basis Set: CC-PVTZ
  Basis Set:

    Orbital Energies (a.u.)
    -----------------------

    Doubly Occupied:

       1A    -20.551303     2A    -11.320921     3A    -11.233753
       4A    -11.232736     5A    -11.221543     6A    -11.217535
       7A    -11.216584     8A    -11.215417     9A    -11.209000
      10A     -1.406369    11A     -1.104929    12A     -1.069300
      13A     -1.013605    14A     -0.943144    15A     -0.878569
      16A     -0.823034    17A     -0.788463    18A     -0.775536
      19A     -0.667580    20A     -0.665672    21A     -0.638771
      22A     -0.623081    23A     -0.609574    24A     -0.589013
      25A     -0.570261    26A     -0.561363    27A     -0.529920
      28A     -0.526610    29A     -0.516253    30A     -0.497444
      31A     -0.491579    32A     -0.480660    33A     -0.460666
      34A     -0.455358    35A     -0.443325    36A     -0.411780

  @DF-RHF Final Energy:  -387.25572903110793

   => Energetics <=

    Nuclear Repulsion Energy =            440.9358829613182138
    One-Electron Energy =               -1398.4619245167191366
    Two-Electron Energy =                 570.2703125242926490
    DFT Exchange-Correlation Energy =       0.0000000000000000
    Empirical Dispersion Energy =           0.0000000000000000
    PCM Polarization Energy =               0.0000000000000000
    EFP Energy =                            0.0000000000000000
    Total Energy =                       -387.2557290311083307
    Molecular point group: c1
  Basis Set: CC-PVTZ
  Basis Set:

  -Total Gradient:
     Atom            X                  Y                   Z
    ------   -----------------  -----------------  -----------------
       1        0.000013303828    -0.000022591606    -0.000037016275
       2       -0.000056168246    -0.000123431847    -0.000148756026
       3        0.000050416290    -0.000015484337     0.000088712562
       4       -0.000012641979     0.000043509572     0.000120906883
       5        0.000053323855     0.000101003498    -0.000054549126
       6        0.000004176962     0.000006181037    -0.000041533997
       7       -0.000050877254     0.000049271514     0.000001249650
       8       -0.000061708179    -0.000040857698     0.000021012435
       9        0.000023783253     0.000021338768     0.000019210969
      10       -0.000005563562     0.000007403684     0.000027704396
      11        0.000026214103     0.000044619712    -0.000068204054
      12        0.000000487494     0.000016616888    -0.000013194821
      13       -0.000014778166    -0.000043026876    -0.000014849832
      14        0.001026617358    -0.005653238370    -0.001081360180
      15       -0.000002054325     0.000029470824    -0.000000442724
      16        0.000016613853    -0.000013234395    -0.000003220530
      17       -0.001908800694    -0.004873011135     0.002331063785
      18       -0.000470918173     0.006211374560     0.000294552218
      19       -0.000003373251    -0.000031597189    -0.000008833867
      20        0.001298158925     0.004302707776    -0.001499375597
      21        0.000019225600     0.000009710129     0.000030794435
      22        0.000038157422    -0.000018567314     0.000001771595
      23       -0.000015315063    -0.000026761831     0.000020104763
      24        0.000037121457    -0.000009201701    -0.000008294444
      25       -0.000005401506     0.000027796338     0.000022547782

  **** Optimization is complete! (in 12 steps) ****
    Final optimized geometry and variables:
    Molecular point group: c1

    Geometry (in Angstrom), charge = 0, multiplicity = 1:

    H           -3.446362313382    -0.111839626990    -0.356288167266
    C           -2.988728735206     0.052832082564    -1.341318987955
    C           -2.079448991116     1.248935319994    -1.425916430532
    O           -3.234587466564    -0.678093919352    -2.237103122739
    C           -1.022144615482     1.270432665290    -0.318236464301
    H           -1.628024946213     1.269182852042    -2.409442252163
    H           -2.713986865450     2.127619866663    -1.331761442318
    C            0.007264066080     0.147980614546    -0.432407803121
    H           -0.515090466063     2.228863757416    -0.346362633736
    H           -1.514296772334     1.217894531152     0.649860378525
    C            1.063725641460     0.192231514446     0.668606902236
    H            0.491268832052     0.208463054397    -1.403519774463
    H           -0.495041685209    -0.815902829342    -0.407515007222
    C            2.087273414078    -0.938132209993     0.541932263590
    H            1.573967040693     1.151935104722     0.631976594993
    H            0.569544445981     0.145523996413     1.633554501897
    C            3.245463745558    -0.910792813551     1.559266445263
    H            2.512460866181    -0.854832478198    -0.453379420402
    H            1.566638792407    -1.889003572110     0.595883121956
    C            2.933345948815    -0.320373533400     2.933155310459
    H            4.061684128959    -0.332995006576     1.134890710673
    H            3.628983517824    -1.918163832557     1.678986365377
    H            2.654741535276     0.723556245960     2.868603803036
    H            2.125030048964    -0.849595170316     3.427782223167
    H            3.805232542122    -0.386991114691     3.573793048856

  Mulliken Charges: (a.u.)
   Center  Symbol    Alpha    Beta     Spin     Total
       1     H     0.46412  0.46412  0.00000  0.07176
       2     C     2.90471  2.90471  0.00000  0.19058
       3     C     3.08921  3.08921  0.00000 -0.17841
       4     O     4.16634  4.16634  0.00000 -0.33268
       5     C     3.11583  3.11583  0.00000 -0.23166
       6     H     0.44290  0.44290  0.00000  0.11421
       7     H     0.44052  0.44052  0.00000  0.11897
       8     C     3.09207  3.09207  0.00000 -0.18413
       9     H     0.44327  0.44327  0.00000  0.11345
      10     H     0.44993  0.44993  0.00000  0.10014
      11     C     3.09294  3.09294  0.00000 -0.18589
      12     H     0.44958  0.44958  0.00000  0.10083
      13     H     0.44854  0.44854  0.00000  0.10291
      14     C     3.09592  3.09592  0.00000 -0.19184
      15     H     0.45273  0.45273  0.00000  0.09454
      16     H     0.45056  0.45056  0.00000  0.09887
      17     C     3.08870  3.08870  0.00000 -0.17739
      18     H     0.45112  0.45112  0.00000  0.09777
      19     H     0.45041  0.45041  0.00000  0.09917
      20     C     3.15737  3.15737  0.00000 -0.31473
      21     H     0.45392  0.45392  0.00000  0.09216
      22     H     0.44864  0.44864  0.00000  0.10272
      23     H     0.45226  0.45226  0.00000  0.09548
      24     H     0.45403  0.45403  0.00000  0.09193
      25     H     0.44439  0.44439  0.00000  0.11123

   Total alpha = 36.00000, Total beta = 36.00000, Total charge = -0.00000

*** Psi4 exiting successfully. Buy a developer a beer!
