                              Psi4 1.0.54 Driver

  ==> Input File <==

--------------------------------------------------------------------------
set {
	reference rhf
	basis cc-pvtz
}

set_num_threads( 4 )
memory 2 gb

molecule MOL {
0 1

H	 -3.162190	 0.493205	 -0.000107
C	 -2.363908	 -0.234727	 0.000005
O	 -1.158738	 0.454634	 -0.000087
H	 -2.464314	 -0.863616	 -0.882153
H	 -2.464327	 -0.863359	 0.882345
C	 -0.028611	 -0.359694	 0.000037
C	 1.092928	 0.343003	 0.738115
H	 0.274722	 -0.578408	 -1.024068
H	 -0.254502	 -1.312639	 0.479111
C	 2.370789	 -0.487333	 0.782450
H	 1.282318	 1.294498	 0.253643
H	 0.757317	 0.566051	 1.744876
H	 2.737868	 -0.701668	 -0.215748
H	 3.154382	 0.037789	 1.314662
H	 2.209438	 -1.434840	 1.285705

	symmetry c1
}
set optking {
	frozen_dihedral = ("
		8 6 3 2
	")
}

ee,wfn = optimize('scf', return_wfn=True)
oeprop( wfn, 'DIPOLE', 'QUADRUPOLE', 'MULLIKEN_CHARGES')
f=open( 'psi4out.xyz', 'w' )
f.write( "15  " )
f.write( str(ee) + "\n" )
f.write( MOL.save_string_xyz() )
f.close()
--------------------------------------------------------------------------

    Molecular point group: c1
  Charge       = 0
  Multiplicity = 1
  Basis Set: CC-PVTZ
  Basis Set:
  @DF-RHF Final Energy:  -232.22615589004425
    Total Energy =                       -232.2261558900442537
    Molecular point group: c1
  Basis Set: CC-PVTZ
  Basis Set:
  Basis Set: CC-PVTZ
  Basis Set:
  @DF-RHF Final Energy:  -232.22627159614800
    Total Energy =                       -232.2262715961479671
  Basis Set: CC-PVTZ
  Basis Set:
  Basis Set: CC-PVTZ
  Basis Set:
  @DF-RHF Final Energy:  -232.22631118151025
    Total Energy =                       -232.2263111815102548
  Basis Set: CC-PVTZ
  Basis Set:
  Charge       = 0
  Multiplicity = 1
  Basis Set: CC-PVTZ
  Basis Set:

    Orbital Energies (a.u.)
    -----------------------

    Doubly Occupied:

       1A    -20.545945     2A    -11.264190     3A    -11.262202
       4A    -11.212359     5A    -11.210550     6A     -1.379354
       7A     -1.057980     8A     -0.956473     9A     -0.877704
      10A     -0.808749    11A     -0.675442    12A     -0.655192
      13A     -0.633418    14A     -0.605914    15A     -0.566304
      16A     -0.541248    17A     -0.503455    18A     -0.490863
      19A     -0.480090    20A     -0.463556    21A     -0.412214

  @DF-RHF Final Energy:  -232.22631165600083

   => Energetics <=

    Nuclear Repulsion Energy =            189.9752168700253208
    One-Electron Energy =                -691.1966519284228525
    Two-Electron Energy =                 268.9951234023965299
    DFT Exchange-Correlation Energy =       0.0000000000000000
    Empirical Dispersion Energy =           0.0000000000000000
    PCM Polarization Energy =               0.0000000000000000
    EFP Energy =                            0.0000000000000000
    Total Energy =                       -232.2263116560010303
    Molecular point group: c1
  Basis Set: CC-PVTZ
  Basis Set:

  -Total Gradient:
     Atom            X                  Y                   Z
    ------   -----------------  -----------------  -----------------
       1       -0.000008110897    -0.000009255069    -0.000003651788
       2       -0.000146768273    -0.000012789956     0.002344591111
       3        0.000568672746     0.000587289248    -0.003347850587
       4        0.000031663734     0.000019248370     0.000019317378
       5        0.000029567052     0.000011021566    -0.000015546019
       6       -0.002187945745    -0.002895340636     0.000968046888
       7       -0.000009182332     0.000000296787    -0.000046023037
       8        0.001697097006     0.002322990924     0.000071259957
       9       -0.000003140237    -0.000007778221    -0.000000357866
      10        0.000027169228    -0.000021856891     0.000019225676
      11        0.000001283254     0.000006641624     0.000006660141
      12       -0.000008172068    -0.000004816639    -0.000011101824
      13       -0.000002216753     0.000002568179     0.000005103032
      14        0.000001856801    -0.000003866488    -0.000000025287
      15        0.000008226486     0.000005647203    -0.000009647774

  **** Optimization is complete! (in 4 steps) ****
    Final optimized geometry and variables:
    Molecular point group: c1

    Geometry (in Angstrom), charge = 0, multiplicity = 1:

    H           -3.106225134995     0.615181424584    -0.353112675942
    C           -2.329155483655    -0.135457788447    -0.334980068541
    O           -1.105823454367     0.521130796550    -0.300358422449
    H           -2.428992885101    -0.758518304414    -1.221582271172
    H           -2.468989150181    -0.762328812149     0.542569186300
    C            0.018284899172    -0.306570874873    -0.276593093839
    C            1.141675584390     0.391804454215     0.467177118479
    H            0.339396657983    -0.518160952160    -1.295548963172
    H           -0.214621211540    -1.254055467820     0.204666467905
    C            2.429975018507    -0.423604745496     0.477298221132
    H            1.314196614416     1.355829014623     0.001193269681
    H            0.816106298149     0.590224960450     1.482689622411
    H            2.788677534731    -0.607706040729    -0.529920287737
    H            3.213263585310     0.096692869849     1.014885548982
    H            2.285516701255    -1.386082420972     0.957257039033

  Mulliken Charges: (a.u.)
   Center  Symbol    Alpha    Beta     Spin     Total
       1     H     0.44864  0.44864  0.00000  0.10272
       2     C     3.03219  3.03219  0.00000 -0.06437
       3     O     4.17493  4.17493  0.00000 -0.34987
       4     H     0.47171  0.47171  0.00000  0.05658
       5     H     0.47173  0.47173  0.00000  0.05654
       6     C     2.95862  2.95862  0.00000  0.08277
       7     C     3.08011  3.08011  0.00000 -0.16022
       8     H     0.46785  0.46785  0.00000  0.06431
       9     H     0.47662  0.47662  0.00000  0.04677
      10     C     3.15574  3.15574  0.00000 -0.31149
      11     H     0.45034  0.45034  0.00000  0.09932
      12     H     0.45342  0.45342  0.00000  0.09315
      13     H     0.45550  0.45550  0.00000  0.08901
      14     H     0.44638  0.44638  0.00000  0.10724
      15     H     0.45623  0.45623  0.00000  0.08754

   Total alpha = 21.00000, Total beta = 21.00000, Total charge = -0.00000

*** Psi4 exiting successfully. Buy a developer a beer!
