                              Psi4 1.0.54 Driver

  ==> Input File <==

--------------------------------------------------------------------------
set {
	reference rhf
	basis cc-pvtz
}

set_num_threads( 4 )
memory 2 gb

molecule MOL {
0 1

O	 -2.817697	 1.304178	 0.001046
C	 -2.664672	 0.129869	 0.003507
C	 -3.797908	 -0.860100	 -0.001145
O	 -1.481217	 -0.452708	 0.001092
H	 -4.408836	 -0.679689	 -0.875387
H	 -3.443486	 -1.878443	 -0.002770
H	 -4.412123	 -0.683688	 0.871605
C	 -0.332055	 0.384012	 -0.000250
C	 0.892252	 -0.506059	 -0.000295
H	 -0.360822	 1.020205	 -0.874146
H	 -0.359817	 1.021310	 0.872861
C	 0.805093	 -1.603065	 1.056749
H	 1.771939	 0.105617	 0.171960
H	 1.005904	 -0.948136	 -0.984834
C	 2.029358	 -2.514089	 1.075081
H	 0.681055	 -1.151930	 2.038110
H	 -0.084337	 -2.203748	 0.883345
C	 1.942134	 -3.611180	 2.130444
H	 2.918618	 -1.915203	 1.250037
H	 2.154239	 -2.965606	 0.094967
H	 1.851047	 -3.190199	 3.126096
H	 2.825239	 -4.239230	 2.116916
H	 1.080548	 -4.248547	 1.962257

	symmetry c1
}
set optking {
	frozen_dihedral = ("
		13 9 8 10
	")
}

ee,wfn = optimize('scf', return_wfn=True)
oeprop( wfn, 'DIPOLE', 'QUADRUPOLE', 'MULLIKEN_CHARGES')
f=open( 'psi4out.xyz', 'w' )
f.write( "23  " )
f.write( str(ee) + "\n" )
f.write( MOL.save_string_xyz() )
f.close()
--------------------------------------------------------------------------

    Molecular point group: c1
  Charge       = 0
  Multiplicity = 1
  Basis Set: CC-PVTZ
  Basis Set:
  @DF-RHF Final Energy:  -423.13255022772267
    Total Energy =                       -423.1325502277225041
    Molecular point group: c1
  Basis Set: CC-PVTZ
  Basis Set:
  Basis Set: CC-PVTZ
  Basis Set:
  @DF-RHF Final Energy:  -423.13282517546054
    Total Energy =                       -423.1328251754598568
  Basis Set: CC-PVTZ
  Basis Set:
  Basis Set: CC-PVTZ
  Basis Set:
  @DF-RHF Final Energy:  -423.13334112301538
    Total Energy =                       -423.1333411230154979
  Basis Set: CC-PVTZ
  Basis Set:
  Basis Set: CC-PVTZ
  Basis Set:
  @DF-RHF Final Energy:  -423.13325902280792
    Total Energy =                       -423.1332590228079198
  Basis Set: CC-PVTZ
  Basis Set:
  Basis Set: CC-PVTZ
  Basis Set:
  @DF-RHF Final Energy:  -423.13346927574293
    Total Energy =                       -423.1334692757434368
  Basis Set: CC-PVTZ
  Basis Set:
  Basis Set: CC-PVTZ
  Basis Set:
  @DF-RHF Final Energy:  -423.13347189323548
    Total Energy =                       -423.1334718932357646
  Basis Set: CC-PVTZ
  Basis Set:
  Basis Set: CC-PVTZ
  Basis Set:
  @DF-RHF Final Energy:  -423.13347294243340
    Total Energy =                       -423.1334729424331726
  Basis Set: CC-PVTZ
  Basis Set:
  Charge       = 0
  Multiplicity = 1
  Basis Set: CC-PVTZ
  Basis Set:

    Orbital Energies (a.u.)
    -----------------------

    Doubly Occupied:

       1A    -20.595536     2A    -20.529633     3A    -11.366597
       4A    -11.280646     5A    -11.231064     6A    -11.223936
       7A    -11.217190     8A    -11.215643     9A    -11.209351
      10A     -1.471065    11A     -1.363955    12A     -1.092605
      13A     -1.042129    14A     -1.003382    15A     -0.931805
      16A     -0.843702    17A     -0.804428    18A     -0.772105
      19A     -0.691232    20A     -0.688920    21A     -0.669207
      22A     -0.645181    23A     -0.608295    24A     -0.587869
      25A     -0.580429    26A     -0.571088    27A     -0.560357
      28A     -0.531606    29A     -0.529934    30A     -0.512268
      31A     -0.494154    32A     -0.474262    33A     -0.468295
      34A     -0.460944    35A     -0.450737    36A     -0.440949

  @DF-RHF Final Energy:  -423.13347323473664

   => Energetics <=

    Nuclear Repulsion Energy =            460.0008079000268140
    One-Electron Energy =               -1487.9475628477491682
    Two-Electron Energy =                 604.8132817129855994
    DFT Exchange-Correlation Energy =       0.0000000000000000
    Empirical Dispersion Energy =           0.0000000000000000
    PCM Polarization Energy =               0.0000000000000000
    EFP Energy =                            0.0000000000000000
    Total Energy =                       -423.1334732347368117
    Molecular point group: c1
  Basis Set: CC-PVTZ
  Basis Set:

  -Total Gradient:
     Atom            X                  Y                   Z
    ------   -----------------  -----------------  -----------------
       1        0.000003098148    -0.000024927323     0.000004515295
       2        0.000005463558     0.000017903774     0.000036818198
       3       -0.000001994317    -0.000001746269     0.000037940840
       4       -0.000021615991     0.000005594202    -0.000027667675
       5       -0.000000133461    -0.000018654641    -0.000019037691
       6       -0.000001691140     0.000009050256    -0.000004671146
       7        0.000004334214     0.000012809567    -0.000027797954
       8        0.002659288070     0.003474697402     0.003190822880
       9       -0.000103205341    -0.000239311074    -0.005173319855
      10       -0.002169947825    -0.002827740033    -0.001903919872
      11       -0.000000342887    -0.000001457079    -0.000000341090
      12        0.000002842632    -0.000009252762     0.000003246960
      13       -0.000379419222    -0.000409644580     0.003887400211
      14       -0.000002848113    -0.000002630617    -0.000002352715
      15       -0.000000184905    -0.000004025052    -0.000001671904
      16        0.000003413051     0.000001478499     0.000001592124
      17        0.000008518715     0.000004019039    -0.000002684159
      18       -0.000005335636     0.000011285748     0.000003073158
      19       -0.000003151928    -0.000002447364     0.000001845598
      20       -0.000001945367     0.000001932328     0.000005061531
      21       -0.000000181216    -0.000001963733    -0.000003570378
      22        0.000002270224     0.000000506149    -0.000003263625
      23        0.000002768734     0.000004523561    -0.000002018733

  **** Optimization is complete! (in 8 steps) ****
    Final optimized geometry and variables:
    Molecular point group: c1

    Geometry (in Angstrom), charge = 0, multiplicity = 1:

    O           -2.167611229820     2.204462019199    -0.536826141219
    C           -2.069227697141     1.024231012978    -0.528066274026
    C           -3.248424553564     0.089061694471    -0.536707777875
    O           -0.914691057542     0.387559509890    -0.508971338254
    H           -3.846998391095     0.298229185668    -1.413101540794
    H           -2.943579507932    -0.945272285234    -0.536695203712
    H           -3.856564376447     0.294821168471     0.333967113674
    C            0.273655970465     1.173605362770    -0.503936009055
    C            1.471512923556     0.243572779772    -0.486646276899
    H            0.267413756645     1.779802102633    -1.398323612650
    H            0.259238559544     1.824358356118     0.358718569457
    C            1.438536170170    -0.804519366328     0.624662384884
    H            2.348811026033     0.866770226750    -0.336688464258
    H            1.572837287119    -0.241849420083    -1.451407948414
    C            2.710422951937    -1.646240799925     0.678763296722
    H            1.296375419492    -0.307231704780     1.581697451950
    H            0.582336035041    -1.454226530985     0.487388735364
    C            2.681475143172    -2.700854641931     1.779796518296
    H            3.568628977771    -0.996102560165     0.826037969712
    H            2.859122721505    -2.133050187664    -0.281358975384
    H            2.567028745505    -2.243388662461     2.756885337375
    H            3.596882357125    -3.281111609459     1.791892647163
    H            1.854978133262    -3.389498663635     1.639930107068

  Mulliken Charges: (a.u.)
   Center  Symbol    Alpha    Beta     Spin     Total
       1     O     4.20314  4.20314  0.00000 -0.40628
       2     C     2.81172  2.81172  0.00000  0.37655
       3     C     3.13979  3.13979  0.00000 -0.27957
       4     O     4.14800  4.14800  0.00000 -0.29600
       5     H     0.44161  0.44161  0.00000  0.11677
       6     H     0.44234  0.44234  0.00000  0.11532
       7     H     0.44208  0.44208  0.00000  0.11584
       8     C     2.99428  2.99428  0.00000  0.01145
       9     C     3.08971  3.08971  0.00000 -0.17943
      10     H     0.44457  0.44457  0.00000  0.11087
      11     H     0.44912  0.44912  0.00000  0.10176
      12     C     3.08737  3.08737  0.00000 -0.17474
      13     H     0.45232  0.45232  0.00000  0.09537
      14     H     0.45033  0.45033  0.00000  0.09934
      15     C     3.08588  3.08588  0.00000 -0.17177
      16     H     0.45599  0.45599  0.00000  0.08803
      17     H     0.44549  0.44549  0.00000  0.10901
      18     C     3.14945  3.14945  0.00000 -0.29889
      19     H     0.45474  0.45474  0.00000  0.09052
      20     H     0.45418  0.45418  0.00000  0.09164
      21     H     0.45487  0.45487  0.00000  0.09027
      22     H     0.44811  0.44811  0.00000  0.10378
      23     H     0.45491  0.45491  0.00000  0.09017

   Total alpha = 36.00000, Total beta = 36.00000, Total charge = -0.00000

*** Psi4 exiting successfully. Buy a developer a beer!
