  ==> Input File <==

--------------------------------------------------------------------------
set {
	reference rhf
	basis cc-pvtz
}

set_num_threads( 4 )
memory 2 gb

molecule MOL {
0 1

H	 1.497864	 1.291595	 0.237596
C	 0.848385	 0.440008	 0.000011
C	 -0.623497	 0.751021	 0.000090
O	 1.318781	 -0.619575	 -0.230761
C	 -1.523725	 -0.474323	 -0.000013
H	 -0.813143	 1.382932	 -0.864897
H	 -0.813071	 1.382716	 0.865253
H	 -1.342980	 -1.087348	 -0.873016
H	 -2.565269	 -0.177464	 0.000070
H	 -1.342898	 -1.087564	 0.872820

	symmetry c1
}
set optking {
	frozen_dihedral = ("
		4 2 3 6
	")
}

ee = optimize('scf')
oeprop('DIPOLE', 'QUADRUPOLE', 'MULLIKEN_CHARGES')
f=open( 'psi4out.xyz', 'w' )
f.write( "10  " )
f.write( str(ee) + "\n" )
f.write( MOL.save_string_xyz() )
f.close()
--------------------------------------------------------------------------

    Molecular point group: c1
  Charge       = 0
  Multiplicity = 1
  Basis Set: CC-PVTZ
  Basis Set:
  @DF-RHF Final Energy:  -192.02439132444690
    Total Energy =                       -192.0243913244469240
    Molecular point group: c1
  Basis Set: CC-PVTZ
  Basis Set:
  Basis Set: CC-PVTZ
  Basis Set:
  @DF-RHF Final Energy:  -192.02358409785205
    Total Energy =                       -192.0235840978521082
  Basis Set: CC-PVTZ
  Basis Set:
  Basis Set: CC-PVTZ
  Basis Set:
  @DF-RHF Final Energy:  -192.02448973522559
    Total Energy =                       -192.0244897352256714
  Basis Set: CC-PVTZ
  Basis Set:
  Charge       = 0
  Multiplicity = 1
  Basis Set: CC-PVTZ
  Basis Set:

    Orbital Energies (a.u.)
    -----------------------

    Doubly Occupied:

       1A    -20.553691     2A    -11.323463     3A    -11.239688
       4A    -11.218226     5A     -1.409255     6A     -1.061638
       7A     -0.911208     8A     -0.774541     9A     -0.685915
      10A     -0.638156    11A     -0.632306    12A     -0.544995
      13A     -0.535603    14A     -0.519195    15A     -0.495721
      16A     -0.416785

  @DF-RHF Final Energy:  -192.02451352184426

   => Energetics <=

    Nuclear Repulsion Energy =            119.3527953352208328
    One-Electron Energy =                -496.8338424232914576
    Two-Electron Energy =                 185.4565335662264260
    DFT Exchange-Correlation Energy =       0.0000000000000000
    Empirical Dispersion Energy =           0.0000000000000000
    PCM Polarization Energy =               0.0000000000000000
    EFP Energy =                            0.0000000000000000
    Total Energy =                       -192.0245135218441987
    Molecular point group: c1
  Basis Set: CC-PVTZ
  Basis Set:

  -Total Gradient:
     Atom            X                  Y                   Z
    ------   -----------------  -----------------  -----------------
       1        0.000031814464     0.000010217019    -0.000013390599
       2       -0.000120166797    -0.000666485292     0.001989701249
       3        0.000327405331     0.001513547224     0.000165668636
       4        0.000032117764     0.000331655972    -0.001461313099
       5       -0.000018554170     0.000014402171     0.000085503695
       6       -0.000208959878    -0.001089890573    -0.000767180938
       7       -0.000010804823    -0.000052627561    -0.000017924225
       8        0.000007495518     0.000035729327     0.000012536160
       9       -0.000002673236    -0.000024587947    -0.000007525635
      10       -0.000037674173    -0.000071960340     0.000013924756

  **** Optimization is complete! (in 4 steps) ****
    Final optimized geometry and variables:
    Molecular point group: c1

    Geometry (in Angstrom), charge = 0, multiplicity = 1:

    H            1.505479756973     1.290698564705     0.249835242581
    C            0.848569316955     0.433461054036     0.057692402991
    C           -0.623673792679     0.747019786721     0.070648456628
    O            1.312261624630    -0.630326238255    -0.167368106766
    C           -1.522750396012    -0.480312469927     0.051124252933
    H           -0.806846101427     1.369819520641    -0.803383124660
    H           -0.824126969492     1.377058774074     0.932447836135
    H           -1.329660977489    -1.086375560731    -0.823248083736
    H           -2.564551095339    -0.184610305737     0.040908867196
    H           -1.353503266832    -1.099641016575     0.922832223047

  Mulliken Charges: (a.u.)
   Center  Symbol    Alpha    Beta     Spin     Total
       1     H     0.45346  0.45346  0.00000  0.09308
       2     C     2.91627  2.91627  0.00000  0.16745
       3     C     3.08366  3.08366  0.00000 -0.16731
       4     O     4.16484  4.16484  0.00000 -0.32967
       5     C     3.14092  3.14092  0.00000 -0.28184
       6     H     0.44815  0.44815  0.00000  0.10371
       7     H     0.44838  0.44838  0.00000  0.10324
       8     H     0.44533  0.44533  0.00000  0.10935
       9     H     0.44945  0.44945  0.00000  0.10109
      10     H     0.44955  0.44955  0.00000  0.10091

   Total alpha = 16.00000, Total beta = 16.00000, Total charge = -0.00000
