  ==> Input File <==

--------------------------------------------------------------------------
set {
	reference rhf
	basis 6-31G*
}

set_num_threads( 1 )
memory 2 gb

molecule MOL {
0 1

H	 0.368166	 3.442856	 0.066827
C	 0.506958	 2.831944	 0.967463
C	 -0.687688	 2.003179	 1.365685
O	 1.541050	 2.856286	 1.552110
C	 -1.220012	 1.144545	 0.209990
H	 -0.412997	 1.395479	 2.220059
H	 -1.465443	 2.695897	 1.684893
C	 -0.252658	 0.041456	 -0.226725
H	 -2.160759	 0.698139	 0.518213
H	 -1.453108	 1.785644	 -0.638783
C	 1.180775	 0.282413	 0.250794
H	 -0.266029	 -0.034465	 -1.312038
H	 -0.597733	 -0.921000	 0.146291
C	 2.148627	 -0.814315	 -0.201312
H	 1.516199	 1.249228	 -0.115937
H	 1.192670	 0.346017	 1.338083
C	 3.580890	 -0.659131	 0.322722
H	 2.166869	 -0.852443	 -1.289387
H	 1.762857	 -1.776509	 0.128956
C	 4.324889	 0.564933	 -0.213704
H	 4.142010	 -1.551473	 0.056605
H	 3.564836	 -0.624694	 1.410140
H	 4.342616	 0.565491	 -1.300421
H	 3.866655	 1.493402	 0.110242
H	 5.353900	 0.572371	 0.132816

	symmetry c1
}
set optking {
	frozen_dihedral = ("
		6 3 5 8,
		6 3 2 4,
		12 8 11 14,
		8 11 14 18,
		20 17 14 18
	")
}

ee = energy('scf')
oeprop('DIPOLE', 'QUADRUPOLE', 'MULLIKEN_CHARGES')
f=open( 'psi4out.xyz', 'w' )
f.write( "25  " )
f.write( str(ee) + "\n" )
f.write( MOL.save_string_xyz() )
f.close()
--------------------------------------------------------------------------

    Molecular point group: c1

    Geometry (in Angstrom), charge = 0, multiplicity = 1:

       Center              X                  Y                   Z               Mass
    ------------   -----------------  -----------------  -----------------  -----------------
           H         -0.894107096289     2.514222227868    -0.383579105597     1.007825032070
           C         -0.755315096289     1.903310227868     0.517056894403    12.000000000000
           C         -1.949961096289     1.074545227868     0.915278894403    12.000000000000
           O          0.278776903711     1.927652227868     1.101703894403    15.994914619560
           C         -2.482285096289     0.215911227868    -0.240416105597    12.000000000000
           H         -1.675270096289     0.466845227868     1.769652894403     1.007825032070
           H         -2.727716096289     1.767263227868     1.234486894403     1.007825032070
           C         -1.514931096289    -0.887177772132    -0.677131105597    12.000000000000
           H         -3.423032096289    -0.230494772132     0.067806894403     1.007825032070
           H         -2.715381096289     0.857010227868    -1.089189105597     1.007825032070
           C         -0.081498096289    -0.646220772132    -0.199612105597    12.000000000000
           H         -1.528302096289    -0.963098772132    -1.762444105597     1.007825032070
           H         -1.860006096289    -1.849633772132    -0.304115105597     1.007825032070
           C          0.886353903711    -1.742948772132    -0.651718105597    12.000000000000
           H          0.253925903711     0.320594227868    -0.566343105597     1.007825032070
           H         -0.069603096289    -0.582616772132     0.887676894403     1.007825032070
           C          2.318616903711    -1.587764772132    -0.127684105597    12.000000000000
           H          0.904595903711    -1.781076772132    -1.739793105597     1.007825032070
           H          0.500583903711    -2.705142772132    -0.321450105597     1.007825032070
           C          3.062615903711    -0.363700772132    -0.664110105597    12.000000000000
           H          2.879736903711    -2.480106772132    -0.393801105597     1.007825032070
           H          2.302562903711    -1.553327772132     0.959733894403     1.007825032070
           H          3.080342903711    -0.363142772132    -1.750827105597     1.007825032070
           H          2.604381903711     0.564768227868    -0.340164105597     1.007825032070
           H          4.091626903711    -0.356262772132    -0.317590105597     1.007825032070

  Charge       = 0
  Multiplicity = 1
  Basis Set: 6-31G*
  Basis Set:

    Orbital Energies (a.u.)
    -----------------------

    Doubly Occupied:

       1A    -20.557552     2A    -11.328169     3A    -11.235549
       4A    -11.233755     5A    -11.219946     6A    -11.210527
       7A    -11.209612     8A    -11.208866     9A    -11.199005
      10A     -1.402752    11A     -1.106105    12A     -1.061829
      13A     -1.002740    14A     -0.942235    15A     -0.879418
      16A     -0.812628    17A     -0.786435    18A     -0.774193
      19A     -0.666392    20A     -0.658051    21A     -0.629848
      22A     -0.626288    23A     -0.602406    24A     -0.587666
      25A     -0.559940    26A     -0.552329    27A     -0.540042
      28A     -0.525332    29A     -0.507578    30A     -0.499622
      31A     -0.471799    32A     -0.468014    33A     -0.455290
      34A     -0.441174    35A     -0.438026    36A     -0.408702

  @DF-RHF Final Energy:  -387.10075760874952

   => Energetics <=

    Nuclear Repulsion Energy =            471.8725661380200336
    One-Electron Energy =               -1460.3270733032038606
    Two-Electron Energy =                 601.3537495564339679
    DFT Exchange-Correlation Energy =       0.0000000000000000
    Empirical Dispersion Energy =           0.0000000000000000
    PCM Polarization Energy =               0.0000000000000000
    EFP Energy =                            0.0000000000000000
    Total Energy =                       -387.1007576087498592

  Mulliken Charges: (a.u.)
   Center  Symbol    Alpha    Beta     Spin     Total
       1     H     0.43000  0.43000  0.00000  0.13999
       2     C     2.83503  2.83503  0.00000  0.32995
       3     C     3.21104  3.21104  0.00000 -0.42207
       4     O     4.24203  4.24203  0.00000 -0.48407
       5     C     3.16850  3.16850  0.00000 -0.33701
       6     H     0.39833  0.39833  0.00000  0.20335
       7     H     0.40444  0.40444  0.00000  0.19111
       8     C     3.15167  3.15167  0.00000 -0.30333
       9     H     0.41025  0.41025  0.00000  0.17951
      10     H     0.41792  0.41792  0.00000  0.16415
      11     C     3.17332  3.17332  0.00000 -0.34663
      12     H     0.41888  0.41888  0.00000  0.16223
      13     H     0.41912  0.41912  0.00000  0.16176
      14     C     3.14969  3.14969  0.00000 -0.29938
      15     H     0.41243  0.41243  0.00000  0.17514
      16     H     0.41134  0.41134  0.00000  0.17733
      17     C     3.15105  3.15105  0.00000 -0.30210
      18     H     0.42601  0.42601  0.00000  0.14798
      19     H     0.42421  0.42421  0.00000  0.15158
      20     C     3.24572  3.24572  0.00000 -0.49144
      21     H     0.42301  0.42301  0.00000  0.15398
      22     H     0.42106  0.42106  0.00000  0.15788
      23     H     0.42594  0.42594  0.00000  0.14812
      24     H     0.40885  0.40885  0.00000  0.18231
      25     H     0.42016  0.42016  0.00000  0.15968

   Total alpha = 36.00000, Total beta = 36.00000, Total charge = -0.00000
