                              Psi4 1.0.54 Driver

  ==> Input File <==

--------------------------------------------------------------------------
set {
	reference rhf
	basis cc-pvtz
}

set_num_threads( 4 )
memory 2 gb

molecule MOL {
0 1

H	 1.784131	 -0.873609	 0.782048
C	 0.924588	 -0.962157	 0.133932
O	 0.000000	 0.000000	 0.518769
H	 1.245808	 -0.817021	 -0.895441
H	 0.517108	 -1.966627	 0.228037
C	 -1.165153	 0.000000	 -0.236961
H	 -1.229451	 0.882440	 -0.870223
H	 -2.002557	 0.000000	 0.445289
H	 -1.229451	 -0.882440	 -0.870223

	symmetry c1
}
set optking {
	frozen_dihedral = ("
		2 3 6 7
	")
}

ee,wfn = optimize('scf', return_wfn=True)
oeprop( wfn, 'DIPOLE', 'QUADRUPOLE', 'MULLIKEN_CHARGES')
f=open( 'psi4out.xyz', 'w' )
f.write( "9  " )
f.write( str(ee) + "\n" )
f.write( MOL.save_string_xyz() )
f.close()
--------------------------------------------------------------------------

    Molecular point group: c1
  Charge       = 0
  Multiplicity = 1
  Basis Set: CC-PVTZ
  Basis Set:
  @DF-RHF Final Energy:  -154.12338912216717
    Total Energy =                       -154.1233891221671968
    Molecular point group: c1
  Basis Set: CC-PVTZ
  Basis Set:
  Basis Set: CC-PVTZ
  Basis Set:
  @DF-RHF Final Energy:  -154.12366361628730
    Total Energy =                       -154.1236636162873310
  Basis Set: CC-PVTZ
  Basis Set:
  Basis Set: CC-PVTZ
  Basis Set:
  @DF-RHF Final Energy:  -154.12372794880383
    Total Energy =                       -154.1237279488038894
  Basis Set: CC-PVTZ
  Basis Set:
  Charge       = 0
  Multiplicity = 1
  Basis Set: CC-PVTZ
  Basis Set:

    Orbital Energies (a.u.)
    -----------------------

    Doubly Occupied:

       1A    -20.546846     2A    -11.263574     3A    -11.262650
       4A     -1.377950     5A     -0.975878     6A     -0.872527
       7A     -0.659071     8A     -0.654902     9A     -0.644861
      10A     -0.558226    11A     -0.528235    12A     -0.475497
      13A     -0.414942

  @DF-RHF Final Energy:  -154.12372845335710

   => Energetics <=

    Nuclear Repulsion Energy =             84.5869577304792557
    One-Electron Energy =                -376.9510555323788026
    Two-Electron Energy =                 138.2403693485425151
    DFT Exchange-Correlation Energy =       0.0000000000000000
    Empirical Dispersion Energy =           0.0000000000000000
    PCM Polarization Energy =               0.0000000000000000
    EFP Energy =                            0.0000000000000000
    Total Energy =                       -154.1237284533570460
    Molecular point group: c1
  Basis Set: CC-PVTZ
  Basis Set:

  -Total Gradient:
     Atom            X                  Y                   Z
    ------   -----------------  -----------------  -----------------
       1        0.000033051360    -0.000027046069    -0.000005382576
       2       -0.000383367473    -0.000883080642     0.000836284745
       3        0.000435685052     0.001418756650    -0.000901773303
       4       -0.000035053879     0.000003862620     0.000015193811
       5       -0.000035515983     0.000043536124    -0.000001939406
       6        0.000739014912    -0.001295400560    -0.001113807567
       7       -0.000740048083     0.000742523815     0.001184756141
       8       -0.000012496493    -0.000002471870    -0.000007882631
       9       -0.000001269413    -0.000000680066    -0.000005449212

  **** Optimization is complete! (in 4 steps) ****
    Final optimized geometry and variables:
    Molecular point group: c1

    Geometry (in Angstrom), charge = 0, multiplicity = 1:

    H            1.882022268577    -0.521642709814     0.646558807898
    C            1.028100149346    -0.620306225732    -0.008209790800
    O            0.081176697268     0.315766439019     0.389526159404
    H            1.355518438312    -0.453770900422    -1.032171052055
    H            0.644609572876    -1.634855147589     0.070263835755
    C           -1.101968252660     0.332180994654    -0.348465802498
    H           -1.161797671906     1.235244172418    -0.947247516883
    H           -1.944309698039     0.321926482002     0.332642749652
    H           -1.184841152588    -0.527686663989    -1.005234461229

  Mulliken Charges: (a.u.)
   Center  Symbol    Alpha    Beta     Spin     Total
       1     H     0.44977  0.44977  0.00000  0.10046
       2     C     3.02083  3.02083  0.00000 -0.04167
       3     O     4.17254  4.17254  0.00000 -0.34507
       4     H     0.47329  0.47329  0.00000  0.05342
       5     H     0.47283  0.47283  0.00000  0.05433
       6     C     3.01666  3.01666  0.00000 -0.03332
       7     H     0.46237  0.46237  0.00000  0.07527
       8     H     0.45713  0.45713  0.00000  0.08573
       9     H     0.47458  0.47458  0.00000  0.05085

   Total alpha = 13.00000, Total beta = 13.00000, Total charge = -0.00000

*** Psi4 exiting successfully. Buy a developer a beer!
