                              Psi4 1.0.54 Driver

  ==> Input File <==

--------------------------------------------------------------------------
set {
	reference rhf
	basis cc-pvtz
}

set_num_threads( 4 )
memory 2 gb

molecule MOL {
0 1

H	 -3.162190	 0.493205	 -0.000107
C	 -2.363908	 -0.234727	 0.000005
O	 -1.158738	 0.454634	 -0.000087
H	 -2.464314	 -0.863616	 -0.882153
H	 -2.464327	 -0.863359	 0.882345
C	 -0.028611	 -0.359694	 0.000037
C	 1.212847	 0.509314	 -0.000053
H	 -0.034155	 -1.007047	 -0.877198
H	 -0.034195	 -1.006836	 0.877430
C	 2.279427	 0.001138	 0.963541
H	 1.608275	 0.546649	 -1.009096
H	 0.925654	 1.521920	 0.260908
H	 2.599159	 -1.003024	 0.705632
H	 3.154094	 0.639547	 0.943214
H	 1.912084	 -0.020953	 1.984148

	symmetry c1
}
set optking {
	frozen_dihedral = ("
		11 7 6 8
	")
}

ee,wfn = optimize('scf', return_wfn=True)
oeprop( wfn, 'DIPOLE', 'QUADRUPOLE', 'MULLIKEN_CHARGES')
f=open( 'psi4out.xyz', 'w' )
f.write( "15  " )
f.write( str(ee) + "\n" )
f.write( MOL.save_string_xyz() )
f.close()
--------------------------------------------------------------------------

    Molecular point group: c1
  Charge       = 0
  Multiplicity = 1
  Basis Set: CC-PVTZ
  Basis Set:
  @DF-RHF Final Energy:  -232.22314641051534
    Total Energy =                       -232.2231464105155396
    Molecular point group: c1
  Basis Set: CC-PVTZ
  Basis Set:
  Basis Set: CC-PVTZ
  Basis Set:
  @DF-RHF Final Energy:  -232.22351323768004
    Total Energy =                       -232.2235132376800948
  Basis Set: CC-PVTZ
  Basis Set:
  Basis Set: CC-PVTZ
  Basis Set:
  @DF-RHF Final Energy:  -232.22361607886484
    Total Energy =                       -232.2236160788647226
  Basis Set: CC-PVTZ
  Basis Set:
  Basis Set: CC-PVTZ
  Basis Set:
  @DF-RHF Final Energy:  -232.22361888602268
    Total Energy =                       -232.2236188860226775
  Basis Set: CC-PVTZ
  Basis Set:
  Charge       = 0
  Multiplicity = 1
  Basis Set: CC-PVTZ
  Basis Set:

    Orbital Energies (a.u.)
    -----------------------

    Doubly Occupied:

       1A    -20.547086     2A    -11.264783     3A    -11.261261
       4A    -11.212731     5A    -11.209635     6A     -1.380546
       7A     -1.055512     8A     -0.955080     9A     -0.877544
      10A     -0.809405    11A     -0.674662    12A     -0.656477
      13A     -0.633112    14A     -0.601041    15A     -0.568920
      16A     -0.545245    17A     -0.496218    18A     -0.489711
      19A     -0.479905    20A     -0.462488    21A     -0.414980

  @DF-RHF Final Energy:  -232.22361949875918

   => Energetics <=

    Nuclear Repulsion Energy =            189.9658772677116474
    One-Electron Energy =                -691.1863127145295493
    Two-Electron Energy =                 268.9968159480587246
    DFT Exchange-Correlation Energy =       0.0000000000000000
    Empirical Dispersion Energy =           0.0000000000000000
    PCM Polarization Energy =               0.0000000000000000
    EFP Energy =                            0.0000000000000000
    Total Energy =                       -232.2236194987591489
    Molecular point group: c1
  Basis Set: CC-PVTZ
  Basis Set:

  -Total Gradient:
     Atom            X                  Y                   Z
    ------   -----------------  -----------------  -----------------
       1       -0.000004811679    -0.000007342650     0.000003451170
       2       -0.000048839845    -0.000008026717    -0.000005243751
       3        0.000080614612    -0.000044296477    -0.000002470731
       4       -0.000004821668     0.000001715764     0.000005472428
       5       -0.000005840395     0.000002399116    -0.000003458453
       6        0.002862642345    -0.004034640147     0.002570448085
       7       -0.003103976812     0.004482231952    -0.001357966483
       8       -0.001912843870     0.002682802494    -0.001942392579
       9        0.000010017268     0.000018495497    -0.000008562655
      10       -0.000006880230     0.000015537082     0.000016355085
      11        0.002128932359    -0.003084959691     0.000717672178
      12       -0.000003883538    -0.000016111383     0.000008022903
      13       -0.000007243725    -0.000002583867    -0.000001235251
      14        0.000001761637    -0.000001078724    -0.000002982344
      15        0.000015173539    -0.000004142249     0.000002890398

  **** Optimization is complete! (in 5 steps) ****
    Final optimized geometry and variables:
    Molecular point group: c1

    Geometry (in Angstrom), charge = 0, multiplicity = 1:

    H           -3.130608962763     0.424986867057    -0.229560777484
    C           -2.329998439569    -0.300572429081    -0.221574877618
    O           -1.127338059577     0.391269242569    -0.186230244882
    H           -2.409896201539    -0.918639114864    -1.113628363103
    H           -2.448473113668    -0.941480213066     0.649939027561
    C            0.006039358500    -0.425663848669    -0.161997498591
    C            1.257387909528     0.452001019333    -0.182703905194
    H           -0.017566852678    -1.079129046762    -1.032301368077
    H           -0.012897403900    -1.050856439769     0.729002670463
    C            2.357273776289    -0.062666724397     0.742715548426
    H            1.653711883809     0.496757461028    -1.190771020930
    H            0.969071064324     1.454410139707     0.103992063119
    H            2.648388090159    -1.076110202397     0.484738931267
    H            3.242678221290     0.558572861207     0.676884341708
    H            2.029091573194    -0.066804936241     1.776481500192

  Mulliken Charges: (a.u.)
   Center  Symbol    Alpha    Beta     Spin     Total
       1     H     0.44701  0.44701  0.00000  0.10598
       2     C     3.02945  3.02945  0.00000 -0.05891
       3     O     4.17218  4.17218  0.00000 -0.34436
       4     H     0.47230  0.47230  0.00000  0.05540
       5     H     0.47351  0.47351  0.00000  0.05298
       6     C     2.96137  2.96137  0.00000  0.07726
       7     C     3.08511  3.08511  0.00000 -0.17023
       8     H     0.47405  0.47405  0.00000  0.05189
       9     H     0.47421  0.47421  0.00000  0.05159
      10     C     3.15358  3.15358  0.00000 -0.30716
      11     H     0.45361  0.45361  0.00000  0.09278
      12     H     0.44483  0.44483  0.00000  0.11034
      13     H     0.45639  0.45639  0.00000  0.08721
      14     H     0.44831  0.44831  0.00000  0.10337
      15     H     0.45407  0.45407  0.00000  0.09186

   Total alpha = 21.00000, Total beta = 21.00000, Total charge = -0.00000

*** Psi4 exiting successfully. Buy a developer a beer!
