  ==> Input File <==

--------------------------------------------------------------------------
set {
	reference rhf
	basis 6-31G*
}

set_num_threads( 1 )
memory 2 gb

molecule MOL {
0 1

O	 0.625848	 1.349995	 -0.000749
C	 0.486307	 0.169203	 0.000779
C	 1.608116	 -0.841643	 0.000302
O	 -0.698257	 -0.426125	 0.001050
C	 2.990107	 -0.200498	 -0.000684
H	 1.468623	 -1.481519	 -0.865924
H	 1.469683	 -1.481289	 0.866878
H	 3.129736	 0.423364	 -0.875135
H	 3.757882	 -0.966877	 -0.001197
H	 3.130964	 0.423383	 0.873533
C	 -0.794772	 -1.698765	 0.632296
C	 -2.230185	 -2.162332	 0.501887
H	 -0.498506	 -1.601966	 1.667883
H	 -0.108410	 -2.383223	 0.152698
H	 -2.905348	 -1.463497	 0.982454
H	 -2.349010	 -3.133192	 0.971951
H	 -2.513206	 -2.249124	 -0.541005

	symmetry c1
}
set optking {
	frozen_dihedral = ("
		2 4 11 13,
		4 2 3 6
	")
}

ee = energy('scf')
oeprop('DIPOLE', 'QUADRUPOLE', 'MULLIKEN_CHARGES')
f=open( 'psi4out.xyz', 'w' )
f.write( "17  " )
f.write( str(ee) + "\n" )
f.write( MOL.save_string_xyz() )
f.close()
--------------------------------------------------------------------------

    Molecular point group: c1

    Geometry (in Angstrom), charge = 0, multiplicity = 1:

       Center              X                  Y                   Z               Mass
    ------------   -----------------  -----------------  -----------------  -----------------
           O          0.349807088499     1.899177619080    -0.166101401161    15.994914619560
           C          0.210266088499     0.718385619080    -0.164573401161    12.000000000000
           C          1.332075088499    -0.292460380920    -0.165050401161    12.000000000000
           O         -0.974297911501     0.123057619080    -0.164302401161    15.994914619560
           C          2.714066088499     0.348684619080    -0.166036401161    12.000000000000
           H          1.192582088499    -0.932336380920    -1.031276401161     1.007825032070
           H          1.193642088499    -0.932106380920     0.701525598839     1.007825032070
           H          2.853695088499     0.972546619080    -1.040487401161     1.007825032070
           H          3.481841088499    -0.417694380920    -0.166549401161     1.007825032070
           H          2.854923088499     0.972565619080     0.708180598839     1.007825032070
           C         -1.070812911501    -1.149582380920     0.466943598839    12.000000000000
           C         -2.506225911501    -1.613149380920     0.336534598839    12.000000000000
           H         -0.774546911501    -1.052783380920     1.502530598839     1.007825032070
           H         -0.384450911501    -1.834040380920    -0.012654401161     1.007825032070
           H         -3.181388911501    -0.914314380920     0.817101598839     1.007825032070
           H         -2.625050911501    -2.584009380920     0.806598598839     1.007825032070
           H         -2.789246911501    -1.699941380920    -0.706357401161     1.007825032070

  Charge       = 0
  Multiplicity = 1
  Basis Set: 6-31G*
  Basis Set:

    Orbital Energies (a.u.)
    -----------------------

    Doubly Occupied:

       1A    -20.599770     2A    -20.545685     3A    -11.373367
       4A    -11.301057     5A    -11.242683     6A    -11.229662
       7A    -11.218844     8A     -1.465286     9A     -1.368260
      10A     -1.064277    11A     -1.049769    12A     -0.905003
      13A     -0.886097    14A     -0.769571    15A     -0.707085
      16A     -0.697566    17A     -0.659196    18A     -0.635580
      19A     -0.597700    20A     -0.572718    21A     -0.560153
      22A     -0.543261    23A     -0.528036    24A     -0.516872
      25A     -0.512896    26A     -0.494195    27A     -0.450151
      28A     -0.429768

  @DF-RHF Final Energy:  -344.88667592528890

   => Energetics <=

    Nuclear Repulsion Energy =            318.3530634544849249
    One-Electron Energy =               -1100.6304375511497256
    Two-Electron Energy =                 437.3906981713764708
    DFT Exchange-Correlation Energy =       0.0000000000000000
    Empirical Dispersion Energy =           0.0000000000000000
    PCM Polarization Energy =               0.0000000000000000
    EFP Energy =                            0.0000000000000000
    Total Energy =                       -344.8866759252882730

  Mulliken Charges: (a.u.)
   Center  Symbol    Alpha    Beta     Spin     Total
       1     O     4.26977  4.26977  0.00000 -0.53955
       2     C     2.59461  2.59461  0.00000  0.81078
       3     C     3.23990  3.23990  0.00000 -0.47979
       4     O     4.30592  4.30592  0.00000 -0.61184
       5     C     3.23460  3.23460  0.00000 -0.46920
       6     H     0.39885  0.39885  0.00000  0.20231
       7     H     0.40156  0.40156  0.00000  0.19687
       8     H     0.40794  0.40794  0.00000  0.18411
       9     H     0.41958  0.41958  0.00000  0.16085
      10     H     0.40921  0.40921  0.00000  0.18159
      11     C     3.01570  3.01570  0.00000 -0.03140
      12     C     3.24463  3.24463  0.00000 -0.48926
      13     H     0.41290  0.41290  0.00000  0.17420
      14     H     0.41357  0.41357  0.00000  0.17286
      15     H     0.40570  0.40570  0.00000  0.18860
      16     H     0.41735  0.41735  0.00000  0.16529
      17     H     0.40821  0.40821  0.00000  0.18358

   Total alpha = 28.00000, Total beta = 28.00000, Total charge = -0.00000
