  ==> Input File <==

--------------------------------------------------------------------------
set {
	reference rhf
	basis 6-31G*
}

set_num_threads( 4 )
memory 2 gb

molecule MOL {
0 1

O	 0.841550	 1.899867	 -0.435920
C	 0.015968	 1.879419	 -1.290927
C	 -1.254633	 1.065283	 -1.265469
O	 0.109367	 2.589655	 -2.407984
C	 -1.412532	 0.227344	 -0.000452
H	 -2.085007	 1.755619	 -1.386588
H	 -1.257825	 0.440513	 -2.154518
C	 -2.706999	 -0.587347	 -0.000541
H	 -1.388285	 0.879731	 0.866905
H	 -0.559610	 -0.436967	 0.098131
C	 -3.956778	 0.291888	 0.000910
H	 -2.726114	 -1.239230	 -0.871609
H	 -2.725217	 -1.240844	 0.869333
H	 -3.985213	 0.933254	 -0.875158
H	 -4.860123	 -0.309979	 0.000519
H	 -3.984618	 0.931166	 0.878514
C	 1.259672	 3.401517	 -2.559048
H	 1.314176	 4.134475	 -1.767032
H	 1.152164	 3.890767	 -3.514572
H	 2.155479	 2.797470	 -2.546256

	symmetry c1
}
set optking {
	frozen_dihedral = ("
		9 5 8 12
	")
}

ee = optimize('scf')
oeprop('DIPOLE', 'QUADRUPOLE', 'MULLIKEN_CHARGES')
f=open( 'psi4out.xyz', 'w' )
f.write( "20  " )
f.write( str(ee) + "\n" )
f.write( MOL.save_string_xyz() )
f.close()
--------------------------------------------------------------------------

    Molecular point group: c1
  Charge       = 0
  Multiplicity = 1
  Basis Set: 6-31G*
  Basis Set:
  @DF-RHF Final Energy:  -383.93932695327572
    Total Energy =                       -383.9393269532753266
    Molecular point group: c1
  Basis Set: 6-31G*
  Basis Set:
  Basis Set: 6-31G*
  Basis Set:
  @DF-RHF Final Energy:  -383.93969067918670
    Total Energy =                       -383.9396906791866968
  Basis Set: 6-31G*
  Basis Set:
  Basis Set: 6-31G*
  Basis Set:
  @DF-RHF Final Energy:  -383.94005598917153
    Total Energy =                       -383.9400559891712419
  Basis Set: 6-31G*
  Basis Set:
  Basis Set: 6-31G*
  Basis Set:
  @DF-RHF Final Energy:  -383.94003300756532
    Total Energy =                       -383.9400330075651482
  Basis Set: 6-31G*
  Basis Set:
  Basis Set: 6-31G*
  Basis Set:
  @DF-RHF Final Energy:  -383.94003138252378
    Total Energy =                       -383.9400313825237845
  Basis Set: 6-31G*
  Basis Set:
  Basis Set: 6-31G*
  Basis Set:
  @DF-RHF Final Energy:  -383.94007719519601
    Total Energy =                       -383.9400771951961815
  Basis Set: 6-31G*
  Basis Set:
  Charge       = 0
  Multiplicity = 1
  Basis Set: 6-31G*
  Basis Set:

    Orbital Energies (a.u.)
    -----------------------

    Doubly Occupied:

       1A    -20.603666     2A    -20.545509     3A    -11.372388
       4A    -11.280878     5A    -11.235269     6A    -11.220546
       7A    -11.219487     8A    -11.212697     9A     -1.469387
      10A     -1.362842    11A     -1.088698    12A     -1.022616
      13A     -0.967847    14A     -0.894897    15A     -0.799903
      16A     -0.764351    17A     -0.701459    18A     -0.682823
      19A     -0.672107    20A     -0.634508    21A     -0.611074
      22A     -0.594994    23A     -0.569712    24A     -0.548757
      25A     -0.534151    26A     -0.522966    27A     -0.508934
      28A     -0.473586    29A     -0.471945    30A     -0.467785
      31A     -0.455719    32A     -0.437743

  @DF-RHF Final Energy:  -383.94007740005156

   => Energetics <=

    Nuclear Repulsion Energy =            384.7389390783506542
    One-Electron Energy =               -1285.4595456332765480
    Two-Electron Energy =                 516.7805291548743298
    DFT Exchange-Correlation Energy =       0.0000000000000000
    Empirical Dispersion Energy =           0.0000000000000000
    PCM Polarization Energy =               0.0000000000000000
    EFP Energy =                            0.0000000000000000
    Total Energy =                       -383.9400774000515639
    Molecular point group: c1
  Basis Set: 6-31G*
  Basis Set:

  -Total Gradient:
     Atom            X                  Y                   Z
    ------   -----------------  -----------------  -----------------
       1       -0.000004815835     0.000001977976     0.000003477469
       2       -0.000002920065     0.000006121076    -0.000000004849
       3        0.000014343378    -0.000016834445     0.000001135897
       4        0.000002512895    -0.000007956156    -0.000001897278
       5        0.000015039098    -0.000018426712     0.000013325416
       6       -0.000002975669     0.000008739238     0.000005131717
       7       -0.000007548577     0.000006071715     0.000006670800
       8        0.000018936446    -0.000022786159     0.000030619304
       9       -0.000018976478     0.000023785756    -0.000032863857
      10        0.000013650486    -0.000003552217     0.000002083056
      11       -0.000004049798    -0.000005827244    -0.000006337107
      12       -0.000021430284     0.000032053846    -0.000018126671
      13       -0.000001641933    -0.000006621609     0.000001622454
      14       -0.000003188445     0.000002285311    -0.000000031321
      15       -0.000003470398     0.000001493659    -0.000000466688
      16        0.000004402760    -0.000003208670    -0.000002063740
      17        0.000001679779     0.000000792261    -0.000002639824
      18       -0.000000300493    -0.000000272458     0.000000247204
      19        0.000000938224     0.000001042863     0.000000029047
      20       -0.000000185095     0.000001121968     0.000000088968

  **** Optimization is complete! (in 7 steps) ****
    Final optimized geometry and variables:
    Molecular point group: c1

    Geometry (in Angstrom), charge = 0, multiplicity = 1:

    O            1.728033868121     0.493601635905     0.560497597561
    C            0.893244165151     0.512193940816    -0.285549214142
    C           -0.405569440933    -0.256561922158    -0.257074403563
    O            1.000017019560     1.232549729861    -1.395076592646
    C           -0.575562370528    -1.100674219061     1.003989825497
    H           -1.205991527911     0.466998562177    -0.372409241391
    H           -0.434557051276    -0.876097471471    -1.149749050212
    C           -1.846465548474    -1.956791025631     1.003253477228
    H           -0.571795143283    -0.450448939343     1.873673500824
    H            0.289523222876    -1.746606609357     1.108365840233
    C           -3.151650178587    -1.159528889132     1.043322101907
    H           -1.846003222318    -2.606631230898     0.130276075752
    H           -1.812543531160    -2.613470779610     1.868432194031
    H           -3.289890575167    -0.556803564307     0.151293464988
    H           -4.006437901373    -1.824186893705     1.119417803577
    H           -3.174861155027    -0.492647830713     1.900867817027
    C            2.176973683424     2.004605612746    -1.549203300684
    H            2.266297849619     2.725194300179    -0.749030095143
    H            2.076758691782     2.509310455343    -2.497465001266
    H            3.050671211948     1.368879639834    -1.553833925546

  Mulliken Charges: (a.u.)
   Center  Symbol    Alpha    Beta     Spin     Total
       1     O     4.28584  4.28584  0.00000 -0.57167
       2     C     2.60513  2.60513  0.00000  0.78973
       3     C     3.20944  3.20944  0.00000 -0.41888
       4     O     4.30731  4.30731  0.00000 -0.61463
       5     C     3.15312  3.15312  0.00000 -0.30625
       6     H     0.39897  0.39897  0.00000  0.20206
       7     H     0.40117  0.40117  0.00000  0.19766
       8     C     3.15589  3.15589  0.00000 -0.31177
       9     H     0.41312  0.41312  0.00000  0.17375
      10     H     0.40913  0.40913  0.00000  0.18174
      11     C     3.24256  3.24256  0.00000 -0.48511
      12     H     0.42308  0.42308  0.00000  0.15385
      13     H     0.41709  0.41709  0.00000  0.16583
      14     H     0.42154  0.42154  0.00000  0.15692
      15     H     0.41737  0.41737  0.00000  0.16525
      16     H     0.42025  0.42025  0.00000  0.15951
      17     C     3.09241  3.09241  0.00000 -0.18483
      18     H     0.40905  0.40905  0.00000  0.18190
      19     H     0.40845  0.40845  0.00000  0.18309
      20     H     0.40908  0.40908  0.00000  0.18184

   Total alpha = 32.00000, Total beta = 32.00000, Total charge =  0.00000
