  ==> Input File <==

--------------------------------------------------------------------------
set {
	reference rhf
	basis 6-31G*
}

set_num_threads( 4 )
memory 2 gb

molecule MOL {
0 1

H	 -1.828699	 -1.624680	 -0.019483
C	 -1.467756	 -1.190540	 -0.947063
O	 -0.774054	 0.001095	 -0.743181
H	 -2.323289	 -0.947090	 -1.562795
H	 -0.872427	 -1.933037	 -1.470011
C	 0.406953	 0.000033	 0.038965
C	 1.527284	 -0.003667	 -0.998752
C	 0.498933	 1.262172	 0.902524
C	 0.494271	 -1.259566	 0.906664
H	 1.452513	 0.873252	 -1.631882
H	 1.448863	 -0.881882	 -1.629595
H	 2.502020	 -0.005104	 -0.521731
H	 0.364280	 2.147110	 0.289513
H	 1.472180	 1.321775	 1.378800
H	 -0.247853	 1.275162	 1.689097
H	 0.356778	 -2.146106	 0.296587
H	 1.467182	 -1.320941	 1.383330
H	 -0.252763	 -1.267328	 1.693119

	symmetry c1
}
set optking {
	frozen_dihedral = ("
		2 3 6 7
	")
}

ee = optimize('scf')
oeprop('DIPOLE', 'QUADRUPOLE', 'MULLIKEN_CHARGES')
f=open( 'psi4out.xyz', 'w' )
f.write( "18  " )
f.write( str(ee) + "\n" )
f.write( MOL.save_string_xyz() )
f.close()
--------------------------------------------------------------------------

    Molecular point group: c1
  Charge       = 0
  Multiplicity = 1
  Basis Set: 6-31G*
  Basis Set:
  @DF-RHF Final Energy:  -271.16767170716304
    Total Energy =                       -271.1676717071629810
    Molecular point group: c1
  Basis Set: 6-31G*
  Basis Set:
  Basis Set: 6-31G*
  Basis Set:
  @DF-RHF Final Energy:  -271.17012808389620
    Total Energy =                       -271.1701280838961452
  Basis Set: 6-31G*
  Basis Set:
  Basis Set: 6-31G*
  Basis Set:
  @DF-RHF Final Energy:  -271.17247554288309
    Total Energy =                       -271.1724755428832623
  Basis Set: 6-31G*
  Basis Set:
  Basis Set: 6-31G*
  Basis Set:
  @DF-RHF Final Energy:  -271.17265686035927
    Total Energy =                       -271.1726568603592114
  Basis Set: 6-31G*
  Basis Set:
  Basis Set: 6-31G*
  Basis Set:
  @DF-RHF Final Energy:  -271.17273260135698
    Total Energy =                       -271.1727326013570405
  Basis Set: 6-31G*
  Basis Set:
  Basis Set: 6-31G*
  Basis Set:
  @DF-RHF Final Energy:  -271.17275246896958
    Total Energy =                       -271.1727524689696338
  Basis Set: 6-31G*
  Basis Set:
  Charge       = 0
  Multiplicity = 1
  Basis Set: 6-31G*
  Basis Set:

    Orbital Energies (a.u.)
    -----------------------

    Doubly Occupied:

       1A    -20.544722     2A    -11.281522     3A    -11.261886
       4A    -11.213480     5A    -11.204497     6A    -11.202853
       7A     -1.367618     8A     -1.073670     9A     -0.950557
      10A     -0.934829    11A     -0.911719    12A     -0.751574
      13A     -0.656268    14A     -0.645747    15A     -0.637160
      16A     -0.585259    17A     -0.575200    18A     -0.550237
      19A     -0.538859    20A     -0.525709    21A     -0.514855
      22A     -0.490100    23A     -0.483585    24A     -0.441786
      25A     -0.397794

  @DF-RHF Final Energy:  -271.17275295100387

   => Energetics <=

    Nuclear Repulsion Energy =            271.9454237695284746
    One-Electron Energy =                -906.7533857800285659
    Two-Electron Energy =                 363.6352090594962192
    DFT Exchange-Correlation Energy =       0.0000000000000000
    Empirical Dispersion Energy =           0.0000000000000000
    PCM Polarization Energy =               0.0000000000000000
    EFP Energy =                            0.0000000000000000
    Total Energy =                       -271.1727529510038721
    Molecular point group: c1
  Basis Set: 6-31G*
  Basis Set:

  -Total Gradient:
     Atom            X                  Y                   Z
    ------   -----------------  -----------------  -----------------
       1        0.000015467146     0.000013611846     0.000095266248
       2       -0.001553264638     0.000415106130     0.002837152285
       3        0.002491275927     0.000247641305    -0.004171847110
       4        0.000017798579     0.000037046383    -0.000004724708
       5       -0.000039506923     0.000033928623    -0.000004784834
       6       -0.000786006216    -0.003416942096     0.001176836271
       7        0.000142206172     0.002712758363     0.000114475633
       8       -0.000176239716    -0.000029551427    -0.000019426504
       9       -0.000064662532    -0.000007128093    -0.000017388436
      10        0.000001790775    -0.000033517217    -0.000010643647
      11        0.000009779054     0.000004503167     0.000006303738
      12        0.000040445116     0.000018750016    -0.000018147573
      13       -0.000025912310     0.000051073474     0.000020900717
      14       -0.000025155452    -0.000060990030    -0.000095466077
      15        0.000022722028    -0.000009431355     0.000063093788
      16        0.000010063944     0.000031970640     0.000018564998
      17       -0.000026504414     0.000018616877    -0.000017264854
      18       -0.000054296541    -0.000027446608     0.000027100065

  **** Optimization is complete! (in 7 steps) ****
    Final optimized geometry and variables:
    Molecular point group: c1

    Geometry (in Angstrom), charge = 0, multiplicity = 1:

    H           -2.015276208740    -1.365308468291     0.121807411531
    C           -1.638983715945    -0.912773765138    -0.790154313991
    O           -0.890855476916     0.236197872218    -0.546184598879
    H           -2.483913596878    -0.605039973205    -1.391863305656
    H           -1.082382730684    -1.663580730796    -1.346329541262
    C            0.338097947751     0.168284755657     0.164326489543
    C            1.470570787763     0.200883173036    -0.864668267554
    C            0.366367431113     1.439597688329     1.012589651992
    C            0.459562761318    -1.058210555502     1.071998361683
    H            1.373964760381     1.079999631717    -1.491154448521
    H            1.434566740047    -0.674313325350    -1.506842358051
    H            2.443340746378     0.223910132131    -0.382727228086
    H            0.229187745271     2.310080067928     0.381275184438
    H            1.310943417103     1.539803709091     1.538239290032
    H           -0.435721424683     1.424508772272     1.742711720835
    H            0.469169639673    -1.986752634864     0.512159833568
    H            1.390722528501    -1.001520926360     1.625240515040
    H           -0.350698483984    -1.098907577673     1.792078133013

  Mulliken Charges: (a.u.)
   Center  Symbol    Alpha    Beta     Spin     Total
       1     H     0.42870  0.42870  0.00000  0.14260
       2     C     3.07635  3.07635  0.00000 -0.15270
       3     O     4.32333  4.32333  0.00000 -0.64666
       4     H     0.41250  0.41250  0.00000  0.17499
       5     H     0.43203  0.43203  0.00000  0.13594
       6     C     2.84061  2.84061  0.00000  0.31877
       7     C     3.23404  3.23404  0.00000 -0.46808
       8     C     3.23171  3.23171  0.00000 -0.46343
       9     C     3.25720  3.25720  0.00000 -0.51441
      10     H     0.41336  0.41336  0.00000  0.17328
      11     H     0.42164  0.42164  0.00000  0.15671
      12     H     0.42517  0.42517  0.00000  0.14965
      13     H     0.41299  0.41299  0.00000  0.17402
      14     H     0.42602  0.42602  0.00000  0.14795
      15     H     0.41821  0.41821  0.00000  0.16357
      16     H     0.41693  0.41693  0.00000  0.16614
      17     H     0.41473  0.41473  0.00000  0.17054
      18     H     0.41445  0.41445  0.00000  0.17111

   Total alpha = 25.00000, Total beta = 25.00000, Total charge =  0.00000
