                              Psi4 1.0.54 Driver

  ==> Input File <==

--------------------------------------------------------------------------
set {
	reference rhf
	basis cc-pvtz
}

set_num_threads( 4 )
memory 2 gb

molecule MOL {
0 1

H	 -3.436473	 1.252944	 -1.023892
O	 -3.458596	 0.315260	 -0.960865
C	 -3.176635	 -0.080824	 0.355601
C	 -1.763371	 0.265266	 0.799691
H	 -3.321825	 -1.153438	 0.379502
H	 -3.895468	 0.357385	 1.043382
C	 -0.673390	 -0.426948	 -0.013392
H	 -1.631049	 1.344913	 0.747560
H	 -1.664587	 -0.001624	 1.849167
C	 0.737842	 -0.043159	 0.423759
H	 -0.806103	 -0.190518	 -1.063345
H	 -0.797221	 -1.503753	 0.074146
C	 1.824000	 -0.743224	 -0.390623
H	 0.850588	 1.033777	 0.343840
H	 0.868587	 -0.286314	 1.476203
C	 3.255957	 -0.453067	 0.062319
H	 1.718250	 -0.470599	 -1.438164
H	 1.658105	 -1.815850	 -0.339904
C	 3.376956	 0.104053	 1.478695
H	 3.696737	 0.258436	 -0.629239
H	 3.848596	 -1.360542	 -0.019458
H	 2.789288	 1.009513	 1.592125
H	 4.407569	 0.349635	 1.708407
H	 3.038359	 -0.605269	 2.224228

	symmetry c1
}
set optking {
	frozen_dihedral = ("
		20 16 13 17
	")
}

ee,wfn = optimize('scf', return_wfn=True)
oeprop( wfn, 'DIPOLE', 'QUADRUPOLE', 'MULLIKEN_CHARGES')
f=open( 'psi4out.xyz', 'w' )
f.write( "24  " )
f.write( str(ee) + "\n" )
f.write( MOL.save_string_xyz() )
f.close()
--------------------------------------------------------------------------

    Molecular point group: c1
  Charge       = 0
  Multiplicity = 1
  Basis Set: CC-PVTZ
  Basis Set:
  @DF-RHF Final Energy:  -349.37219435179844
    Total Energy =                       -349.3721943517985551
    Molecular point group: c1
  Basis Set: CC-PVTZ
  Basis Set:
  Basis Set: CC-PVTZ
  Basis Set:
  @DF-RHF Final Energy:  -349.36266956929336
    Total Energy =                       -349.3626695692933026
  Basis Set: CC-PVTZ
  Basis Set:
  Basis Set: CC-PVTZ
  Basis Set:
  @DF-RHF Final Energy:  -349.37391090468901
    Total Energy =                       -349.3739109046892963
  Basis Set: CC-PVTZ
  Basis Set:
  Basis Set: CC-PVTZ
  Basis Set:
  @DF-RHF Final Energy:  -349.37439568945655
    Total Energy =                       -349.3743956894560370
  Basis Set: CC-PVTZ
  Basis Set:
  @DF-RHF Final Energy:  -349.37440132179898
    Total Energy =                       -349.3744013217989277
  Basis Set: CC-PVTZ
  Basis Set:
  @DF-RHF Final Energy:  -349.37444933272127
    Total Energy =                       -349.3744493327212695
  Basis Set: CC-PVTZ
  Basis Set:
  Basis Set: CC-PVTZ
  Basis Set:
  @DF-RHF Final Energy:  -349.37445043512236
    Total Energy =                       -349.3744504351222986
  Basis Set: CC-PVTZ
  Basis Set:
  Basis Set: CC-PVTZ
  Basis Set:
  @DF-RHF Final Energy:  -349.37445263001729
    Total Energy =                       -349.3744526300172879
  Basis Set: CC-PVTZ
  Basis Set:
  Charge       = 0
  Multiplicity = 1
  Basis Set: CC-PVTZ
  Basis Set:

    Orbital Energies (a.u.)
    -----------------------

    Doubly Occupied:

       1A    -20.546182     2A    -11.265379     3A    -11.214959
       4A    -11.212124     5A    -11.210008     6A    -11.209400
       7A    -11.208560     8A    -11.205730     9A     -1.364021
      10A     -1.088421    11A     -1.047394    12A     -0.986140
      13A     -0.916377    14A     -0.854592    15A     -0.802644
      16A     -0.769462    17A     -0.681663    18A     -0.657592
      19A     -0.628647    20A     -0.618800    21A     -0.593130
      22A     -0.587481    23A     -0.554582    24A     -0.545978
      25A     -0.518481    26A     -0.506233    27A     -0.503702
      28A     -0.471190    29A     -0.469873    30A     -0.460344
      31A     -0.452257    32A     -0.447492    33A     -0.420724

  @DF-RHF Final Energy:  -349.37445276787855

   => Energetics <=

    Nuclear Repulsion Energy =            385.5165703539461219
    One-Electron Energy =               -1237.7429235727047399
    Two-Electron Energy =                 502.8519004508803505
    DFT Exchange-Correlation Energy =       0.0000000000000000
    Empirical Dispersion Energy =           0.0000000000000000
    PCM Polarization Energy =               0.0000000000000000
    EFP Energy =                            0.0000000000000000
    Total Energy =                       -349.3744527678782674
    Molecular point group: c1
  Basis Set: CC-PVTZ
  Basis Set:

  -Total Gradient:
     Atom            X                  Y                   Z
    ------   -----------------  -----------------  -----------------
       1       -0.000000175032    -0.000000404549     0.000001242006
       2       -0.000000469632    -0.000007068825     0.000003270783
       3       -0.000005934615     0.000010240790    -0.000002188718
       4        0.000006987830    -0.000002227583    -0.000003889185
       5        0.000000518278     0.000002579091    -0.000005856792
       6       -0.000004562233    -0.000000656024     0.000001408619
       7       -0.000002375021    -0.000007775068     0.000005902205
       8       -0.000000363792     0.000001544602     0.000003477068
       9        0.000000716717    -0.000000937392    -0.000004722825
      10        0.000010395933     0.000005290643     0.000004570377
      11       -0.000001234592    -0.000002865811     0.000002833760
      12       -0.000003317491    -0.000002113698    -0.000000971950
      13        0.002224855650    -0.008284176143    -0.001061018613
      14        0.000002220316    -0.000005473814     0.000001465686
      15        0.000004606186     0.000000492705    -0.000001324214
      16       -0.002447914323     0.007760346705     0.003068714093
      17       -0.001495470839     0.005794861445     0.000404044428
      18       -0.000001049802     0.000004347910     0.000001265764
      19       -0.000008486837    -0.000000171184    -0.000005645751
      20        0.001724135509    -0.005265639545    -0.002413056995
      21       -0.000003885646    -0.000000233535    -0.000004232058
      22        0.000002130559     0.000000836990     0.000002436174
      23       -0.000001389893    -0.000001743876     0.000001488572
      24        0.000000062772     0.000000946167     0.000000787565

  **** Optimization is complete! (in 9 steps) ****
    Final optimized geometry and variables:
    Molecular point group: c1

    Geometry (in Angstrom), charge = 0, multiplicity = 1:

    H           -3.322498855171     1.262033587584    -1.528507221773
    O           -3.400921093472     0.361419157228    -1.270789740604
    C           -3.155751014470     0.236587362991     0.105301470591
    C           -1.728703137444     0.588636893292     0.497802888130
    H           -3.364706034538    -0.797116668031     0.350170554773
    H           -3.854054048104     0.849330027339     0.669875152738
    C           -0.673807598914    -0.318631972990    -0.128769864788
    H           -1.532205030677     1.624155688387     0.223900095197
    H           -1.656042961834     0.543191784872     1.581755285728
    C            0.753518632077     0.069549916839     0.248659913727
    H           -0.784156858258    -0.302827753391    -1.207358550718
    H           -0.861297504117    -1.344223723720     0.180997584079
    C            1.796240886142    -0.859703149975    -0.377221290078
    H            0.939345733332     1.092203786526    -0.071252731497
    H            0.848183560758     0.066794554785     1.329995617913
    C            3.274084343579    -0.496122375280    -0.112334542506
    H            1.626695145184    -0.828457807473    -1.448716307267
    H            1.600843037852    -1.874341713551    -0.046553482420
    C            3.581734630449     0.272788212637     1.168850348375
    H            3.674509149088     0.030365481327    -0.972903569854
    H            3.840182566747    -1.423074811743    -0.086937021960
    H            3.115131292445     1.249952090765     1.183114121069
    H            4.651278034455     0.419457627653     1.267229886104
    H            3.244537181873    -0.267913186985     2.046731984077

  Mulliken Charges: (a.u.)
   Center  Symbol    Alpha    Beta     Spin     Total
       1     H     0.39533  0.39533  0.00000  0.20933
       2     O     4.20375  4.20375  0.00000 -0.40750
       3     C     2.97781  2.97781  0.00000  0.04439
       4     C     3.10166  3.10166  0.00000 -0.20333
       5     H     0.45881  0.45881  0.00000  0.08238
       6     H     0.46030  0.46030  0.00000  0.07940
       7     C     3.08922  3.08922  0.00000 -0.17844
       8     H     0.45927  0.45927  0.00000  0.08145
       9     H     0.45345  0.45345  0.00000  0.09311
      10     C     3.09132  3.09132  0.00000 -0.18263
      11     H     0.44608  0.44608  0.00000  0.10783
      12     H     0.45560  0.45560  0.00000  0.08880
      13     C     3.09615  3.09615  0.00000 -0.19231
      14     H     0.45452  0.45452  0.00000  0.09097
      15     H     0.45293  0.45293  0.00000  0.09415
      16     C     3.08819  3.08819  0.00000 -0.17637
      17     H     0.45166  0.45166  0.00000  0.09668
      18     H     0.45154  0.45154  0.00000  0.09692
      19     C     3.15705  3.15705  0.00000 -0.31410
      20     H     0.45222  0.45222  0.00000  0.09556
      21     H     0.45231  0.45231  0.00000  0.09538
      22     H     0.45245  0.45245  0.00000  0.09511
      23     H     0.44482  0.44482  0.00000  0.11036
      24     H     0.45357  0.45357  0.00000  0.09287

   Total alpha = 33.00000, Total beta = 33.00000, Total charge = -0.00000

*** Psi4 exiting successfully. Buy a developer a beer!
