  ==> Input File <==

--------------------------------------------------------------------------
set {
	reference rhf
	basis 6-31G*
}

set_num_threads( 1 )
memory 2 gb

molecule MOL {
0 1

H	 2.163406	 -1.302519	 -0.318445
N	 2.434251	 -0.367735	 -0.081097
C	 1.267428	 0.496480	 0.024474
H	 3.042734	 -0.048540	 -0.811014
C	 -0.016086	 -0.325158	 -0.029487
H	 1.288818	 1.183521	 -0.816092
H	 1.267576	 1.109062	 0.929528
C	 -1.282277	 0.529072	 0.046735
H	 -0.012495	 -0.908639	 -0.945788
H	 -0.015903	 -1.041248	 0.791956
C	 -2.563920	 -0.301775	 -0.006060
H	 -1.284084	 1.244622	 -0.773004
H	 -1.271387	 1.115393	 0.963286
H	 -2.621848	 -0.873522	 -0.927727
H	 -3.445135	 0.329952	 0.047812
H	 -2.609542	 -1.004582	 0.821105

	symmetry c1
}
set optking {
	frozen_dihedral = ("
		6 3 5 9,
		12 8 5 9
	")
}

ee = energy('scf')
oeprop('DIPOLE', 'QUADRUPOLE', 'MULLIKEN_CHARGES')
f=open( 'psi4out.xyz', 'w' )
f.write( "16  " )
f.write( str(ee) + "\n" )
f.write( MOL.save_string_xyz() )
f.close()
--------------------------------------------------------------------------

    Molecular point group: c1

    Geometry (in Angstrom), charge = 0, multiplicity = 1:

       Center              X                  Y                   Z               Mass
    ------------   -----------------  -----------------  -----------------  -----------------
           H          2.171293545176    -1.294801985328    -0.294444560971     1.007825032070
           N          2.442138545176    -0.360017985328    -0.057096560971    14.003074004780
           C          1.275315545176     0.504197014672     0.048474439029    12.000000000000
           H          3.050621545176    -0.040822985328    -0.787013560971     1.007825032070
           C         -0.008198454824    -0.317440985328    -0.005486560971    12.000000000000
           H          1.296705545176     1.191238014672    -0.792091560971     1.007825032070
           H          1.275463545176     1.116779014672     0.953528439029     1.007825032070
           C         -1.274389454824     0.536789014672     0.070735439029    12.000000000000
           H         -0.004607454824    -0.900921985328    -0.921787560971     1.007825032070
           H         -0.008015454824    -1.033530985328     0.815956439029     1.007825032070
           C         -2.556032454824    -0.294057985328     0.017940439029    12.000000000000
           H         -1.276196454824     1.252339014672    -0.749003560971     1.007825032070
           H         -1.263499454824     1.123110014672     0.987286439029     1.007825032070
           H         -2.613960454824    -0.865804985328    -0.903726560971     1.007825032070
           H         -3.437247454824     0.337669014672     0.071812439029     1.007825032070
           H         -2.601654454824    -0.996864985328     0.845105439029     1.007825032070

  Charge       = 0
  Multiplicity = 1
  Basis Set: 6-31G*
  Basis Set:

    Orbital Energies (a.u.)
    -----------------------

    Doubly Occupied:

       1A    -15.529103     2A    -11.239744     3A    -11.218666
       4A    -11.216482     5A    -11.210923     6A     -1.177203
       7A     -1.062417     8A     -0.959997     9A     -0.846337
      10A     -0.799667    11A     -0.660591    12A     -0.641761
      13A     -0.595685    14A     -0.584667    15A     -0.569132
      16A     -0.521604    17A     -0.511875    18A     -0.475049
      19A     -0.471388    20A     -0.464225    21A     -0.374683

  @DF-RHF Final Energy:  -212.31133875968442

   => Energetics <=

    Nuclear Repulsion Energy =            186.6701422531543813
    One-Electron Energy =                -655.7005817811725592
    Two-Electron Energy =                 256.7191007683338739
    DFT Exchange-Correlation Energy =       0.0000000000000000
    Empirical Dispersion Energy =           0.0000000000000000
    PCM Polarization Energy =               0.0000000000000000
    EFP Energy =                            0.0000000000000000
    Total Energy =                       -212.3113387596843040

  Mulliken Charges: (a.u.)
   Center  Symbol    Alpha    Beta     Spin     Total
       1     H     0.33173  0.33173  0.00000  0.33653
       2     N     3.92893  3.92893  0.00000 -0.85787
       3     C     3.04482  3.04482  0.00000 -0.08964
       4     H     0.33270  0.33270  0.00000  0.33460
       5     C     3.16793  3.16793  0.00000 -0.33587
       6     H     0.43084  0.43084  0.00000  0.13833
       7     H     0.42135  0.42135  0.00000  0.15731
       8     C     3.15464  3.15464  0.00000 -0.30927
       9     H     0.42565  0.42565  0.00000  0.14871
      10     H     0.41794  0.41794  0.00000  0.16412
      11     C     3.23919  3.23919  0.00000 -0.47838
      12     H     0.42248  0.42248  0.00000  0.15504
      13     H     0.42046  0.42046  0.00000  0.15908
      14     H     0.42184  0.42184  0.00000  0.15632
      15     H     0.41863  0.41863  0.00000  0.16275
      16     H     0.42087  0.42087  0.00000  0.15826

   Total alpha = 21.00000, Total beta = 21.00000, Total charge =  0.00000
