                              Psi4 1.0.54 Driver

  ==> Input File <==

--------------------------------------------------------------------------
set {
	reference rhf
	basis cc-pvtz
}

set_num_threads( 4 )
memory 2 gb

molecule MOL {
0 1

H	 2.383843	 -0.490431	 -0.855973
C	 1.692655	 -0.964212	 -0.168260
N	 0.526300	 -0.128137	 0.000000
H	 2.201208	 -1.080293	 0.780391
H	 1.466812	 -1.958667	 -0.558933
C	 -0.247113	 0.037112	 -1.209233
H	 -0.051428	 -0.492559	 0.726007
H	 -0.996493	 -0.743733	 -1.271440
H	 0.397975	 -0.057351	 -2.073512
H	 -0.763794	 0.997171	 -1.271673

	symmetry c1
}
set optking {
	frozen_dihedral = ("
		2 3 6 8
	")
}

ee,wfn = optimize('scf', return_wfn=True)
oeprop( wfn, 'DIPOLE', 'QUADRUPOLE', 'MULLIKEN_CHARGES')
f=open( 'psi4out.xyz', 'w' )
f.write( "10  " )
f.write( str(ee) + "\n" )
f.write( MOL.save_string_xyz() )
f.close()
--------------------------------------------------------------------------

    Molecular point group: c1
  Charge       = 0
  Multiplicity = 1
  Basis Set: CC-PVTZ
  Basis Set:
  @DF-RHF Final Energy:  -134.28903475368614
    Total Energy =                       -134.2890347536860531
    Molecular point group: c1
  Basis Set: CC-PVTZ
  Basis Set:
  Basis Set: CC-PVTZ
  Basis Set:
  @DF-RHF Final Energy:  -134.29005788003730
    Total Energy =                       -134.2900578800372102
  Basis Set: CC-PVTZ
  Basis Set:
  Basis Set: CC-PVTZ
  Basis Set:
  @DF-RHF Final Energy:  -134.29017863538985
    Total Energy =                       -134.2901786353897933
  Basis Set: CC-PVTZ
  Basis Set:
  Basis Set: CC-PVTZ
  Basis Set:
  @DF-RHF Final Energy:  -134.29018366757469
    Total Energy =                       -134.2901836675746949
  Basis Set: CC-PVTZ
  Basis Set:
  Charge       = 0
  Multiplicity = 1
  Basis Set: CC-PVTZ
  Basis Set:

    Orbital Energies (a.u.)
    -----------------------

    Doubly Occupied:

       1A    -15.529574     2A    -11.234301     3A    -11.233856
       4A     -1.197291     5A     -0.948116     6A     -0.855198
       7A     -0.662488     8A     -0.608187     9A     -0.590108
      10A     -0.542645    11A     -0.513932    12A     -0.507373
      13A     -0.357992

  @DF-RHF Final Energy:  -134.29018433089374

   => Energetics <=

    Nuclear Repulsion Energy =             84.5651297707267275
    One-Electron Energy =                -348.1485077994933022
    Two-Electron Energy =                 129.2931936978728800
    DFT Exchange-Correlation Energy =       0.0000000000000000
    Empirical Dispersion Energy =           0.0000000000000000
    PCM Polarization Energy =               0.0000000000000000
    EFP Energy =                            0.0000000000000000
    Total Energy =                       -134.2901843308936805
    Molecular point group: c1
  Basis Set: CC-PVTZ
  Basis Set:

  -Total Gradient:
     Atom            X                  Y                   Z
    ------   -----------------  -----------------  -----------------
       1       -0.000017075556     0.000009567543     0.000004015170
       2        0.001665482174     0.002349167543    -0.000691184229
       3       -0.003066246849    -0.002714138176     0.001616290210
       4       -0.000010856930     0.000010543004    -0.000003174953
       5       -0.000009597429     0.000019018618     0.000008345138
       6        0.003976780381    -0.001964901075    -0.002919804715
       7        0.000013829418    -0.000008556547     0.000016500129
       8       -0.002527663518     0.002291340875     0.001929925894
       9       -0.000015425248     0.000006911052     0.000032394624
      10       -0.000009226443     0.000001047163     0.000006692730

  **** Optimization is complete! (in 5 steps) ****
    Final optimized geometry and variables:
    Molecular point group: c1

    Geometry (in Angstrom), charge = 0, multiplicity = 1:

    H            1.748316925769    -0.130900864594    -0.344395668369
    C            1.039453961691    -0.598986874535     0.328127440203
    N           -0.131185077234     0.237290002169     0.457038946010
    H            1.521285922051    -0.699683400929     1.292613799858
    H            0.833047164334    -1.602063021122    -0.051726599406
    C           -0.894532332968     0.413303296768    -0.761816549557
    H           -0.714774005534    -0.081217357849     1.197748584552
    H           -1.672671162553    -0.336577555517    -0.900975126186
    H           -0.234354836152     0.383190456926    -1.618785491637
    H           -1.383675600612     1.381163887620    -0.760876773880

  Mulliken Charges: (a.u.)
   Center  Symbol    Alpha    Beta     Spin     Total
       1     H     0.45696  0.45696  0.00000  0.08608
       2     C     3.08017  3.08017  0.00000 -0.16033
       3     N     3.63426  3.63426  0.00000 -0.26851
       4     H     0.45306  0.45306  0.00000  0.09389
       5     H     0.47553  0.47553  0.00000  0.04894
       6     C     3.08099  3.08099  0.00000 -0.16198
       7     H     0.43899  0.43899  0.00000  0.12202
       8     H     0.46762  0.46762  0.00000  0.06475
       9     H     0.45863  0.45863  0.00000  0.08273
      10     H     0.45379  0.45379  0.00000  0.09242

   Total alpha = 13.00000, Total beta = 13.00000, Total charge = -0.00000

*** Psi4 exiting successfully. Buy a developer a beer!
