  ==> Input File <==

--------------------------------------------------------------------------
set {
	reference rhf
	basis 6-31G*
}

set_num_threads( 4 )
memory 2 gb

molecule MOL {
0 1

O	 3.225979	 0.970355	 -0.599647
C	 2.701189	 0.057885	 -0.047330
C	 1.245376	 -0.013843	 0.345420
O	 3.347903	 -1.046386	 0.304773
C	 0.455112	 1.231400	 -0.050772
H	 0.838542	 -0.913825	 -0.103701
H	 1.208210	 -0.175333	 1.419774
C	 -0.998893	 1.219485	 0.433193
H	 0.482531	 1.345121	 -1.130325
H	 0.957290	 2.103070	 0.354729
C	 -1.883438	 0.145884	 -0.207175
H	 -1.431207	 2.195402	 0.224832
H	 -1.019646	 1.105716	 1.516076
C	 -3.347647	 0.245583	 0.225435
H	 -1.822183	 0.231698	 -1.291012
H	 -1.510341	 -0.844814	 0.042401
C	 -4.239992	 -0.825570	 -0.404234
H	 -3.732888	 1.230466	 -0.033079
H	 -3.408585	 0.170602	 1.310038
C	 -4.878474	 -1.753897	 0.628360
H	 -5.021485	 -0.344758	 -0.988812
H	 -3.654094	 -1.415707	 -1.105834
H	 -5.504605	 -2.501772	 0.151652
H	 -5.499752	 -1.197562	 1.324563
H	 -4.121756	 -2.276239	 1.206989
C	 4.728119	 -1.109107	 -0.004993
H	 4.882018	 -1.033965	 -1.071845
H	 5.068212	 -2.067527	 0.355250
H	 5.265056	 -0.311663	 0.488280

	symmetry c1
}
set optking {
	frozen_dihedral = ("
		21 17 14 11
	")
}

ee = optimize('scf')
oeprop('DIPOLE', 'QUADRUPOLE', 'MULLIKEN_CHARGES')
f=open( 'psi4out.xyz', 'w' )
f.write( "29  " )
f.write( str(ee) + "\n" )
f.write( MOL.save_string_xyz() )
f.close()
--------------------------------------------------------------------------

    Molecular point group: c1
  Charge       = 0
  Multiplicity = 1
  Basis Set: 6-31G*
  Basis Set:
  @DF-RHF Final Energy:  -501.03822198396779
    Total Energy =                       -501.0382219839676736
    Molecular point group: c1
  Basis Set: 6-31G*
  Basis Set:
  Basis Set: 6-31G*
  Basis Set:
  @DF-RHF Final Energy:  -501.03845188628395
    Total Energy =                       -501.0384518862847472
  Basis Set: 6-31G*
  Basis Set:
  Basis Set: 6-31G*
  Basis Set:
  @DF-RHF Final Energy:  -501.03853104454492
    Total Energy =                       -501.0385310445443565
  Basis Set: 6-31G*
  Basis Set:
  Basis Set: 6-31G*
  Basis Set:
  @DF-RHF Final Energy:  -501.03852349911210
    Total Energy =                       -501.0385234991117613
  Basis Set: 6-31G*
  Basis Set:
  Basis Set: 6-31G*
  Basis Set:
  @DF-RHF Final Energy:  -501.03853251527300
    Total Energy =                       -501.0385325152732321
  Basis Set: 6-31G*
  Basis Set:
  Basis Set: 6-31G*
  Basis Set:
  @DF-RHF Final Energy:  -501.03852661813369
    Total Energy =                       -501.0385266181336874
  Basis Set: 6-31G*
  Basis Set:
  Charge       = 0
  Multiplicity = 1
  Basis Set: 6-31G*
  Basis Set:

    Orbital Energies (a.u.)
    -----------------------

    Doubly Occupied:

       1A    -20.603386     2A    -20.545210     3A    -11.372021
       4A    -11.280674     5A    -11.234768     6A    -11.219129
       7A    -11.217460     8A    -11.216348     9A    -11.215532
      10A    -11.214176    11A    -11.209633    12A     -1.469082
      13A     -1.362525    14A     -1.097418    15A     -1.064974
      16A     -1.018841    17A     -0.977020    18A     -0.928175
      19A     -0.862764    20A     -0.800666    21A     -0.789466
      22A     -0.763957    23A     -0.700749    24A     -0.682371
      25A     -0.672043    26A     -0.645399    27A     -0.625181
      28A     -0.608979    29A     -0.595336    30A     -0.585282
      31A     -0.562734    32A     -0.552576    33A     -0.532243
      34A     -0.529392    35A     -0.517419    36A     -0.506296
      37A     -0.500921    38A     -0.475851    39A     -0.472264
      40A     -0.461989    41A     -0.455927    42A     -0.453660
      43A     -0.440354    44A     -0.434841

  @DF-RHF Final Energy:  -501.03853299511786

   => Energetics <=

    Nuclear Repulsion Energy =            612.4944097124833888
    One-Electron Energy =               -1896.1158225901810965
    Two-Electron Energy =                 782.5828798825791637
    DFT Exchange-Correlation Energy =       0.0000000000000000
    Empirical Dispersion Energy =           0.0000000000000000
    PCM Polarization Energy =               0.0000000000000000
    EFP Energy =                            0.0000000000000000
    Total Energy =                       -501.0385329951186577
    Molecular point group: c1
  Basis Set: 6-31G*
  Basis Set:

  -Total Gradient:
     Atom            X                  Y                   Z
    ------   -----------------  -----------------  -----------------
       1       -0.000002019179    -0.000005939756    -0.000009184652
       2        0.000006239387     0.000012421279     0.000024967430
       3       -0.000001662958    -0.000002612068    -0.000007815181
       4       -0.000000788811    -0.000003076367    -0.000007626793
       5        0.000000065541     0.000001988530     0.000002365876
       6       -0.000000958359    -0.000000226572     0.000000302204
       7        0.000001609170     0.000000300597    -0.000001495794
       8       -0.000000416325     0.000004028121     0.000001112962
       9        0.000000280516     0.000000460559     0.000001272744
      10        0.000005063719    -0.000000672840    -0.000001173781
      11       -0.000056303637     0.000163951980    -0.000215001424
      12        0.000000072743     0.000000001515     0.000001175714
      13        0.000000683089     0.000002649302    -0.000000422646
      14        0.000133214781    -0.000234678278     0.000222876619
      15        0.000001138996    -0.000002491553    -0.000000497608
      16       -0.000001282883    -0.000000118413    -0.000000275881
      17       -0.000309255480     0.000080878877     0.000290019895
      18        0.000002679072    -0.000000369870     0.000002328547
      19       -0.000000586618     0.000000335440     0.000001935708
      20       -0.000002556328    -0.000004545638     0.000003454575
      21        0.000223103730    -0.000015150660    -0.000302292482
      22       -0.000001205215    -0.000000351156    -0.000000603602
      23        0.000001695128    -0.000000876703    -0.000004784749
      24        0.000000132813     0.000001272317    -0.000001812963
      25        0.000000991151     0.000003203288     0.000001411249
      26       -0.000000125878    -0.000000283414     0.000000193240
      27        0.000000256027    -0.000000062938    -0.000000211841
      28        0.000000160954    -0.000000078123    -0.000000234363
      29       -0.000000225154     0.000000042545     0.000000016999

  **** Optimization is complete! (in 7 steps) ****
    Final optimized geometry and variables:
    Molecular point group: c1

    Geometry (in Angstrom), charge = 0, multiplicity = 1:

    O            3.151505750038     1.069630387964    -0.653109918409
    C            2.625151131303     0.156349086129    -0.103630594947
    C            1.169096833165     0.085702533679     0.288407798477
    O            3.270022479980    -0.949991287301     0.245336630199
    C            0.380767114289     1.333146512141    -0.104728057856
    H            0.761068838156    -0.812476926291    -0.163229576918
    H            1.131321757920    -0.078591313136     1.362314431179
    C           -1.073588210449     1.321662402978     0.378418361775
    H            0.408923937254     1.449854196755    -1.183930399412
    H            0.883928459566     2.202975174157     0.303461259261
    C           -1.959049401268     0.251631283319    -0.265225137512
    H           -1.504587125650     2.298810917813     0.172610536014
    H           -1.095200933492     1.205071838298     1.461054372099
    C           -3.425103660425     0.352925619032     0.164781222929
    H           -1.897144698285     0.338428418045    -1.348903250138
    H           -1.589895469264    -0.741318738374    -0.017148994410
    C           -4.328569188904    -0.734495540260    -0.460368756749
    H           -3.798582101641     1.340049215898    -0.095002531311
    H           -3.477718591581     0.292530383576     1.249709449592
    C           -4.965499036592    -1.665159757660     0.572265029124
    H           -5.113054684248    -0.270137844624    -1.050812940952
    H           -3.748605475558    -1.331639248951    -1.159664883297
    H           -5.578920394532    -2.423437437924     0.095057611378
    H           -5.597860542903    -1.111595983694     1.260531267010
    H           -4.206357719054    -2.174297989156     1.160016337348
    C            4.650247514594    -1.013942624560    -0.064160146473
    H            4.804624274301    -0.935850055705    -1.130735919264
    H            4.988700410657    -1.973964856055     0.293331371162
    H            5.188254418684    -0.218821015906     0.431688400226

  Mulliken Charges: (a.u.)
   Center  Symbol    Alpha    Beta     Spin     Total
       1     O     4.28595  4.28595  0.00000 -0.57191
       2     C     2.60485  2.60485  0.00000  0.79030
       3     C     3.20968  3.20968  0.00000 -0.41937
       4     O     4.30747  4.30747  0.00000 -0.61493
       5     C     3.15368  3.15368  0.00000 -0.30736
       6     H     0.39886  0.39886  0.00000  0.20227
       7     H     0.40124  0.40124  0.00000  0.19751
       8     C     3.15741  3.15741  0.00000 -0.31482
       9     H     0.41307  0.41307  0.00000  0.17386
      10     H     0.40876  0.40876  0.00000  0.18249
      11     C     3.15689  3.15689  0.00000 -0.31377
      12     H     0.41824  0.41824  0.00000  0.16352
      13     H     0.42379  0.42379  0.00000  0.15242
      14     C     3.15475  3.15475  0.00000 -0.30950
      15     H     0.42201  0.42201  0.00000  0.15597
      16     H     0.42357  0.42357  0.00000  0.15285
      17     C     3.15539  3.15539  0.00000 -0.31077
      18     H     0.42040  0.42040  0.00000  0.15921
      19     H     0.42096  0.42096  0.00000  0.15809
      20     C     3.23968  3.23968  0.00000 -0.47935
      21     H     0.41969  0.41969  0.00000  0.16063
      22     H     0.42039  0.42039  0.00000  0.15921
      23     H     0.42038  0.42038  0.00000  0.15924
      24     H     0.42122  0.42122  0.00000  0.15757
      25     H     0.42255  0.42255  0.00000  0.15489
      26     C     3.09241  3.09241  0.00000 -0.18481
      27     H     0.40908  0.40908  0.00000  0.18183
      28     H     0.40851  0.40851  0.00000  0.18297
      29     H     0.40912  0.40912  0.00000  0.18176

   Total alpha = 44.00000, Total beta = 44.00000, Total charge =  0.00000
