                              Psi4 1.0.54 Driver

  ==> Input File <==

--------------------------------------------------------------------------
set {
	reference rhf
	basis cc-pvtz
}

set_num_threads( 4 )
memory 2 gb

molecule MOL {
0 1

H	 -0.194866	 3.051309	 -0.439669
C	 0.506401	 2.278114	 -0.097278
C	 0.062554	 0.862911	 -0.350953
O	 1.523496	 2.588488	 0.418805
C	 -1.339253	 0.577611	 0.196911
H	 0.798317	 0.190163	 0.070423
H	 0.059939	 0.724786	 -1.429836
C	 -1.813142	 -0.849710	 -0.061612
H	 -2.032833	 1.276441	 -0.256032
H	 -1.357249	 0.782269	 1.263793
H	 -1.839268	 -1.063526	 -1.124230
H	 -2.810118	 -1.001930	 0.334000
H	 -1.159274	 -1.579980	 0.402282

	symmetry c1
}
set optking {
	frozen_dihedral = ("
		6 3 5 9
	")
}

ee,wfn = optimize('scf', return_wfn=True)
oeprop( wfn, 'DIPOLE', 'QUADRUPOLE', 'MULLIKEN_CHARGES')
f=open( 'psi4out.xyz', 'w' )
f.write( "13  " )
f.write( str(ee) + "\n" )
f.write( MOL.save_string_xyz() )
f.close()
--------------------------------------------------------------------------

    Molecular point group: c1
  Charge       = 0
  Multiplicity = 1
  Basis Set: CC-PVTZ
  Basis Set:
  @DF-RHF Final Energy:  -231.07115219663086
    Total Energy =                       -231.0711521966309192
    Molecular point group: c1
  Basis Set: CC-PVTZ
  Basis Set:
  Basis Set: CC-PVTZ
  Basis Set:
  @DF-RHF Final Energy:  -231.07122374384898
    Total Energy =                       -231.0712237438491456
  Basis Set: CC-PVTZ
  Basis Set:
  Basis Set: CC-PVTZ
  Basis Set:
  @DF-RHF Final Energy:  -231.06952621323722
    Total Energy =                       -231.0695262132373102
  Basis Set: CC-PVTZ
  Basis Set:
  Basis Set: CC-PVTZ
  Basis Set:
  @DF-RHF Final Energy:  -231.07126908819254
    Total Energy =                       -231.0712690881925653
  Basis Set: CC-PVTZ
  Basis Set:
  Basis Set: CC-PVTZ
  Basis Set:
  @DF-RHF Final Energy:  -231.07127849849732
    Total Energy =                       -231.0712784984973496
  Basis Set: CC-PVTZ
  Basis Set:
  Basis Set: CC-PVTZ
  Basis Set:
  @DF-RHF Final Energy:  -231.07128042410082
    Total Energy =                       -231.0712804241006211
  Basis Set: CC-PVTZ
  Basis Set:
  Basis Set: CC-PVTZ
  Basis Set:
  @DF-RHF Final Energy:  -231.07128203128764
    Total Energy =                       -231.0712820312876374
  Basis Set: CC-PVTZ
  Basis Set:
  Charge       = 0
  Multiplicity = 1
  Basis Set: CC-PVTZ
  Basis Set:

    Orbital Energies (a.u.)
    -----------------------

    Doubly Occupied:

       1A    -20.552561     2A    -11.321765     3A    -11.237513
       4A    -11.234707     5A    -11.222164     6A     -1.407309
       7A     -1.088613     8A     -0.977560     9A     -0.840350
      10A     -0.794813    11A     -0.680887    12A     -0.643550
      13A     -0.634841    14A     -0.589810    15A     -0.557995
      16A     -0.534740    17A     -0.516139    18A     -0.493017
      19A     -0.485794    20A     -0.413074

  @DF-RHF Final Energy:  -231.07128217764767

   => Energetics <=

    Nuclear Repulsion Energy =            170.8645492782908946
    One-Electron Energy =                -651.4172582866510766
    Two-Electron Energy =                 249.4814268307125360
    DFT Exchange-Correlation Energy =       0.0000000000000000
    Empirical Dispersion Energy =           0.0000000000000000
    PCM Polarization Energy =               0.0000000000000000
    EFP Energy =                            0.0000000000000000
    Total Energy =                       -231.0712821776476460
    Molecular point group: c1
  Basis Set: CC-PVTZ
  Basis Set:

  -Total Gradient:
     Atom            X                  Y                   Z
    ------   -----------------  -----------------  -----------------
       1        0.000004801354     0.000000032330     0.000004810786
       2       -0.000024551831    -0.000000161575    -0.000019674183
       3        0.000099742855     0.000324369894     0.000377410312
       4        0.000012234808    -0.000003291688     0.000008546082
       5        0.000065180381     0.000325926224     0.000358180274
       6       -0.000085394900    -0.000326869434    -0.000372094266
       7       -0.000004446688     0.000008861642     0.000010040688
       8        0.000010994321    -0.000015834638     0.000005235578
       9       -0.000074469318    -0.000313640200    -0.000373106405
      10       -0.000004238657     0.000003567762     0.000002552315
      11       -0.000004136465     0.000003234046     0.000000998085
      12        0.000005506360    -0.000000922090     0.000000795202
      13       -0.000001222221    -0.000005272274    -0.000003694466

  **** Optimization is complete! (in 8 steps) ****
    Final optimized geometry and variables:
    Molecular point group: c1

    Geometry (in Angstrom), charge = 0, multiplicity = 1:

    H            0.057867238936     1.964383385837    -0.529833151119
    C            0.724781454647     1.186067508009    -0.136015273510
    C            0.277562051626    -0.226530701653    -0.390478209901
    O            1.710135330899     1.488913030312     0.442776913541
    C           -1.125168302933    -0.494035499604     0.161430718392
    H            1.005235524717    -0.902809417208     0.038757117723
    H            0.273704422572    -0.378059218457    -1.468059788551
    C           -1.589634011877    -1.922801193621    -0.098125137565
    H           -1.829293547315     0.199703041794    -0.288471214431
    H           -1.133827604176    -0.297970498148     1.228905291101
    H           -1.621722027212    -2.136189794163    -1.161090904059
    H           -2.582112012857    -2.086999809809     0.303808736832
    H           -0.920987049520    -2.640367864744     0.363891983756

  Mulliken Charges: (a.u.)
   Center  Symbol    Alpha    Beta     Spin     Total
       1     H     0.46546  0.46546  0.00000  0.06908
       2     C     2.90789  2.90789  0.00000  0.18423
       3     C     3.07757  3.07757  0.00000 -0.15513
       4     O     4.16367  4.16367  0.00000 -0.32735
       5     C     3.09587  3.09587  0.00000 -0.19174
       6     H     0.44278  0.44278  0.00000  0.11444
       7     H     0.45082  0.45082  0.00000  0.09837
       8     C     3.14727  3.14727  0.00000 -0.29453
       9     H     0.45162  0.45162  0.00000  0.09677
      10     H     0.44611  0.44611  0.00000  0.10778
      11     H     0.45414  0.45414  0.00000  0.09173
      12     H     0.44567  0.44567  0.00000  0.10866
      13     H     0.45116  0.45116  0.00000  0.09769

   Total alpha = 20.00000, Total beta = 20.00000, Total charge =  0.00000

*** Psi4 exiting successfully. Buy a developer a beer!
