                              Psi4 1.0.54 Driver

  ==> Input File <==

--------------------------------------------------------------------------
set {
	reference rhf
	basis cc-pvtz
}

set_num_threads( 4 )
memory 2 gb

molecule MOL {
0 1

O	 1.840490	 1.306888	 0.118779
C	 1.683344	 0.155686	 0.344786
C	 0.360030	 -0.565700	 0.335803
O	 2.676585	 -0.666255	 0.641942
C	 -0.824290	 0.329213	 -0.000115
H	 0.446221	 -1.385137	 -0.370273
H	 0.239812	 -1.027485	 1.310351
C	 -2.146151	 -0.432825	 -0.000068
H	 -0.662884	 0.786517	 -0.969700
H	 -0.869375	 1.144746	 0.712741
C	 -3.366283	 0.483552	 0.000557
H	 -2.189286	 -1.084450	 -0.869996
H	 -2.188867	 -1.085083	 0.869399
C	 -4.687436	 -0.278003	 0.000108
H	 -3.325150	 1.134819	 -0.867957
H	 -3.325087	 1.133730	 0.869885
H	 -4.773783	 -0.912098	 -0.876078
H	 -5.531922	 0.401392	 0.000363
H	 -4.773901	 -0.912898	 0.875703
C	 3.979507	 -0.120540	 0.685688
H	 4.252590	 0.291884	 -0.274283
H	 4.635694	 -0.936902	 0.940283
H	 4.042786	 0.655866	 1.433621

	symmetry c1
}
set optking {
	frozen_dihedral = ("
		9 5 8 12
	")
}

ee,wfn = optimize('scf', return_wfn=True)
oeprop( wfn, 'DIPOLE', 'QUADRUPOLE', 'MULLIKEN_CHARGES')
f=open( 'psi4out.xyz', 'w' )
f.write( "23  " )
f.write( str(ee) + "\n" )
f.write( MOL.save_string_xyz() )
f.close()
--------------------------------------------------------------------------

    Molecular point group: c1
  Charge       = 0
  Multiplicity = 1
  Basis Set: CC-PVTZ
  Basis Set:
  @DF-RHF Final Energy:  -423.13037983407003
    Total Energy =                       -423.1303798340697995
    Molecular point group: c1
  Basis Set: CC-PVTZ
  Basis Set:
  Basis Set: CC-PVTZ
  Basis Set:
  @DF-RHF Final Energy:  -423.13045161334725
    Total Energy =                       -423.1304516133474181
  Basis Set: CC-PVTZ
  Basis Set:
  Basis Set: CC-PVTZ
  Basis Set:
  @DF-RHF Final Energy:  -423.13034292102003
    Total Energy =                       -423.1303429210195191
  Basis Set: CC-PVTZ
  Basis Set:
  Basis Set: CC-PVTZ
  Basis Set:
  @DF-RHF Final Energy:  -423.13049435600834
    Total Energy =                       -423.1304943560085121
  Basis Set: CC-PVTZ
  Basis Set:
  Basis Set: CC-PVTZ
  Basis Set:
  @DF-RHF Final Energy:  -423.13049554986452
    Total Energy =                       -423.1304955498643494
  Basis Set: CC-PVTZ
  Basis Set:
  Charge       = 0
  Multiplicity = 1
  Basis Set: CC-PVTZ
  Basis Set:

    Orbital Energies (a.u.)
    -----------------------

    Doubly Occupied:

       1A    -20.596227     2A    -20.534054     3A    -11.364419
       4A    -11.278424     5A    -11.233628     6A    -11.217268
       7A    -11.215845     8A    -11.214423     9A    -11.207688
      10A     -1.472112    11A     -1.365685    12A     -1.094304
      13A     -1.044682    14A     -0.987913    15A     -0.932549
      16A     -0.844077    17A     -0.795327    18A     -0.769173
      19A     -0.699282    20A     -0.686788    21A     -0.675312
      22A     -0.652609    23A     -0.610491    24A     -0.600897
      25A     -0.573237    26A     -0.559749    27A     -0.557730
      28A     -0.525534    29A     -0.522701    30A     -0.507250
      31A     -0.485801    32A     -0.470129    33A     -0.467355
      34A     -0.462537    35A     -0.458938    36A     -0.438114

  @DF-RHF Final Energy:  -423.13049574508329

   => Energetics <=

    Nuclear Repulsion Energy =            452.9086615760487575
    One-Electron Energy =               -1473.8338150461031546
    Two-Electron Energy =                 597.7946577249707616
    DFT Exchange-Correlation Energy =       0.0000000000000000
    Empirical Dispersion Energy =           0.0000000000000000
    PCM Polarization Energy =               0.0000000000000000
    EFP Energy =                            0.0000000000000000
    Total Energy =                       -423.1304957450836355
    Molecular point group: c1
  Basis Set: CC-PVTZ
  Basis Set:

  -Total Gradient:
     Atom            X                  Y                   Z
    ------   -----------------  -----------------  -----------------
       1       -0.000005734339    -0.000003109472     0.000004790484
       2        0.000008903195    -0.000002479316     0.000003185379
       3        0.000013536629    -0.000001663411    -0.000011261020
       4       -0.000005593948    -0.000000604948    -0.000004481144
       5       -0.001782722759     0.003042096771     0.000643589304
       6       -0.000004773007     0.000001316863     0.000010888331
       7        0.000005146477     0.000002937400    -0.000004124104
       8        0.001614781404    -0.002797262385     0.001493223582
       9        0.001221197813    -0.002097981674    -0.000764018942
      10        0.000005285208    -0.000009142556     0.000002535892
      11       -0.000012466737     0.000008658483    -0.000024142764
      12       -0.001072288943     0.001850217924    -0.001352486064
      13       -0.000001299395     0.000015144565    -0.000011516551
      14        0.000002295174    -0.000014601512     0.000013212221
      15        0.000001088089    -0.000005718849     0.000017497164
      16        0.000000205394    -0.000008708836    -0.000025509506
      17        0.000004055824     0.000016532263     0.000025166842
      18        0.000007699773    -0.000001155048     0.000004593091
      19       -0.000000122399     0.000004426565    -0.000022523470
      20        0.000006867046     0.000010992748    -0.000000477727
      21       -0.000003279309    -0.000002677921     0.000009258974
      22       -0.000001269233    -0.000001222699    -0.000000015326
      23       -0.000001511962    -0.000005994955    -0.000007384645

  **** Optimization is complete! (in 6 steps) ****
    Final optimized geometry and variables:
    Molecular point group: c1

    Geometry (in Angstrom), charge = 0, multiplicity = 1:

    O            1.854142244744     1.282317953532    -0.141663531789
    C            1.699263785669     0.134717811648     0.103678299460
    C            0.374448001658    -0.583301679925     0.132239662616
    O            2.696789492803    -0.685136245826     0.392363286840
    C           -0.815971833307     0.311261204969    -0.187919587168
    H            0.442785090739    -1.410722325185    -0.566732068032
    H            0.275216093729    -1.034145809061     1.114068009159
    C           -2.132821880665    -0.462626114737    -0.195004573808
    H           -0.653437139150     0.764247347580    -1.158847903323
    H           -0.859000046970     1.120605648706     0.531373113554
    C           -3.357451755547     0.448449883078    -0.239372996836
    H           -2.159369619651    -1.116602651958    -1.063277948968
    H           -2.194711070126    -1.101077140459     0.682727744285
    C           -4.673703519306    -0.319226758834    -0.296463970597
    H           -3.284373086364     1.104281337386    -1.102517136306
    H           -3.354384891199     1.094563335052     0.633815298053
    H           -4.724336295325    -0.945142899982    -1.181208365218
    H           -5.521170123878     0.356019589516    -0.320941921412
    H           -4.789297511673    -0.963207781290     0.569148231475
    C            4.001277603324    -0.141720295232     0.402279310392
    H            4.255891682203     0.256642183501    -0.568647250139
    H            4.660969892922    -0.955835341938     0.655086849459
    H            4.081141455982     0.644956435910     1.137792073951

  Mulliken Charges: (a.u.)
   Center  Symbol    Alpha    Beta     Spin     Total
       1     O     4.19704  4.19704  0.00000 -0.39408
       2     C     2.80705  2.80705  0.00000  0.38591
       3     C     3.10129  3.10129  0.00000 -0.20258
       4     O     4.14652  4.14652  0.00000 -0.29303
       5     C     3.08356  3.08356  0.00000 -0.16712
       6     H     0.43999  0.43999  0.00000  0.12002
       7     H     0.44026  0.44026  0.00000  0.11948
       8     C     3.08958  3.08958  0.00000 -0.17915
       9     H     0.44559  0.44559  0.00000  0.10882
      10     H     0.44680  0.44680  0.00000  0.10640
      11     C     3.08407  3.08407  0.00000 -0.16815
      12     H     0.45472  0.45472  0.00000  0.09056
      13     H     0.45621  0.45621  0.00000  0.08758
      14     C     3.15036  3.15036  0.00000 -0.30071
      15     H     0.45299  0.45299  0.00000  0.09402
      16     H     0.45367  0.45367  0.00000  0.09267
      17     H     0.45523  0.45523  0.00000  0.08953
      18     H     0.44776  0.44776  0.00000  0.10448
      19     H     0.45547  0.45547  0.00000  0.08907
      20     C     3.03779  3.03779  0.00000 -0.07559
      21     H     0.45435  0.45435  0.00000  0.09130
      22     H     0.44534  0.44534  0.00000  0.10932
      23     H     0.45437  0.45437  0.00000  0.09125

   Total alpha = 36.00000, Total beta = 36.00000, Total charge = -0.00000

*** Psi4 exiting successfully. Buy a developer a beer!
