  ==> Input File <==

--------------------------------------------------------------------------
set {
	reference rhf
	basis 6-31G*
}

set_num_threads( 4 )
memory 2 gb

molecule MOL {
0 1

H	 -0.937570	 4.073105	 -0.203265
O	 -1.008392	 3.161749	 0.041894
C	 0.177608	 2.487563	 -0.295811
C	 0.031547	 1.023609	 0.088541
H	 1.024106	 2.915550	 0.238190
H	 0.383027	 2.586261	 -1.359372
C	 -1.134819	 0.293262	 -0.585751
H	 -0.094744	 0.971441	 1.166324
H	 0.967300	 0.518316	 -0.144409
C	 -1.917817	 -0.639439	 0.339494
H	 -0.758119	 -0.268455	 -1.433105
H	 -1.813832	 1.041889	 -0.986690
H	 -2.777680	 -1.057197	 -0.174994
H	 -1.310268	 -1.471279	 0.680599
H	 -2.283753	 -0.111424	 1.216626

	symmetry c1
}
set optking {
	frozen_dihedral = ("
		8 4 7 11
	")
}

ee = optimize('scf')
oeprop('DIPOLE', 'QUADRUPOLE', 'MULLIKEN_CHARGES')
f=open( 'psi4out.xyz', 'w' )
f.write( "15  " )
f.write( str(ee) + "\n" )
f.write( MOL.save_string_xyz() )
f.close()
--------------------------------------------------------------------------

    Molecular point group: c1
  Charge       = 0
  Multiplicity = 1
  Basis Set: 6-31G*
  Basis Set:
  @DF-RHF Final Energy:  -232.14058008987507
    Total Energy =                       -232.1405800898752432
    Molecular point group: c1
  Basis Set: 6-31G*
  Basis Set:
  Basis Set: 6-31G*
  Basis Set:
  @DF-RHF Final Energy:  -232.14141268988695
    Total Energy =                       -232.1414126898868062
  Basis Set: 6-31G*
  Basis Set:
  Basis Set: 6-31G*
  Basis Set:
  @DF-RHF Final Energy:  -232.14149504590353
    Total Energy =                       -232.1414950459034117
  Basis Set: 6-31G*
  Basis Set:
  Basis Set: 6-31G*
  Basis Set:
  @DF-RHF Final Energy:  -232.14149884473309
    Total Energy =                       -232.1414988447328369
  Basis Set: 6-31G*
  Basis Set:
  Basis Set: 6-31G*
  Basis Set:
  @DF-RHF Final Energy:  -232.14150623962462
    Total Energy =                       -232.1415062396243343
  Basis Set: 6-31G*
  Basis Set:
  Charge       = 0
  Multiplicity = 1
  Basis Set: 6-31G*
  Basis Set:

    Orbital Energies (a.u.)
    -----------------------

    Doubly Occupied:

       1A    -20.553447     2A    -11.268428     3A    -11.211753
       4A    -11.208685     5A    -11.202635     6A     -1.360156
       7A     -1.062054     8A     -0.973054     9A     -0.854968
      10A     -0.786663    11A     -0.705495    12A     -0.635156
      13A     -0.609077    14A     -0.593513    15A     -0.545088
      16A     -0.526501    17A     -0.510810    18A     -0.474974
      19A     -0.461648    20A     -0.456325    21A     -0.430324

  @DF-RHF Final Energy:  -232.14150635823285

   => Energetics <=

    Nuclear Repulsion Energy =            189.3185343887511181
    One-Electron Energy =                -690.0585717172397153
    Two-Electron Energy =                 268.5985309702558084
    DFT Exchange-Correlation Energy =       0.0000000000000000
    Empirical Dispersion Energy =           0.0000000000000000
    PCM Polarization Energy =               0.0000000000000000
    EFP Energy =                            0.0000000000000000
    Total Energy =                       -232.1415063582327889
    Molecular point group: c1
  Basis Set: 6-31G*
  Basis Set:

  -Total Gradient:
     Atom            X                  Y                   Z
    ------   -----------------  -----------------  -----------------
       1       -0.000000293549     0.000001808815     0.000003194314
       2       -0.000004329209    -0.000002136144    -0.000017538428
       3       -0.000001944365     0.000003230196     0.000022560072
       4       -0.002172231072     0.003173636983     0.000389781049
       5        0.000011129640    -0.000013253606    -0.000008804717
       6       -0.000008646045     0.000002090253     0.000002299206
       7       -0.000111447722     0.002735387895    -0.002586082508
       8        0.001825394866    -0.003076318824     0.000097324888
       9        0.000001509883     0.000002267991    -0.000007451345
      10        0.000005917346     0.000006523332     0.000004744627
      11        0.000450455562    -0.002833227292     0.002100364176
      12        0.000002435149    -0.000004005286    -0.000001307181
      13        0.000008338531     0.000008957148     0.000001657758
      14       -0.000002370707    -0.000002917229    -0.000003163041
      15       -0.000003918309    -0.000002044235     0.000002421129

  **** Optimization is complete! (in 6 steps) ****
    Final optimized geometry and variables:
    Molecular point group: c1

    Geometry (in Angstrom), charge = 0, multiplicity = 1:

    H           -0.108072809738     2.767843637271    -0.124582766795
    O           -0.174233604877     1.873111697517     0.176926129914
    C            0.958205837991     1.149441474077    -0.234281400398
    C            0.780624064749    -0.300429889993     0.178765341756
    H            1.856815483559     1.556948665499     0.225103449391
    H            1.082450300860     1.215238734639    -1.314588056239
    C           -0.385329745529    -1.013288777816    -0.531898188171
    H            0.649903175389    -0.345473083750     1.256152681532
    H            1.711475351853    -0.825302394183    -0.025571372818
    C           -1.132753138837    -1.981743994293     0.386302053787
    H           -0.001552938521    -1.577717964751    -1.377967303687
    H           -1.083736284503    -0.279719790633    -0.917878366528
    H           -1.923913241906    -2.498872954018    -0.148297798951
    H           -0.462696527845    -2.734601981792     0.793351149195
    H           -1.583855691760    -1.453678154148     1.220940739600

  Mulliken Charges: (a.u.)
   Center  Symbol    Alpha    Beta     Spin     Total
       1     H     0.28062  0.28062  0.00000  0.43876
       2     O     4.36907  4.36907  0.00000 -0.73814
       3     C     2.99944  2.99944  0.00000  0.00113
       4     C     3.16088  3.16088  0.00000 -0.32176
       5     H     0.42939  0.42939  0.00000  0.14121
       6     H     0.43252  0.43252  0.00000  0.13496
       7     C     3.15502  3.15502  0.00000 -0.31004
       8     H     0.41316  0.41316  0.00000  0.17367
       9     H     0.42252  0.42252  0.00000  0.15495
      10     C     3.24083  3.24083  0.00000 -0.48167
      11     H     0.42475  0.42475  0.00000  0.15050
      12     H     0.40852  0.40852  0.00000  0.18296
      13     H     0.42149  0.42149  0.00000  0.15703
      14     H     0.42429  0.42429  0.00000  0.15142
      15     H     0.41750  0.41750  0.00000  0.16500

   Total alpha = 21.00000, Total beta = 21.00000, Total charge =  0.00000
