  ==> Input File <==

--------------------------------------------------------------------------
set {
	reference rhf
	basis 6-31G*
}

set_num_threads( 1 )
memory 2 gb

molecule MOL {
0 1

O	 -0.682937	 1.318834	 -0.186099
C	 -0.860635	 0.152188	 -0.042321
C	 -2.173363	 -0.477127	 0.338347
O	 0.083258	 -0.765189	 -0.202595
H	 -2.477673	 -1.180929	 -0.427595
H	 -2.923125	 0.290956	 0.455536
H	 -2.058825	 -1.029004	 1.264191
C	 1.243796	 -0.695505	 0.622688
C	 1.010812	 -1.358486	 1.967613
H	 1.534626	 0.337404	 0.739557
H	 2.006902	 -1.215469	 0.061611
H	 1.931939	 -1.356799	 2.542288
H	 0.255873	 -0.827644	 2.533866
H	 0.693304	 -2.387199	 1.835879

	symmetry c1
}
set optking {
	frozen_dihedral = ("
		10 8 4 2
	")
}

ee = energy('scf')
oeprop('DIPOLE', 'QUADRUPOLE', 'MULLIKEN_CHARGES')
f=open( 'psi4out.xyz', 'w' )
f.write( "14  " )
f.write( str(ee) + "\n" )
f.write( MOL.save_string_xyz() )
f.close()
--------------------------------------------------------------------------

    Molecular point group: c1

    Geometry (in Angstrom), charge = 0, multiplicity = 1:

       Center              X                  Y                   Z               Mass
    ------------   -----------------  -----------------  -----------------  -----------------
           O         -0.455917848881     1.626809598622    -0.611920262300    15.994914619560
           C         -0.633615848881     0.460163598622    -0.468142262300    12.000000000000
           C         -1.946343848881    -0.169151401378    -0.087474262300    12.000000000000
           O          0.310277151119    -0.457213401378    -0.628416262300    15.994914619560
           H         -2.250653848881    -0.872953401378    -0.853416262300     1.007825032070
           H         -2.696105848881     0.598931598622     0.029714737700     1.007825032070
           H         -1.831805848881    -0.721028401378     0.838369737700     1.007825032070
           C          1.470815151119    -0.387529401378     0.196866737700    12.000000000000
           C          1.237831151119    -1.050510401378     1.541791737700    12.000000000000
           H          1.761645151119     0.645379598622     0.313735737700     1.007825032070
           H          2.233921151119    -0.907493401378    -0.364210262300     1.007825032070
           H          2.158958151119    -1.048823401378     2.116466737700     1.007825032070
           H          0.482892151119    -0.519668401378     2.108044737700     1.007825032070
           H          0.920323151119    -2.079223401378     1.410057737700     1.007825032070

  Charge       = 0
  Multiplicity = 1
  Basis Set: 6-31G*
  Basis Set:

    Orbital Energies (a.u.)
    -----------------------

    Doubly Occupied:

       1A    -20.589014     2A    -20.550893     3A    -11.375785
       4A    -11.294037     5A    -11.232803     6A    -11.230164
       7A     -1.463471     8A     -1.364564     9A     -1.054591
      10A     -1.007242    11A     -0.886909    12A     -0.767839
      13A     -0.695183    14A     -0.684488    15A     -0.666713
      16A     -0.613461    17A     -0.591645    18A     -0.571394
      19A     -0.559282    20A     -0.551311    21A     -0.509582
      22A     -0.494100    23A     -0.450673    24A     -0.437901

  @DF-RHF Final Energy:  -305.86028724030513

   => Energetics <=

    Nuclear Repulsion Energy =            248.8344363590314856
    One-Electron Energy =                -910.1032327441413372
    Two-Electron Energy =                 355.4085091448044977
    DFT Exchange-Correlation Energy =       0.0000000000000000
    Empirical Dispersion Energy =           0.0000000000000000
    PCM Polarization Energy =               0.0000000000000000
    EFP Energy =                            0.0000000000000000
    Total Energy =                       -305.8602872403054107

  Mulliken Charges: (a.u.)
   Center  Symbol    Alpha    Beta     Spin     Total
       1     O     4.26697  4.26697  0.00000 -0.53394
       2     C     2.62447  2.62447  0.00000  0.75106
       3     C     3.28300  3.28300  0.00000 -0.56601
       4     O     4.31083  4.31083  0.00000 -0.62167
       5     H     0.39916  0.39916  0.00000  0.20169
       6     H     0.39935  0.39935  0.00000  0.20130
       7     H     0.40513  0.40513  0.00000  0.18973
       8     C     3.00890  3.00890  0.00000 -0.01781
       9     C     3.25323  3.25323  0.00000 -0.50646
      10     H     0.40268  0.40268  0.00000  0.19464
      11     H     0.40662  0.40662  0.00000  0.18676
      12     H     0.41363  0.41363  0.00000  0.17275
      13     H     0.41590  0.41590  0.00000  0.16819
      14     H     0.41012  0.41012  0.00000  0.17976

   Total alpha = 24.00000, Total beta = 24.00000, Total charge =  0.00000
