  ==> Input File <==

--------------------------------------------------------------------------
set {
	reference rhf
	basis 6-31G*
}

set_num_threads( 1 )
memory 2 gb

molecule MOL {
0 1

O	 0.314160	 1.062022	 -1.534909
C	 -0.460694	 1.123936	 -0.635999
C	 -1.360063	 2.296254	 -0.351124
O	 -0.632575	 0.154573	 0.251549
H	 -1.154589	 2.683036	 0.640404
H	 -1.196597	 3.066546	 -1.089882
H	 -2.395516	 1.976548	 -0.370641
C	 0.160891	 -1.019931	 0.106212
C	 1.589627	 -0.672828	 0.480843
H	 0.089836	 -1.367806	 -0.916050
H	 -0.238459	 -1.792301	 0.749618
C	 2.246377	 0.346236	 -0.452210
H	 2.163194	 -1.597435	 0.473358
H	 1.604769	 -0.303424	 1.502885
C	 3.691736	 0.652107	 -0.061850
H	 2.219579	 -0.032311	 -1.472055
H	 1.666466	 1.263317	 -0.447249
H	 4.134505	 1.377213	 -0.737283
H	 4.305508	 -0.243868	 -0.089969
H	 3.748266	 1.059562	 0.943567

	symmetry c1
}
set optking {
	frozen_dihedral = ("
		16 12 9 8,
		12 9 8 10,
		1 2 4 8
	")
}

ee = energy('scf')
oeprop('DIPOLE', 'QUADRUPOLE', 'MULLIKEN_CHARGES')
f=open( 'psi4out.xyz', 'w' )
f.write( "20  " )
f.write( str(ee) + "\n" )
f.write( MOL.save_string_xyz() )
f.close()
--------------------------------------------------------------------------

    Molecular point group: c1

    Geometry (in Angstrom), charge = 0, multiplicity = 1:

       Center              X                  Y                   Z               Mass
    ------------   -----------------  -----------------  -----------------  -----------------
           O         -0.378317662277     0.559752254160    -1.256520023302    15.994914619560
           C         -1.153171662277     0.621666254160    -0.357610023302    12.000000000000
           C         -2.052540662277     1.793984254160    -0.072735023302    12.000000000000
           O         -1.325052662277    -0.347696745840     0.529937976698    15.994914619560
           H         -1.847066662277     2.180766254160     0.918792976698     1.007825032070
           H         -1.889074662277     2.564276254160    -0.811493023302     1.007825032070
           H         -3.087993662277     1.474278254160    -0.092252023302     1.007825032070
           C         -0.531586662277    -1.522200745840     0.384600976698    12.000000000000
           C          0.897149337723    -1.175097745840     0.759231976698    12.000000000000
           H         -0.602641662277    -1.870075745840    -0.637661023302     1.007825032070
           H         -0.930936662277    -2.294570745840     1.028006976698     1.007825032070
           C          1.553899337723    -0.156033745840    -0.173821023302    12.000000000000
           H          1.470716337723    -2.099704745840     0.751746976698     1.007825032070
           H          0.912291337723    -0.805693745840     1.781273976698     1.007825032070
           C          2.999258337723     0.149837254160     0.216538976698    12.000000000000
           H          1.527101337723    -0.534580745840    -1.193666023302     1.007825032070
           H          0.973988337723     0.761047254160    -0.168860023302     1.007825032070
           H          3.442027337723     0.874943254160    -0.458894023302     1.007825032070
           H          3.613030337723    -0.746137745840     0.188419976698     1.007825032070
           H          3.055788337723     0.557292254160     1.221955976698     1.007825032070

  Charge       = 0
  Multiplicity = 1
  Basis Set: 6-31G*
  Basis Set:

    Orbital Energies (a.u.)
    -----------------------

    Doubly Occupied:

       1A    -20.604924     2A    -20.543508     3A    -11.378003
       4A    -11.284514     5A    -11.235971     6A    -11.215924
       7A    -11.194814     8A    -11.192082     9A     -1.475607
      10A     -1.370749    11A     -1.078532    12A     -1.022966
      13A     -0.975626    14A     -0.884109    15A     -0.809465
      16A     -0.760470    17A     -0.694830    18A     -0.693319
      19A     -0.678454    20A     -0.613882    21A     -0.599869
      22A     -0.589271    23A     -0.571442    24A     -0.550032
      25A     -0.545774    26A     -0.522855    27A     -0.512003
      28A     -0.499924    29A     -0.463112    30A     -0.453010
      31A     -0.438079    32A     -0.404671

  @DF-RHF Final Energy:  -383.90043107846213

   => Energetics <=

    Nuclear Repulsion Energy =            409.4746581694537326
    One-Electron Energy =               -1335.0346995581439842
    Two-Electron Energy =                 541.6596103102289135
    DFT Exchange-Correlation Energy =       0.0000000000000000
    Empirical Dispersion Energy =           0.0000000000000000
    PCM Polarization Energy =               0.0000000000000000
    EFP Energy =                            0.0000000000000000
    Total Energy =                       -383.9004310784613381

  Mulliken Charges: (a.u.)
   Center  Symbol    Alpha    Beta     Spin     Total
       1     O     4.28190  4.28190  0.00000 -0.56381
       2     C     2.62073  2.62073  0.00000  0.75854
       3     C     3.28110  3.28110  0.00000 -0.56220
       4     O     4.30546  4.30546  0.00000 -0.61091
       5     H     0.40083  0.40083  0.00000  0.19834
       6     H     0.39708  0.39708  0.00000  0.20584
       7     H     0.39888  0.39888  0.00000  0.20223
       8     C     3.01172  3.01172  0.00000 -0.02345
       9     C     3.16612  3.16612  0.00000 -0.33224
      10     H     0.40789  0.40789  0.00000  0.18422
      11     H     0.40589  0.40589  0.00000  0.18823
      12     C     3.14601  3.14601  0.00000 -0.29201
      13     H     0.42279  0.42279  0.00000  0.15443
      14     H     0.41810  0.41810  0.00000  0.16380
      15     C     3.23763  3.23763  0.00000 -0.47526
      16     H     0.41401  0.41401  0.00000  0.17199
      17     H     0.40736  0.40736  0.00000  0.18528
      18     H     0.42004  0.42004  0.00000  0.15992
      19     H     0.42824  0.42824  0.00000  0.14352
      20     H     0.42822  0.42822  0.00000  0.14355

   Total alpha = 32.00000, Total beta = 32.00000, Total charge =  0.00000
