  ==> Input File <==

--------------------------------------------------------------------------
set {
	reference rhf
	basis 6-31G*
}

set_num_threads( 4 )
memory 2 gb

molecule MOL {
0 1

O	 1.072327	 1.122716	 0.639143
C	 1.122059	 0.121804	 -0.000188
C	 0.031099	 -0.397665	 -0.904540
O	 2.172624	 -0.688929	 0.000216
C	 -1.203217	 0.498109	 -0.941875
H	 0.460548	 -0.517653	 -1.895464
H	 -0.219833	 -1.399932	 -0.568018
C	 -2.292418	 -0.051053	 -1.864605
H	 -0.914158	 1.493283	 -1.265262
H	 -1.595255	 0.610135	 0.064236
C	 -3.533301	 0.839688	 -1.906961
H	 -1.894114	 -0.162103	 -2.871132
H	 -2.576471	 -1.049296	 -1.537656
H	 -3.288024	 1.835995	 -2.263144
H	 -4.289495	 0.428172	 -2.568097
H	 -3.975600	 0.941955	 -0.920273
C	 3.452279	 -0.082609	 0.000533
H	 3.583069	 0.529321	 -0.880332
H	 4.163299	 -0.894027	 0.001117
H	 3.582335	 0.529955	 0.881077

	symmetry c1
}
set optking {
	frozen_dihedral = ("
		1 2 4 17
	")
}

ee = optimize('scf')
oeprop('DIPOLE', 'QUADRUPOLE', 'MULLIKEN_CHARGES')
f=open( 'psi4out.xyz', 'w' )
f.write( "20  " )
f.write( str(ee) + "\n" )
f.write( MOL.save_string_xyz() )
f.close()
--------------------------------------------------------------------------

    Molecular point group: c1
  Charge       = 0
  Multiplicity = 1
  Basis Set: 6-31G*
  Basis Set:
  @DF-RHF Final Energy:  -383.93306751373842
    Total Energy =                       -383.9330675137384787
    Molecular point group: c1
  Basis Set: 6-31G*
  Basis Set:
  Basis Set: 6-31G*
  Basis Set:
  @DF-RHF Final Energy:  -383.93027490029601
    Total Energy =                       -383.9302749002963537
  Basis Set: 6-31G*
  Basis Set:
  Basis Set: 6-31G*
  Basis Set:
  @DF-RHF Final Energy:  -383.93368824718823
    Total Energy =                       -383.9336882471882291
  Basis Set: 6-31G*
  Basis Set:
  Basis Set: 6-31G*
  Basis Set:
  @DF-RHF Final Energy:  -383.93374950346856
    Total Energy =                       -383.9337495034686754
  Basis Set: 6-31G*
  Basis Set:
  Basis Set: 6-31G*
  Basis Set:
  @DF-RHF Final Energy:  -383.93375861147319
    Total Energy =                       -383.9337586114736496
  Basis Set: 6-31G*
  Basis Set:
  Charge       = 0
  Multiplicity = 1
  Basis Set: 6-31G*
  Basis Set:

    Orbital Energies (a.u.)
    -----------------------

    Doubly Occupied:

       1A    -20.596171     2A    -20.549723     3A    -11.373637
       4A    -11.284354     5A    -11.236270     6A    -11.220717
       7A    -11.219682     8A    -11.210950     9A     -1.464302
      10A     -1.364338    11A     -1.088785    12A     -1.022792
      13A     -0.969163    14A     -0.888431    15A     -0.804736
      16A     -0.766365    17A     -0.696141    18A     -0.680125
      19A     -0.672307    20A     -0.644957    21A     -0.602949
      22A     -0.592658    23A     -0.581286    24A     -0.544780
      25A     -0.535444    26A     -0.518336    27A     -0.501964
      28A     -0.479618    29A     -0.475398    30A     -0.470369
      31A     -0.453601    32A     -0.434606

  @DF-RHF Final Energy:  -383.93375854113845

   => Energetics <=

    Nuclear Repulsion Energy =            380.6186148580931103
    One-Electron Energy =               -1277.2148312139665904
    Two-Electron Energy =                 512.6624578147351485
    DFT Exchange-Correlation Energy =       0.0000000000000000
    Empirical Dispersion Energy =           0.0000000000000000
    PCM Polarization Energy =               0.0000000000000000
    EFP Energy =                            0.0000000000000000
    Total Energy =                       -383.9337585411383316
    Molecular point group: c1
  Basis Set: 6-31G*
  Basis Set:

  -Total Gradient:
     Atom            X                  Y                   Z
    ------   -----------------  -----------------  -----------------
       1       -0.004672077687    -0.004609798728     0.007361501136
       2        0.007111192778     0.006738704762    -0.014610322176
       3        0.000070380964     0.000060011701    -0.000058538634
       4       -0.002962669805    -0.001934412094     0.014909836166
       5       -0.000005344192    -0.000024115616     0.000015070661
       6        0.000023352758    -0.000040351183     0.000009786213
       7       -0.000064558254     0.000029504908     0.000059534928
       8       -0.000011383626    -0.000008026011     0.000009298614
       9       -0.000005704799     0.000003749688     0.000006571964
      10        0.000002690553    -0.000012136165     0.000005670363
      11        0.000009833051     0.000012483806    -0.000015350447
      12        0.000007515626    -0.000009245006     0.000006583502
      13       -0.000010183302     0.000002573847     0.000008461028
      14       -0.000003075785     0.000006726979     0.000002253490
      15        0.000005408809     0.000002805956    -0.000005045987
      16        0.000001954572    -0.000006355125    -0.000001788821
      17        0.000504403676    -0.000196217525    -0.007699397088
      18        0.000000480882    -0.000005154899     0.000003259265
      19       -0.000001742631    -0.000005969977    -0.000002044752
      20       -0.000000473594    -0.000004779322    -0.000005339424

  **** Optimization is complete! (in 6 steps) ****
    Final optimized geometry and variables:
    Molecular point group: c1

    Geometry (in Angstrom), charge = 0, multiplicity = 1:

    O            0.969240097781     1.013300848708     1.153971747724
    C            1.010135157218    -0.003768203902     0.544761283140
    C           -0.095085891120    -0.542587329116    -0.328587766049
    O            2.026834943353    -0.867805446703     0.635176946397
    C           -1.351513343026     0.322039549977    -0.330234767893
    H            0.311086414592    -0.649300029177    -1.331911652061
    H           -0.309076758557    -1.552838713508     0.009203837231
    C           -2.449331582045    -0.247419277142    -1.230170505954
    H           -1.095288786636     1.326462686140    -0.652562996886
    H           -1.721436859186     0.416779015173     0.686185616223
    C           -3.710281617392     0.615636771515    -1.240017141322
    H           -2.071903061892    -0.345281575080    -2.246130395861
    H           -2.703494441507    -1.253082045654    -0.901535451711
    H           -3.495286270581     1.618838713081    -1.596462815510
    H           -4.471911256560     0.190437665565    -1.886082282564
    H           -4.132284352307     0.703351782572    -0.243104754559
    C            3.332654541842    -0.324712904438     0.704424235913
    H            3.540773271737     0.262164569949    -0.181596609506
    H            4.006036966393    -1.166426469167     0.748980525894
    H            3.449915456061     0.292667068653     1.582679058190

  Mulliken Charges: (a.u.)
   Center  Symbol    Alpha    Beta     Spin     Total
       1     O     4.27491  4.27491  0.00000 -0.54981
       2     C     2.60495  2.60495  0.00000  0.79010
       3     C     3.21068  3.21068  0.00000 -0.42136
       4     O     4.31176  4.31176  0.00000 -0.62352
       5     C     3.15147  3.15147  0.00000 -0.30294
       6     H     0.40395  0.40395  0.00000  0.19210
       7     H     0.39861  0.39861  0.00000  0.20278
       8     C     3.15415  3.15415  0.00000 -0.30830
       9     H     0.41195  0.41195  0.00000  0.17611
      10     H     0.41192  0.41192  0.00000  0.17617
      11     C     3.23932  3.23932  0.00000 -0.47863
      12     H     0.42335  0.42335  0.00000  0.15331
      13     H     0.42257  0.42257  0.00000  0.15485
      14     H     0.42007  0.42007  0.00000  0.15985
      15     H     0.41870  0.41870  0.00000  0.16260
      16     H     0.41977  0.41977  0.00000  0.16046
      17     C     3.09447  3.09447  0.00000 -0.18893
      18     H     0.41758  0.41758  0.00000  0.16484
      19     H     0.40661  0.40661  0.00000  0.18679
      20     H     0.40322  0.40322  0.00000  0.19355

   Total alpha = 32.00000, Total beta = 32.00000, Total charge =  0.00000
