  ==> Input File <==

--------------------------------------------------------------------------
set {
	reference rhf
	basis 6-31G*
}

set_num_threads( 4 )
memory 2 gb

molecule MOL {
0 1

H	 2.591676	 2.013956	 0.335017
O	 3.341076	 1.666752	 -0.126416
C	 3.569581	 0.339145	 0.272707
C	 5.016962	 0.071704	 0.670565
H	 2.920036	 0.171260	 1.122166
H	 3.262216	 -0.352572	 -0.510768
C	 6.017916	 0.235286	 -0.475821
H	 5.280661	 0.742804	 1.483864
H	 5.078960	 -0.941995	 1.062913
C	 7.454173	 -0.092545	 -0.058078
H	 5.971916	 1.255249	 -0.847207
H	 5.729817	 -0.413192	 -1.303357
C	 8.485082	 -0.027279	 -1.190910
H	 7.756429	 0.579943	 0.742702
H	 7.471223	 -1.094519	 0.365545
C	 8.723063	 1.371733	 -1.765896
H	 9.430510	 -0.413061	 -0.815204
H	 8.181880	 -0.699758	 -1.991958
C	 9.833618	 1.402789	 -2.818103
H	 8.977546	 2.054151	 -0.956171
H	 7.807508	 1.754405	 -2.210445
C	 10.068842	 2.796948	 -3.398323
H	 10.757666	 1.035241	 -2.377045
H	 9.585724	 0.714241	 -3.623295
H	 10.350686	 3.502379	 -2.621693
H	 10.862484	 2.786412	 -4.139037
H	 9.172571	 3.178020	 -3.879829

	symmetry c1
}
set optking {
	frozen_dihedral = ("
		4 3 2 1
	")
}

ee = optimize('scf')
oeprop('DIPOLE', 'QUADRUPOLE', 'MULLIKEN_CHARGES')
f=open( 'psi4out.xyz', 'w' )
f.write( "27  " )
f.write( str(ee) + "\n" )
f.write( MOL.save_string_xyz() )
f.close()
--------------------------------------------------------------------------

    Molecular point group: c1
  Charge       = 0
  Multiplicity = 1
  Basis Set: 6-31G*
  Basis Set:
  @DF-RHF Final Energy:  -388.27882781892555
    Total Energy =                       -388.2788278189253788
    Molecular point group: c1
  Basis Set: 6-31G*
  Basis Set:
  Basis Set: 6-31G*
  Basis Set:
  @DF-RHF Final Energy:  -388.28000750899906
    Total Energy =                       -388.2800075089992333
  Basis Set: 6-31G*
  Basis Set:
  Basis Set: 6-31G*
  Basis Set:
  @DF-RHF Final Energy:  -388.28040331235195
    Total Energy =                       -388.2804033123524050
  Basis Set: 6-31G*
  Basis Set:
  Basis Set: 6-31G*
  Basis Set:
  @DF-RHF Final Energy:  -388.28040828809208
    Total Energy =                       -388.2804082880927581
  Basis Set: 6-31G*
  Basis Set:
  Basis Set: 6-31G*
  Basis Set:
  @DF-RHF Final Energy:  -388.28040930222812
    Total Energy =                       -388.2804093022283496
  Basis Set: 6-31G*
  Basis Set:
  Charge       = 0
  Multiplicity = 1
  Basis Set: 6-31G*
  Basis Set:

    Orbital Energies (a.u.)
    -----------------------

    Doubly Occupied:

       1A    -20.551507     2A    -11.268180     3A    -11.211304
       4A    -11.210043     5A    -11.208701     6A    -11.208083
       7A    -11.206552     8A    -11.205189     9A    -11.204048
      10A     -1.357910    11A     -1.087236    12A     -1.055431
      13A     -1.007076    14A     -0.942160    15A     -0.879194
      16A     -0.811901    17A     -0.795061    18A     -0.770672
      19A     -0.699629    20A     -0.645975    21A     -0.639304
      22A     -0.607806    23A     -0.586299    24A     -0.582750
      25A     -0.567762    26A     -0.544669    27A     -0.536955
      28A     -0.520425    29A     -0.504597    30A     -0.495221
      31A     -0.475215    32A     -0.468523    33A     -0.459823
      34A     -0.453367    35A     -0.443224    36A     -0.431812
      37A     -0.424200

  @DF-RHF Final Energy:  -388.28040941510221

   => Energetics <=

    Nuclear Repulsion Energy =            459.9543958015724456
    One-Electron Energy =               -1438.3340073316446706
    Two-Electron Energy =                 590.0992021149700122
    DFT Exchange-Correlation Energy =       0.0000000000000000
    Empirical Dispersion Energy =           0.0000000000000000
    PCM Polarization Energy =               0.0000000000000000
    EFP Energy =                            0.0000000000000000
    Total Energy =                       -388.2804094151022127
    Molecular point group: c1
  Basis Set: 6-31G*
  Basis Set:

  -Total Gradient:
     Atom            X                  Y                   Z
    ------   -----------------  -----------------  -----------------
       1        0.000496126299     0.000207097823     0.000600936204
       2       -0.000632591419    -0.000259409602    -0.000550228019
       3        0.000238202296    -0.000121881138    -0.000505217377
       4       -0.000102345759     0.000155256944     0.000458705488
       5       -0.000006056849     0.000010130967     0.000000059902
       6        0.000003215372     0.000008296537    -0.000005314535
       7       -0.000000909502    -0.000008516725    -0.000000469483
       8        0.000003050103    -0.000000029152     0.000004069974
       9       -0.000008547076     0.000004602413    -0.000001748147
      10        0.000004610321     0.000003879485     0.000003260781
      11        0.000004224684     0.000000664841     0.000001789243
      12       -0.000002112759     0.000000818636    -0.000001861112
      13        0.000002657039    -0.000006831430    -0.000003716287
      14       -0.000001697572    -0.000001143630     0.000003288084
      15       -0.000003344125     0.000004345705     0.000001119163
      16        0.000002699426    -0.000001044288    -0.000000406303
      17        0.000001026609     0.000004247874    -0.000004535037
      18        0.000003518506    -0.000002394326    -0.000001206605
      19       -0.000000780835     0.000003145804    -0.000000784588
      20        0.000001258989     0.000000000505    -0.000000936320
      21       -0.000002114741    -0.000001713208     0.000001869650
      22        0.000001012220    -0.000000085861    -0.000000085328
      23       -0.000000419388    -0.000000445500     0.000000673699
      24       -0.000000707617     0.000000672698     0.000000827093
      25        0.000000185228     0.000000217191    -0.000000068775
      26        0.000000003268     0.000000263578    -0.000000036833
      27       -0.000000162717    -0.000000146138     0.000000015465

  **** Optimization is complete! (in 6 steps) ****
    Final optimized geometry and variables:
    Molecular point group: c1

    Geometry (in Angstrom), charge = 0, multiplicity = 1:

    H           -4.135471759811     1.229065655555     1.272131429269
    O           -3.416024993683     0.806664153749     0.829434729431
    C           -3.312474483557    -0.537361015981     1.241237993823
    C           -1.881489929528    -0.856874593103     1.646512183669
    H           -3.979165784652    -0.731976921919     2.077596211559
    H           -3.623856021104    -1.182878118125     0.423825855643
    C           -0.876302287010    -0.680267591650     0.507088030261
    H           -1.607625541344    -0.215288799385     2.480670540419
    H           -1.849286274882    -1.882705897112     2.010666453159
    C            0.560898737703    -0.984183621494     0.938572775202
    H           -0.952718065922     0.333251732169     0.131037468878
    H           -1.150445810880    -1.339443696701    -0.315977921751
    C            1.596710339459    -0.915577275115    -0.189702643171
    H            0.850795131725    -0.298318106291     1.733159751803
    H            0.592774027072    -1.981373350325     1.373922719619
    C            1.813513844053     0.481118700131    -0.778233040935
    H            2.547072154874    -1.282624161426     0.193042158460
    H            1.306657990719    -1.600522945111    -0.985046939995
    C            2.921680988434     0.518400121387    -1.832728093551
    H            2.060137426074     1.174270933255     0.024951694525
    H            0.891426997654     0.845951046744    -1.223162524185
    C            3.137767397884     1.911082827079    -2.423950864579
    H            3.851632122405     0.165882926718    -1.391380013915
    H            2.680801887968    -0.178961868509    -2.632494171678
    H            3.412916927147     2.625644949882    -1.653193610716
    H            3.929381842053     1.905393991669    -3.167100176164
    H            2.235099852904     2.277133681667    -2.904970693621

  Mulliken Charges: (a.u.)
   Center  Symbol    Alpha    Beta     Spin     Total
       1     H     0.27915  0.27915  0.00000  0.44169
       2     O     4.37253  4.37253  0.00000 -0.74505
       3     C     2.99941  2.99941  0.00000  0.00117
       4     C     3.15605  3.15605  0.00000 -0.31209
       5     H     0.42974  0.42974  0.00000  0.14053
       6     H     0.42559  0.42559  0.00000  0.14882
       7     C     3.15778  3.15778  0.00000 -0.31556
       8     H     0.42082  0.42082  0.00000  0.15837
       9     H     0.42608  0.42608  0.00000  0.14783
      10     C     3.15303  3.15303  0.00000 -0.30607
      11     H     0.40467  0.40467  0.00000  0.19067
      12     H     0.42645  0.42645  0.00000  0.14711
      13     C     3.15272  3.15272  0.00000 -0.30543
      14     H     0.42419  0.42419  0.00000  0.15162
      15     H     0.42449  0.42449  0.00000  0.15102
      16     C     3.15285  3.15285  0.00000 -0.30570
      17     H     0.42331  0.42331  0.00000  0.15338
      18     H     0.42463  0.42463  0.00000  0.15073
      19     C     3.15098  3.15098  0.00000 -0.30196
      20     H     0.42496  0.42496  0.00000  0.15008
      21     H     0.41977  0.41977  0.00000  0.16046
      22     C     3.23900  3.23900  0.00000 -0.47800
      23     H     0.42412  0.42412  0.00000  0.15177
      24     H     0.42361  0.42361  0.00000  0.15278
      25     H     0.42221  0.42221  0.00000  0.15558
      26     H     0.42040  0.42040  0.00000  0.15920
      27     H     0.42147  0.42147  0.00000  0.15706

   Total alpha = 37.00000, Total beta = 37.00000, Total charge =  0.00000
