  ==> Input File <==

--------------------------------------------------------------------------
set {
	reference rhf
	basis 6-31G*
}

set_num_threads( 4 )
memory 2 gb

molecule MOL {
0 1

H	 -2.499100	 -0.730091	 -0.745082
O	 -2.347518	 -0.290803	 0.079804
C	 -1.184022	 0.487508	 -0.006784
C	 0.062599	 -0.378592	 0.031606
H	 -1.176523	 1.099369	 -0.904519
H	 -1.187323	 1.153111	 0.844927
O	 1.171513	 0.459272	 -0.058250
H	 0.050699	 -1.089204	 -0.797170
H	 0.078739	 -0.954914	 0.954740
C	 0.864801	 1.813310	 -0.166194
H	 0.310780	 2.166187	 0.701658
H	 1.797941	 2.355565	 -0.230314
H	 0.275814	 2.017243	 -1.057989

	symmetry c1
}
set optking {
	frozen_dihedral = ("
		10 7 4 8
	")
}

ee = optimize('scf')
oeprop('DIPOLE', 'QUADRUPOLE', 'MULLIKEN_CHARGES')
f=open( 'psi4out.xyz', 'w' )
f.write( "13  " )
f.write( str(ee) + "\n" )
f.write( MOL.save_string_xyz() )
f.close()
--------------------------------------------------------------------------

    Molecular point group: c1
  Charge       = 0
  Multiplicity = 1
  Basis Set: 6-31G*
  Basis Set:
  @DF-RHF Final Energy:  -267.91839361322423
    Total Energy =                       -267.9183936132243389
    Molecular point group: c1
  Basis Set: 6-31G*
  Basis Set:
  Basis Set: 6-31G*
  Basis Set:
  @DF-RHF Final Energy:  -267.92630406088523
    Total Energy =                       -267.9263040608851725
  Basis Set: 6-31G*
  Basis Set:
  Basis Set: 6-31G*
  Basis Set:
  @DF-RHF Final Energy:  -267.93358314333238
    Total Energy =                       -267.9335831433323278
  Basis Set: 6-31G*
  Basis Set:
  Basis Set: 6-31G*
  Basis Set:
  @DF-RHF Final Energy:  -267.93664657833784
    Total Energy =                       -267.9366465783378999
  Basis Set: 6-31G*
  Basis Set:
  @DF-RHF Final Energy:  -267.93741383857594
    Total Energy =                       -267.9374138385758783
  @DF-RHF Final Energy:  -267.93818513823680
    Total Energy =                       -267.9381851382366904
  Basis Set: 6-31G*
  Basis Set:
  @DF-RHF Final Energy:  -267.93833409191706
    Total Energy =                       -267.9383340919166585
  Basis Set: 6-31G*
  Basis Set:
  Basis Set: 6-31G*
  Basis Set:
  @DF-RHF Final Energy:  -267.93835207029628
    Total Energy =                       -267.9383520702962187
  Basis Set: 6-31G*
  Basis Set:
  Basis Set: 6-31G*
  Basis Set:
  @DF-RHF Final Energy:  -267.93835339141367
    Total Energy =                       -267.9383533914136137
  Basis Set: 6-31G*
  Basis Set:
  Charge       = 0
  Multiplicity = 1
  Basis Set: 6-31G*
  Basis Set:

    Orbital Energies (a.u.)
    -----------------------

    Doubly Occupied:

       1A    -20.567031     2A    -20.555778     3A    -11.278849
       4A    -11.271895     5A    -11.271368     6A     -1.381067
       7A     -1.368787     8A     -1.013886     9A     -0.940263
      10A     -0.828256    11A     -0.713647    12A     -0.675822
      13A     -0.662143    14A     -0.633463    15A     -0.598821
      16A     -0.562874    17A     -0.548429    18A     -0.515741
      19A     -0.490542    20A     -0.429607    21A     -0.409524

  @DF-RHF Final Energy:  -267.93835353231316

   => Energetics <=

    Nuclear Repulsion Energy =            192.5328370018272892
    One-Electron Energy =                -747.5068008986498853
    Two-Electron Energy =                 287.0356103645096937
    DFT Exchange-Correlation Energy =       0.0000000000000000
    Empirical Dispersion Energy =           0.0000000000000000
    PCM Polarization Energy =               0.0000000000000000
    EFP Energy =                            0.0000000000000000
    Total Energy =                       -267.9383535323129308
    Molecular point group: c1
  Basis Set: 6-31G*
  Basis Set:

  -Total Gradient:
     Atom            X                  Y                   Z
    ------   -----------------  -----------------  -----------------
       1       -0.000009323197    -0.000003505916     0.000000944001
       2       -0.000015970093    -0.000005770521    -0.000021365240
       3        0.000003709689    -0.000009807843     0.000036954107
       4       -0.000449094395     0.000676730458    -0.000177848181
       5       -0.000001878344     0.000000720923    -0.000002858097
       6       -0.000000917282    -0.000000638824    -0.000006178006
       7        0.000118931997    -0.000205690982    -0.000872553298
       8        0.000379410449    -0.000492072065     0.000406450997
       9        0.000004218020     0.000010622162     0.000000976101
      10       -0.000043274188     0.000035761507     0.000643748422
      11        0.000015941506     0.000008073836    -0.000003826320
      12       -0.000000707230    -0.000025954773     0.000004375176
      13       -0.000001046933     0.000011532037    -0.000008819663

  **** Optimization is complete! (in 10 steps) ****
    Final optimized geometry and variables:
    Molecular point group: c1

    Geometry (in Angstrom), charge = 0, multiplicity = 1:

    H           -2.112363930205    -1.401653276625    -0.670961181458
    O           -2.050925727004    -0.914987008702     0.139360942141
    C           -1.020560068274     0.031636470795     0.045815537476
    C            0.328000106023    -0.686405813968     0.034383223859
    H           -1.148405053035     0.655335051302    -0.834361158082
    H           -1.116987872159     0.664472786668     0.916678147880
    O            1.485528115568     0.105400093719    -0.031204950727
    H            0.346051431526    -1.370845088135    -0.811446068570
    H            0.386534239385    -1.290741016392     0.932490955011
    C            1.398661945641     1.492717027448    -0.141833284523
    H            0.874344599161     1.945753997375     0.694744440275
    H            2.415045573081     1.861444634581    -0.143482840136
    H            0.921616055246     1.807665232194    -1.066304656931

  Mulliken Charges: (a.u.)
   Center  Symbol    Alpha    Beta     Spin     Total
       1     H     0.28035  0.28035  0.00000  0.43931
       2     O     4.36974  4.36974  0.00000 -0.73948
       3     C     3.01937  3.01937  0.00000 -0.03875
       4     C     2.98513  2.98513  0.00000  0.02975
       5     H     0.42525  0.42525  0.00000  0.14951
       6     H     0.41016  0.41016  0.00000  0.17968
       7     O     4.31619  4.31619  0.00000 -0.63237
       8     H     0.43156  0.43156  0.00000  0.13688
       9     H     0.41425  0.41425  0.00000  0.17151
      10     C     3.08188  3.08188  0.00000 -0.16376
      11     H     0.42802  0.42802  0.00000  0.14396
      12     H     0.40866  0.40866  0.00000  0.18268
      13     H     0.42946  0.42946  0.00000  0.14107

   Total alpha = 21.00000, Total beta = 21.00000, Total charge = -0.00000
