                              Psi4 1.0.54 Driver

  ==> Input File <==

--------------------------------------------------------------------------
set {
	reference rhf
	basis cc-pvtz
}

set_num_threads( 4 )
memory 2 gb

molecule MOL {
0 1

H	 -1.835082	 1.385983	 0.000069
C	 -1.300516	 0.441153	 -0.000028
O	 -0.006604	 0.654344	 -0.000106
O	 -1.828920	 -0.612308	 0.000113
C	 0.852093	 -0.482521	 -0.000161
C	 1.992347	 -0.199152	 0.948641
H	 1.204237	 -0.654155	 -1.007382
H	 0.283984	 -1.349337	 0.306180
H	 2.549746	 0.673156	 0.631852
H	 2.666181	 -1.047245	 0.971889
H	 1.624864	 -0.025492	 1.952019

	symmetry c1
}
set optking {
	frozen_dihedral = ("
		7 5 3 2
	")
}

ee,wfn = optimize('scf', return_wfn=True)
oeprop( wfn, 'DIPOLE', 'QUADRUPOLE', 'MULLIKEN_CHARGES')
f=open( 'psi4out.xyz', 'w' )
f.write( "11  " )
f.write( str(ee) + "\n" )
f.write( MOL.save_string_xyz() )
f.close()
--------------------------------------------------------------------------

    Molecular point group: c1
  Charge       = 0
  Multiplicity = 1
  Basis Set: CC-PVTZ
  Basis Set:
  @DF-RHF Final Energy:  -266.92981108703327
    Total Energy =                       -266.9298110870332721
    Molecular point group: c1
  Basis Set: CC-PVTZ
  Basis Set:
  Basis Set: CC-PVTZ
  Basis Set:
  @DF-RHF Final Energy:  -266.93005672389233
    Total Energy =                       -266.9300567238924486
  Basis Set: CC-PVTZ
  Basis Set:
  Basis Set: CC-PVTZ
  Basis Set:
  @DF-RHF Final Energy:  -266.93020124353757
    Total Energy =                       -266.9302012435374536
  Basis Set: CC-PVTZ
  Basis Set:
  Basis Set: CC-PVTZ
  Basis Set:
  @DF-RHF Final Energy:  -266.92996419668646
    Total Energy =                       -266.9299641966863419
  Basis Set: CC-PVTZ
  Basis Set:
  Basis Set: CC-PVTZ
  Basis Set:
  @DF-RHF Final Energy:  -266.93029981054610
    Total Energy =                       -266.9302998105460460
  Basis Set: CC-PVTZ
  Basis Set:
  Charge       = 0
  Multiplicity = 1
  Basis Set: CC-PVTZ
  Basis Set:

    Orbital Energies (a.u.)
    -----------------------

    Doubly Occupied:

       1A    -20.604955     2A    -20.544898     3A    -11.371041
       4A    -11.289081     5A    -11.225010     6A     -1.477471
       7A     -1.377628     8A     -1.053458     9A     -0.906614
      10A     -0.802788    11A     -0.745553    12A     -0.688509
      13A     -0.676883    14A     -0.604161    15A     -0.573438
      16A     -0.557376    17A     -0.530244    18A     -0.507242
      19A     -0.462194    20A     -0.456113

  @DF-RHF Final Energy:  -266.93030140630452

   => Energetics <=

    Nuclear Repulsion Energy =            179.6176232371607284
    One-Electron Energy =                -720.1865350455482258
    Two-Electron Energy =                 273.6386104020830317
    DFT Exchange-Correlation Energy =       0.0000000000000000
    Empirical Dispersion Energy =           0.0000000000000000
    PCM Polarization Energy =               0.0000000000000000
    EFP Energy =                            0.0000000000000000
    Total Energy =                       -266.9303014063044657
    Molecular point group: c1
  Basis Set: CC-PVTZ
  Basis Set:

  -Total Gradient:
     Atom            X                  Y                   Z
    ------   -----------------  -----------------  -----------------
       1        0.000027685279    -0.000034449555    -0.000001055819
       2        0.000086692742     0.000057264034     0.001082454493
       3        0.000168869148     0.000203088387    -0.001537366268
       4       -0.000017719498    -0.000036109484    -0.000001227470
       5       -0.001202882337    -0.000841760863     0.000259353439
       6       -0.000001846424    -0.000003409620    -0.000023032081
       7        0.000935779262     0.000704712379     0.000236497096
       8        0.000010341116    -0.000042205759    -0.000001936393
       9       -0.000004438561    -0.000007500472     0.000004224833
      10        0.000003194495     0.000010276032     0.000006090902
      11       -0.000005675221    -0.000009905079    -0.000024002733

  **** Optimization is complete! (in 6 steps) ****
    Final optimized geometry and variables:
    Molecular point group: c1

    Geometry (in Angstrom), charge = 0, multiplicity = 1:

    H           -1.718883695049     1.489331113372    -0.200713744516
    C           -1.234013087997     0.518109117434    -0.208049549763
    O            0.068655876383     0.673850686489    -0.186138406699
    O           -1.820395385511    -0.503749188109    -0.232860545069
    C            0.914107227463    -0.474451857362    -0.160318780993
    C            2.069080360418    -0.196557038237     0.775136561844
    H            1.268516750888    -0.638204551452    -1.169152226768
    H            0.343313124924    -1.333189474461     0.150967769529
    H            2.615281669253     0.684568260826     0.463437779561
    H            2.749759237699    -1.039861582980     0.774893329896
    H            1.716269020179    -0.041726519817     1.787064875377

  Mulliken Charges: (a.u.)
   Center  Symbol    Alpha    Beta     Spin     Total
       1     H     0.45040  0.45040  0.00000  0.09921
       2     C     2.84133  2.84133  0.00000  0.31733
       3     O     4.14753  4.14753  0.00000 -0.29506
       4     O     4.19579  4.19579  0.00000 -0.39158
       5     C     2.97828  2.97828  0.00000  0.04343
       6     C     3.13241  3.13241  0.00000 -0.26481
       7     H     0.45416  0.45416  0.00000  0.09168
       8     H     0.44401  0.44401  0.00000  0.11198
       9     H     0.45041  0.45041  0.00000  0.09917
      10     H     0.45454  0.45454  0.00000  0.09092
      11     H     0.45113  0.45113  0.00000  0.09773

   Total alpha = 20.00000, Total beta = 20.00000, Total charge = -0.00000

*** Psi4 exiting successfully. Buy a developer a beer!
