  ==> Input File <==

--------------------------------------------------------------------------
set {
	reference rhf
	basis 6-31G*
}

set_num_threads( 1 )
memory 2 gb

molecule MOL {
0 1

O	 0.074228	 1.262779	 -0.000085
C	 0.028650	 0.075053	 -0.000277
C	 -1.233602	 -0.752807	 0.000328
O	 1.109162	 -0.694619	 -0.000298
C	 -2.501530	 0.091881	 0.000126
H	 -1.193807	 -1.406641	 -0.865785
H	 -1.193516	 -1.405779	 0.867015
H	 -2.545121	 0.729328	 -0.874513
H	 -3.377167	 -0.548497	 0.000561
H	 -2.544818	 0.730135	 0.874258
C	 1.883286	 -0.715488	 1.185402
H	 2.254067	 0.273225	 1.414271
H	 2.704656	 -1.386981	 0.989669
H	 1.294891	 -1.075674	 2.016984

	symmetry c1
}
set optking {
	frozen_dihedral = ("
		4 2 3 6
	")
}

ee = energy('scf')
oeprop('DIPOLE', 'QUADRUPOLE', 'MULLIKEN_CHARGES')
f=open( 'psi4out.xyz', 'w' )
f.write( "14  " )
f.write( str(ee) + "\n" )
f.write( MOL.save_string_xyz() )
f.close()
--------------------------------------------------------------------------

    Molecular point group: c1

    Geometry (in Angstrom), charge = 0, multiplicity = 1:

       Center              X                  Y                   Z               Mass
    ------------   -----------------  -----------------  -----------------  -----------------
           O          0.160391965682     1.383747344306    -0.212207345130    15.994914619560
           C          0.114813965682     0.196021344306    -0.212399345130    12.000000000000
           C         -1.147438034318    -0.631838655694    -0.211794345130    12.000000000000
           O          1.195325965682    -0.573650655694    -0.212420345130    15.994914619560
           C         -2.415366034318     0.212849344306    -0.211996345130    12.000000000000
           H         -1.107643034318    -1.285672655694    -1.077907345130     1.007825032070
           H         -1.107352034318    -1.284810655694     0.654892654870     1.007825032070
           H         -2.458957034318     0.850296344306    -1.086635345130     1.007825032070
           H         -3.291003034318    -0.427528655694    -0.211561345130     1.007825032070
           H         -2.458654034318     0.851103344306     0.662135654870     1.007825032070
           C          1.969449965682    -0.594519655694     0.973279654870    12.000000000000
           H          2.340230965682     0.394193344306     1.202148654870     1.007825032070
           H          2.790819965682    -1.266012655694     0.777546654870     1.007825032070
           H          1.381054965682    -0.954705655694     1.804861654870     1.007825032070

  Charge       = 0
  Multiplicity = 1
  Basis Set: 6-31G*
  Basis Set:

    Orbital Energies (a.u.)
    -----------------------

    Doubly Occupied:

       1A    -20.589214     2A    -20.554213     3A    -11.374062
       4A    -11.292605     5A    -11.239663     6A    -11.216817
       7A     -1.465577     8A     -1.366634     9A     -1.062375
      10A     -0.982309    11A     -0.886824    12A     -0.769686
      13A     -0.699606    14A     -0.680801    15A     -0.673587
      16A     -0.618143    17A     -0.616341    18A     -0.556611
      19A     -0.542584    20A     -0.522616    21A     -0.508450
      22A     -0.491416    23A     -0.456230    24A     -0.436525

  @DF-RHF Final Energy:  -305.85435012206335

   => Energetics <=

    Nuclear Repulsion Energy =            247.2837711891145602
    One-Electron Energy =                -907.0704879092245392
    Two-Electron Energy =                 353.9323665980466558
    DFT Exchange-Correlation Energy =       0.0000000000000000
    Empirical Dispersion Energy =           0.0000000000000000
    PCM Polarization Energy =               0.0000000000000000
    EFP Energy =                            0.0000000000000000
    Total Energy =                       -305.8543501220633516

  Mulliken Charges: (a.u.)
   Center  Symbol    Alpha    Beta     Spin     Total
       1     O     4.26373  4.26373  0.00000 -0.52746
       2     C     2.61441  2.61441  0.00000  0.77119
       3     C     3.20705  3.20705  0.00000 -0.41411
       4     O     4.31001  4.31001  0.00000 -0.62003
       5     C     3.24003  3.24003  0.00000 -0.48005
       6     H     0.39840  0.39840  0.00000  0.20320
       7     H     0.40667  0.40667  0.00000  0.18667
       8     H     0.40873  0.40873  0.00000  0.18254
       9     H     0.41849  0.41849  0.00000  0.16303
      10     H     0.41120  0.41120  0.00000  0.17761
      11     C     3.09379  3.09379  0.00000 -0.18758
      12     H     0.40433  0.40433  0.00000  0.19134
      13     H     0.40295  0.40295  0.00000  0.19410
      14     H     0.42022  0.42022  0.00000  0.15957

   Total alpha = 24.00000, Total beta = 24.00000, Total charge =  0.00000
