                              Psi4 1.0.54 Driver

  ==> Input File <==

--------------------------------------------------------------------------
set {
	reference rhf
	basis cc-pvtz
}

set_num_threads( 4 )
memory 2 gb

molecule MOL {
0 1

H	 1.267987	 -1.358427	 1.864522
O	 0.593384	 -0.797850	 1.528786
C	 1.135873	 0.113391	 0.608264
C	 0.027642	 1.012027	 0.090274
H	 1.583637	 -0.416092	 -0.228948
H	 1.919616	 0.703181	 1.075551
C	 -1.138737	 0.285728	 -0.581921
H	 0.464661	 1.708096	 -0.618252
H	 -0.340737	 1.603071	 0.925246
C	 -1.933983	 -0.631436	 0.343653
H	 -0.763151	 -0.285569	 -1.422081
H	 -1.808359	 1.035291	 -0.992333
H	 -2.789188	 -1.049673	 -0.174718
H	 -1.335629	 -1.461368	 0.700418
H	 -2.305435	 -0.092167	 1.209725

	symmetry c1
}
set optking {
	frozen_dihedral = ("
		2 3 4 8
	")
}

ee,wfn = optimize('scf', return_wfn=True)
oeprop( wfn, 'DIPOLE', 'QUADRUPOLE', 'MULLIKEN_CHARGES')
f=open( 'psi4out.xyz', 'w' )
f.write( "15  " )
f.write( str(ee) + "\n" )
f.write( MOL.save_string_xyz() )
f.close()
--------------------------------------------------------------------------

    Molecular point group: c1
  Charge       = 0
  Multiplicity = 1
  Basis Set: CC-PVTZ
  Basis Set:
  @DF-RHF Final Energy:  -232.23247865710420
    Total Energy =                       -232.2324786571042523
    Molecular point group: c1
  Basis Set: CC-PVTZ
  Basis Set:
  Basis Set: CC-PVTZ
  Basis Set:
  @DF-RHF Final Energy:  -232.23497723988450
    Total Energy =                       -232.2349772398845857
  Basis Set: CC-PVTZ
  Basis Set:
  Basis Set: CC-PVTZ
  Basis Set:
  @DF-RHF Final Energy:  -232.23546734667983
    Total Energy =                       -232.2354673466795134
  Basis Set: CC-PVTZ
  Basis Set:
  Basis Set: CC-PVTZ
  Basis Set:
  @DF-RHF Final Energy:  -232.23569285527745
    Total Energy =                       -232.2356928552774775
  Basis Set: CC-PVTZ
  Basis Set:
  Basis Set: CC-PVTZ
  Basis Set:
  @DF-RHF Final Energy:  -232.23576694239105
    Total Energy =                       -232.2357669423910238
  Basis Set: CC-PVTZ
  Basis Set:
  Basis Set: CC-PVTZ
  Basis Set:
  @DF-RHF Final Energy:  -232.23577222597936
    Total Energy =                       -232.2357722259793036
  Basis Set: CC-PVTZ
  Basis Set:
  Charge       = 0
  Multiplicity = 1
  Basis Set: CC-PVTZ
  Basis Set:

    Orbital Energies (a.u.)
    -----------------------

    Doubly Occupied:

       1A    -20.547590     2A    -11.267089     3A    -11.212122
       4A    -11.209135     5A    -11.192648     6A     -1.365790
       7A     -1.062781     8A     -0.972090     9A     -0.861024
      10A     -0.779590    11A     -0.708260    12A     -0.646967
      13A     -0.604292    14A     -0.583782    15A     -0.549473
      16A     -0.538249    17A     -0.511358    18A     -0.470391
      19A     -0.466592    20A     -0.450379    21A     -0.432380

  @DF-RHF Final Energy:  -232.23577268067606

   => Energetics <=

    Nuclear Repulsion Energy =            192.4607765322697901
    One-Electron Energy =                -696.5291386608932953
    Two-Electron Energy =                 271.8325894479471572
    DFT Exchange-Correlation Energy =       0.0000000000000000
    Empirical Dispersion Energy =           0.0000000000000000
    PCM Polarization Energy =               0.0000000000000000
    EFP Energy =                            0.0000000000000000
    Total Energy =                       -232.2357726806763480
    Molecular point group: c1
  Basis Set: CC-PVTZ
  Basis Set:

  -Total Gradient:
     Atom            X                  Y                   Z
    ------   -----------------  -----------------  -----------------
       1       -0.000023700899     0.000033700896    -0.000011555663
       2       -0.000182888287    -0.000845857535    -0.001094427103
       3        0.000226669822     0.000896655088     0.001161790259
       4        0.000199712582     0.000984120983     0.001319300600
       5       -0.000009569008     0.000006753134     0.000004908103
       6       -0.000016626151    -0.000013637198    -0.000000604086
       7        0.000024544111    -0.000031568644    -0.000032328550
       8       -0.000257011378    -0.001066424517    -0.001374748670
       9        0.000012377112     0.000011039977     0.000012566112
      10        0.000002311065     0.000034881048    -0.000001858661
      11       -0.000015617517     0.000004754343     0.000011452761
      12        0.000014681955    -0.000010343637     0.000013504292
      13        0.000009744188     0.000009231855     0.000005885072
      14        0.000009294192    -0.000015662827    -0.000007256045
      15        0.000006078214     0.000002357034    -0.000006628421

  **** Optimization is complete! (in 7 steps) ****
    Final optimized geometry and variables:
    Molecular point group: c1

    Geometry (in Angstrom), charge = 0, multiplicity = 1:

    H            1.775261058499    -1.334529141746     1.278517095609
    O            1.021597770685    -0.838157624327     1.018418360137
    C            1.406933766574     0.201097565110     0.157181320221
    C            0.203643158931     1.031262096615    -0.252428931090
    H            1.878931111341    -0.208752966663    -0.733835888598
    H            2.133526388909     0.846024172895     0.645223693457
    C           -0.907422116149     0.275229424552    -0.992151455907
    H            0.582375211969     1.807025106039    -0.912105919030
    H           -0.205001622828     1.528706289659     0.621814467427
    C           -1.882311517785    -0.490696496213    -0.100679954371
    H           -0.458521077897    -0.405503697905    -1.710803336189
    H           -1.472019458857     0.996709664374    -1.574869952869
    H           -2.660247182571    -0.952262181888    -0.699470230974
    H           -1.382539534336    -1.262534979562     0.465151892868
    H           -2.365245951741     0.179321609267     0.603593122413

  Mulliken Charges: (a.u.)
   Center  Symbol    Alpha    Beta     Spin     Total
       1     H     0.39683  0.39683  0.00000  0.20633
       2     O     4.19566  4.19566  0.00000 -0.39132
       3     C     2.97171  2.97171  0.00000  0.05657
       4     C     3.09546  3.09546  0.00000 -0.19093
       5     H     0.47460  0.47460  0.00000  0.05079
       6     H     0.46587  0.46587  0.00000  0.06825
       7     C     3.08433  3.08433  0.00000 -0.16866
       8     H     0.44967  0.44967  0.00000  0.10066
       9     H     0.45302  0.45302  0.00000  0.09396
      10     C     3.14567  3.14567  0.00000 -0.29133
      11     H     0.45814  0.45814  0.00000  0.08371
      12     H     0.45100  0.45100  0.00000  0.09800
      13     H     0.45356  0.45356  0.00000  0.09287
      14     H     0.44492  0.44492  0.00000  0.11016
      15     H     0.45954  0.45954  0.00000  0.08093

   Total alpha = 21.00000, Total beta = 21.00000, Total charge = -0.00000

*** Psi4 exiting successfully. Buy a developer a beer!
