  ==> Input File <==

--------------------------------------------------------------------------
set {
	reference rhf
	basis cc-pvtz
}

set_num_threads( 4 )
memory 2 gb

molecule MOL {
0 1

H	 -1.060214	 1.944844	 -1.452271
C	 -0.872720	 1.090878	 -0.836217
C	 -1.907960	 0.480380	 -0.058578
C	 0.348711	 0.555589	 -0.768347
H	 -2.901364	 0.886889	 -0.091074
C	 -1.646540	 -0.586389	 0.703157
H	 1.175033	 0.956469	 -1.321182
N	 0.640204	 -0.530428	 -0.000115
H	 -2.395333	 -1.068334	 1.297295
C	 -0.313675	 -1.167420	 0.774602
C	 2.006991	 -1.033007	 -0.000020
O	 -0.039751	 -2.124394	 1.446471
H	 2.182444	 -1.636914	 -0.880881
H	 2.678769	 -0.195442	 -0.002236
H	 2.183828	 -1.633244	 0.883082

	symmetry c1
}
set optking {
	frozen_dihedral = ("
		10 8 11 13
	")
}

ee = optimize('scf')
oeprop('DIPOLE', 'QUADRUPOLE', 'MULLIKEN_CHARGES')
f=open( 'psi4out.xyz', 'w' )
f.write( "15  " )
f.write( str(ee) + "\n" )
f.write( MOL.save_string_xyz() )
f.close()
--------------------------------------------------------------------------

    Molecular point group: c1
  Charge       = 0
  Multiplicity = 1
  Basis Set: CC-PVTZ
  Basis Set:
  @DF-RHF Final Energy:  -360.72249389924190
    Total Energy =                       -360.7224938992418402
    Molecular point group: c1
  Basis Set: CC-PVTZ
  Basis Set:
  Basis Set: CC-PVTZ
  Basis Set:
  @DF-RHF Final Energy:  -360.72270206635983
    Total Energy =                       -360.7227020663599433
  Basis Set: CC-PVTZ
  Basis Set:
  Basis Set: CC-PVTZ
  Basis Set:
  @DF-RHF Final Energy:  -360.72269239408104
    Total Energy =                       -360.7226923940810934
  Basis Set: CC-PVTZ
  Basis Set:
  Basis Set: CC-PVTZ
  Basis Set:
  @DF-RHF Final Energy:  -360.72272893209913
    Total Energy =                       -360.7227289320988461
  Basis Set: CC-PVTZ
  Basis Set:
  Charge       = 0
  Multiplicity = 1
  Basis Set: CC-PVTZ
  Basis Set:

    Orbital Energies (a.u.)
    -----------------------

    Doubly Occupied:

       1A    -20.501777     2A    -15.616742     3A    -11.339157
       4A    -11.293464     5A    -11.264059     6A    -11.258187
       7A    -11.230451     8A    -11.228258     9A     -1.390678
      10A     -1.285779    11A     -1.118802    12A     -1.028931
      13A     -0.972400    14A     -0.875914    15A     -0.838634
      16A     -0.719222    17A     -0.702848    18A     -0.663541
      19A     -0.652782    20A     -0.625417    21A     -0.611902
      22A     -0.574433    23A     -0.556862    24A     -0.550621
      25A     -0.529757    26A     -0.483158    27A     -0.420372
      28A     -0.410593    29A     -0.310804

  @DF-RHF Final Energy:  -360.72273019114931

   => Energetics <=

    Nuclear Repulsion Energy =            358.5261221198510952
    One-Electron Energy =               -1200.3866142265669623
    Two-Electron Energy =                 481.1377619155666139
    DFT Exchange-Correlation Energy =       0.0000000000000000
    Empirical Dispersion Energy =           0.0000000000000000
    PCM Polarization Energy =               0.0000000000000000
    EFP Energy =                            0.0000000000000000
    Total Energy =                       -360.7227301911491963
    Molecular point group: c1
  Basis Set: CC-PVTZ
  Basis Set:

  -Total Gradient:
     Atom            X                  Y                   Z
    ------   -----------------  -----------------  -----------------
       1       -0.000004279822    -0.000004421137    -0.000004122330
       2        0.000033044269    -0.000016179201    -0.000011472376
       3       -0.000032175965    -0.000011329659     0.000025873898
       4       -0.000043060175     0.000073496481     0.000020656423
       5       -0.000003950909     0.000002431186    -0.000002749044
       6       -0.000030468056     0.000043159295    -0.000018414509
       7        0.000008780652    -0.000020354642    -0.000003349308
       8       -0.000109148128    -0.000371141533    -0.000617890338
       9        0.000007179377    -0.000000468898    -0.000002506118
      10        0.000123695600     0.000315381065     0.000332097760
      11       -0.000181026156    -0.000441213509     0.000504487155
      12        0.000063183979     0.000033061041    -0.000016273884
      13        0.000175973931     0.000506123048    -0.000302653968
      14       -0.000065921622    -0.000034694359     0.000002456324
      15        0.000058173028    -0.000073849183     0.000093860319

  **** Optimization is complete! (in 5 steps) ****
    Final optimized geometry and variables:
    Molecular point group: c1

    Geometry (in Angstrom), charge = 0, multiplicity = 1:

    H           -0.902644577503     2.396014102546    -1.637026197175
    C           -0.710849344675     1.545663772902    -1.017297486054
    C           -1.741631485001     0.937230420016    -0.232338783008
    C            0.513921302011     1.017347705707    -0.947782094077
    H           -2.735913492282     1.341775682934    -0.262944788404
    C           -1.475009641977    -0.124756071747     0.534516002174
    H            1.337020289422     1.420066056894    -1.503614724006
    N            0.811166634573    -0.060992364632    -0.171644692039
    H           -2.220485109927    -0.606197468207     1.133345794891
    C           -0.142073343204    -0.705977499506     0.596605007465
    C            2.173061596851    -0.575717313575    -0.171730793873
    O            0.136903331994    -1.671313106541     1.254126885871
    H            2.357704622665    -1.174347360144    -1.055193867912
    H            2.869432704957     0.250794136036    -0.153791360777
    H            2.313651096974    -1.186114930054     0.701201896406

  Mulliken Charges: (a.u.)
   Center  Symbol    Alpha    Beta     Spin     Total
       1     H     0.41396  0.41396  0.00000  0.17208
       2     C     3.10308  3.10308  0.00000 -0.20616
       3     C     3.06167  3.06167  0.00000 -0.12334
       4     C     3.03307  3.03307  0.00000 -0.06614
       5     H     0.41837  0.41837  0.00000  0.16326
       6     C     3.11699  3.11699  0.00000 -0.23398
       7     H     0.42126  0.42126  0.00000  0.15749
       8     N     3.51183  3.51183  0.00000 -0.02365
       9     H     0.40895  0.40895  0.00000  0.18211
      10     C     2.84532  2.84532  0.00000  0.30936
      11     C     3.10460  3.10460  0.00000 -0.20919
      12     O     4.23646  4.23646  0.00000 -0.47291
      13     H     0.44713  0.44713  0.00000  0.10574
      14     H     0.45381  0.45381  0.00000  0.09238
      15     H     0.42352  0.42352  0.00000  0.15296

   Total alpha = 29.00000, Total beta = 29.00000, Total charge = -0.00000
