  ==> Input File <==

--------------------------------------------------------------------------
set {
	reference rhf
	basis 6-31G*
}

set_num_threads( 4 )
memory 2 gb

molecule MOL {
0 1

O	 1.208500	 0.533766	 0.997764
C	 1.705091	 0.115954	 0.001797
C	 1.287354	 0.471821	 -1.404162
O	 2.721346	 -0.737485	 -0.000216
C	 0.121280	 1.454070	 -1.459871
H	 2.161863	 0.869601	 -1.911823
H	 1.045509	 -0.455882	 -1.915628
C	 -0.280210	 1.797548	 -2.895102
H	 0.390654	 2.359556	 -0.925341
H	 -0.727181	 1.032342	 -0.930183
C	 -1.448123	 2.782577	 -2.969620
H	 0.575780	 2.216654	 -3.422006
H	 -0.546901	 0.885220	 -3.426531
C	 -1.849617	 3.124444	 -4.403908
H	 -1.182329	 3.695518	 -2.441383
H	 -2.304246	 2.364959	 -2.444466
H	 -1.023426	 3.576424	 -4.945513
H	 -2.679518	 3.823965	 -4.423530
H	 -2.153843	 2.235140	 -4.948789
C	 4.024888	 -0.184556	 -0.001949
H	 4.179030	 0.422472	 -0.882452
H	 4.701782	 -1.024608	 -0.003642
H	 4.181981	 0.421185	 0.878906

	symmetry c1
}
set optking {
	frozen_dihedral = ("
		1 2 4 20
	")
}

ee = optimize('scf')
oeprop('DIPOLE', 'QUADRUPOLE', 'MULLIKEN_CHARGES')
f=open( 'psi4out.xyz', 'w' )
f.write( "23  " )
f.write( str(ee) + "\n" )
f.write( MOL.save_string_xyz() )
f.close()
--------------------------------------------------------------------------

    Molecular point group: c1
  Charge       = 0
  Multiplicity = 1
  Basis Set: 6-31G*
  Basis Set:
  @DF-RHF Final Energy:  -422.95459928405882
    Total Energy =                       -422.9545992840593271
    Molecular point group: c1
  Basis Set: 6-31G*
  Basis Set:
  Basis Set: 6-31G*
  Basis Set:
  @DF-RHF Final Energy:  -422.95286466918566
    Total Energy =                       -422.9528646691862832
  Basis Set: 6-31G*
  Basis Set:
  Basis Set: 6-31G*
  Basis Set:
  @DF-RHF Final Energy:  -422.95567564057285
    Total Energy =                       -422.9556756405725082
  Basis Set: 6-31G*
  Basis Set:
  Basis Set: 6-31G*
  Basis Set:
  @DF-RHF Final Energy:  -422.95619003350600
    Total Energy =                       -422.9561900335065729
  Basis Set: 6-31G*
  Basis Set:
  Basis Set: 6-31G*
  Basis Set:
  @DF-RHF Final Energy:  -422.95620638867626
    Total Energy =                       -422.9562063886758096
  Basis Set: 6-31G*
  Basis Set:
  Basis Set: 6-31G*
  Basis Set:
  @DF-RHF Final Energy:  -422.95620869648900
    Total Energy =                       -422.9562086964893979
  Basis Set: 6-31G*
  Basis Set:
  Charge       = 0
  Multiplicity = 1
  Basis Set: 6-31G*
  Basis Set:

    Orbital Energies (a.u.)
    -----------------------

    Doubly Occupied:

       1A    -20.585229     2A    -20.557584     3A    -11.375118
       4A    -11.291854     5A    -11.239884     6A    -11.222256
       7A    -11.220452     8A    -11.218440     9A    -11.211294
      10A     -1.458800    11A     -1.367434    12A     -1.095029
      13A     -1.041961    14A     -0.980835    15A     -0.942798
      16A     -0.850518    17A     -0.797537    18A     -0.765308
      19A     -0.695905    20A     -0.678795    21A     -0.674094
      22A     -0.649541    23A     -0.618523    24A     -0.607246
      25A     -0.579489    26A     -0.568208    27A     -0.556275
      28A     -0.536049    29A     -0.510593    30A     -0.495997
      31A     -0.487070    32A     -0.480072    33A     -0.470893
      34A     -0.467910    35A     -0.449541    36A     -0.431834

  @DF-RHF Final Energy:  -422.95620865456715

   => Energetics <=

    Nuclear Repulsion Energy =            452.5918083277324513
    One-Electron Energy =               -1472.7352993116533071
    Two-Electron Energy =                 597.1872823293538204
    DFT Exchange-Correlation Energy =       0.0000000000000000
    Empirical Dispersion Energy =           0.0000000000000000
    PCM Polarization Energy =               0.0000000000000000
    EFP Energy =                            0.0000000000000000
    Total Energy =                       -422.9562086545670354
    Molecular point group: c1
  Basis Set: 6-31G*
  Basis Set:

  -Total Gradient:
     Atom            X                  Y                   Z
    ------   -----------------  -----------------  -----------------
       1       -0.002039661547    -0.002460108050    -0.000258352556
       2        0.002910111263     0.003636717785    -0.000884280804
       3        0.000007351892     0.000039892341     0.000002043912
       4       -0.001009813355    -0.001314472045     0.003765667945
       5       -0.000008121957    -0.000015718519    -0.000013958422
       6        0.000005571286     0.000008128164    -0.000001753895
       7        0.000005095895     0.000005130446     0.000002303188
       8        0.000015626372     0.000001330693    -0.000003287405
       9        0.000010569314     0.000000621977    -0.000004939524
      10       -0.000012759860    -0.000002645634     0.000013973112
      11        0.000012672081     0.000011424415     0.000013267482
      12        0.000003851877     0.000010298575     0.000006540151
      13        0.000010324328     0.000001569945    -0.000006393116
      14       -0.000009387797    -0.000025091832     0.000000235895
      15        0.000005039348     0.000004435300    -0.000007923075
      16        0.000002028280     0.000007218810     0.000008585196
      17       -0.000001709858     0.000002891429     0.000007224299
      18       -0.000004025759    -0.000006890594     0.000003538067
      19        0.000003314358    -0.000000539173    -0.000007984459
      20        0.000083491827     0.000095062997    -0.002634123186
      21        0.000011798447     0.000002220522    -0.000006488255
      22       -0.000002050503    -0.000005794811    -0.000003454549
      23        0.000000684060     0.000004317264     0.000009559995

  **** Optimization is complete! (in 7 steps) ****
    Final optimized geometry and variables:
    Molecular point group: c1

    Geometry (in Angstrom), charge = 0, multiplicity = 1:

    O            0.334242185160    -0.550407053712     2.296384616642
    C            0.862362433004    -0.909822392774     1.302658928880
    C            0.421994958313    -0.542942065897    -0.093846851940
    O            1.897983968405    -1.782955887381     1.325284784259
    C           -0.735843696291     0.449240654382    -0.136849219741
    H            1.286455558916    -0.159020525358    -0.630704525292
    H            0.162215620462    -1.473994044088    -0.591868952993
    C           -1.163851751937     0.783698896366    -1.566498120448
    H           -0.448536343441     1.357884629104     0.383954964262
    H           -1.575740242961     0.038653439471     0.414206531232
    C           -2.327660488166     1.774575112507    -1.625586000890
    H           -0.316504515895     1.193789729688    -2.114289658277
    H           -1.446214166555    -0.131539384728    -2.084560944327
    C           -2.758311003886     2.104209260405    -3.054258119655
    H           -2.045604777119     2.691267543572    -1.112484951920
    H           -3.174258691364     1.366914506190    -1.077879813711
    H           -1.941954553434     2.546930919583    -3.618080870747
    H           -3.585168897151     2.807429389805    -3.062880849178
    H           -3.078388266669     1.211122264016    -3.583555482959
    C            3.193514762156    -1.231469437602     1.418035906375
    H            3.418499894392    -0.609154437534     0.557976062894
    H            3.880797396722    -2.062651361596     1.442353725072
    H            3.297235940789    -0.649177400696     2.325431455657

  Mulliken Charges: (a.u.)
   Center  Symbol    Alpha    Beta     Spin     Total
       1     O     4.25183  4.25183  0.00000 -0.50365
       2     C     2.61340  2.61340  0.00000  0.77320
       3     C     3.21335  3.21335  0.00000 -0.42671
       4     O     4.31606  4.31606  0.00000 -0.63211
       5     C     3.15283  3.15283  0.00000 -0.30566
       6     H     0.40803  0.40803  0.00000  0.18394
       7     H     0.39758  0.39758  0.00000  0.20484
       8     C     3.15323  3.15323  0.00000 -0.30647
       9     H     0.41363  0.41363  0.00000  0.17274
      10     H     0.40911  0.40911  0.00000  0.18179
      11     C     3.15169  3.15169  0.00000 -0.30339
      12     H     0.42485  0.42485  0.00000  0.15030
      13     H     0.42326  0.42326  0.00000  0.15348
      14     C     3.23966  3.23966  0.00000 -0.47932
      15     H     0.42149  0.42149  0.00000  0.15701
      16     H     0.42062  0.42062  0.00000  0.15876
      17     H     0.42204  0.42204  0.00000  0.15593
      18     H     0.41809  0.41809  0.00000  0.16381
      19     H     0.42149  0.42149  0.00000  0.15703
      20     C     3.09293  3.09293  0.00000 -0.18585
      21     H     0.42300  0.42300  0.00000  0.15399
      22     H     0.40249  0.40249  0.00000  0.19502
      23     H     0.40934  0.40934  0.00000  0.18132

   Total alpha = 36.00000, Total beta = 36.00000, Total charge = -0.00000
