                              Psi4 1.0.54 Driver

  ==> Input File <==

--------------------------------------------------------------------------
set {
	reference rhf
	basis cc-pvtz
}

set_num_threads( 4 )
memory 2 gb

molecule MOL {
0 1

H	 2.614283	 2.028610	 0.296620
O	 3.358864	 1.662087	 -0.142800
C	 3.565468	 0.338079	 0.273842
C	 2.533667	 -0.637565	 -0.272227
H	 4.548038	 0.064914	 -0.086598
H	 3.593945	 0.282242	 1.360360
C	 3.112581	 -1.718474	 -1.182360
H	 2.019496	 -1.100757	 0.564576
H	 1.790362	 -0.064888	 -0.821714
C	 2.043596	 -2.658666	 -1.737470
H	 3.849348	 -2.293961	 -0.631914
H	 3.638610	 -1.247671	 -2.011169
C	 2.558143	 -3.716919	 -2.715016
H	 1.536482	 -3.150229	 -0.910772
H	 1.288778	 -2.062671	 -2.242948
C	 3.475120	 -4.773144	 -2.100783
H	 1.701334	 -4.218227	 -3.156713
H	 3.075324	 -3.225301	 -3.535986
C	 3.881035	 -5.861004	 -3.091845
H	 2.973492	 -5.232423	 -1.251724
H	 4.372698	 -4.305604	 -1.707383
C	 4.799615	 -6.915151	 -2.482849
H	 2.988356	 -6.343114	 -3.480781
H	 4.374829	 -5.402960	 -3.944737
H	 4.321790	 -7.414513	 -1.646452
H	 5.065982	 -7.672533	 -3.211223
H	 5.719371	 -6.469786	 -2.118088

	symmetry c1
}
set optking {
	frozen_dihedral = ("
		8 4 3 2
	")
}

ee,wfn = optimize('scf', return_wfn=True)
oeprop( wfn, 'DIPOLE', 'QUADRUPOLE', 'MULLIKEN_CHARGES')
f=open( 'psi4out.xyz', 'w' )
f.write( "27  " )
f.write( str(ee) + "\n" )
f.write( MOL.save_string_xyz() )
f.close()
--------------------------------------------------------------------------

    Molecular point group: c1
  Charge       = 0
  Multiplicity = 1
  Basis Set: CC-PVTZ
  Basis Set:
  @DF-RHF Final Energy:  -388.42184566016670
    Total Energy =                       -388.4218456601664684
    Molecular point group: c1
  Basis Set: CC-PVTZ
  Basis Set:
  Basis Set: CC-PVTZ
  Basis Set:
  @DF-RHF Final Energy:  -388.42220581533940
    Total Energy =                       -388.4222058153393391
  Basis Set: CC-PVTZ
  Basis Set:
  Basis Set: CC-PVTZ
  Basis Set:
  @DF-RHF Final Energy:  -388.42227435090632
    Total Energy =                       -388.4222743509061502
  Basis Set: CC-PVTZ
  Basis Set:
  Basis Set: CC-PVTZ
  Basis Set:
  @DF-RHF Final Energy:  -388.42227824099490
    Total Energy =                       -388.4222782409949559
  Basis Set: CC-PVTZ
  Basis Set:
  Charge       = 0
  Multiplicity = 1
  Basis Set: CC-PVTZ
  Basis Set:

    Orbital Energies (a.u.)
    -----------------------

    Doubly Occupied:

       1A    -20.544756     2A    -11.264820     3A    -11.213870
       4A    -11.213245     5A    -11.212309     6A    -11.212254
       7A    -11.211137     8A    -11.209958     9A    -11.205976
      10A     -1.362286    11A     -1.094289    12A     -1.060859
      13A     -1.009967    14A     -0.944593    15A     -0.883834
      16A     -0.824455    17A     -0.803916    18A     -0.776987
      19A     -0.689299    20A     -0.649011    21A     -0.634595
      22A     -0.612705    23A     -0.610425    24A     -0.581152
      25A     -0.578043    26A     -0.556836    27A     -0.537606
      28A     -0.523955    29A     -0.510777    30A     -0.487447
      31A     -0.482939    32A     -0.475655    33A     -0.464447
      34A     -0.460075    35A     -0.455384    36A     -0.442639
      37A     -0.419909

  @DF-RHF Final Energy:  -388.42227810517716

   => Energetics <=

    Nuclear Repulsion Energy =            454.6484075924508943
    One-Electron Energy =               -1427.6965602602040235
    Two-Electron Energy =                 584.6258745625757456
    DFT Exchange-Correlation Energy =       0.0000000000000000
    Empirical Dispersion Energy =           0.0000000000000000
    PCM Polarization Energy =               0.0000000000000000
    EFP Energy =                            0.0000000000000000
    Total Energy =                       -388.4222781051773836
    Molecular point group: c1
  Basis Set: CC-PVTZ
  Basis Set:

  -Total Gradient:
     Atom            X                  Y                   Z
    ------   -----------------  -----------------  -----------------
       1        0.000083370577    -0.000060092298    -0.000032105859
       2       -0.000073838684     0.000048775527     0.000103817041
       3        0.000028035627    -0.000047345157    -0.000044568693
       4        0.000027437842    -0.000064552571    -0.000003951536
       5       -0.000034066870     0.000015884191    -0.000017796057
       6       -0.000020539382     0.000042112213    -0.000002364824
       7       -0.000027973983    -0.000022304474    -0.000013762437
       8       -0.000001675846     0.000049972506     0.000009138637
       9        0.000022269367     0.000004805282    -0.000010003139
      10        0.000017959246     0.000018015067    -0.000021558101
      11        0.000021126951    -0.000017733289     0.000012759954
      12       -0.000022404106     0.000013806211     0.000001266404
      13       -0.000030685027    -0.000019021574     0.000000147433
      14       -0.000005753638     0.000006299038    -0.000014140297
      15        0.000011960980     0.000011233259    -0.000001293075
      16       -0.000018694931    -0.000005933887     0.000014104110
      17       -0.000000913413    -0.000004808434     0.000012518021
      18       -0.000015391572    -0.000002664656    -0.000009075416
      19        0.000018232176     0.000006306561    -0.000000499707
      20       -0.000001120940    -0.000004050988    -0.000008651280
      21        0.000012699824     0.000024763015     0.000027724762
      22        0.000007862932     0.000003175061    -0.000002751658
      23        0.000000253330     0.000005288574     0.000009514725
      24        0.000000251315    -0.000000958547    -0.000008527487
      25       -0.000001227171     0.000001584820    -0.000001059229
      26        0.000000885954    -0.000000654809     0.000000218863
      27        0.000001939445    -0.000001900639     0.000000898852

  **** Optimization is complete! (in 5 steps) ****
    Final optimized geometry and variables:
    Molecular point group: c1

    Geometry (in Angstrom), charge = 0, multiplicity = 1:

    H           -0.697541737185     4.644795380309     1.648781522320
    O            0.104270429453     4.299792421182     1.300922192314
    C            0.281415885766     2.975296798411     1.731988900868
    C           -0.771959146588     2.003003484850     1.174442676641
    H            1.268082905903     2.693056547193     1.391286230478
    H            0.297492363256     2.937455684965     2.817462530802
    C           -0.185349691186     0.909483005258     0.283909807050
    H           -1.321180769828     1.541739312182     1.990001864270
    H           -1.491969876286     2.579263219807     0.602708575177
    C           -1.244599596068    -0.042381455161    -0.266978369389
    H            0.555434535759     0.354081301623     0.850932310750
    H            0.346148843536     1.375275854922    -0.542361746600
    C           -0.718997538896    -1.099367058700    -1.240116158503
    H           -1.749124211386    -0.536497360516     0.560348055017
    H           -2.004337491244     0.544665194017    -0.775762520506
    C            0.219798613390    -2.134789953335    -0.623632635857
    H           -1.569693653707    -1.618412321089    -1.673118881625
    H           -0.214931884750    -0.604792760534    -2.067140378561
    C            0.643362416166    -3.219765279298    -1.610351180460
    H           -0.270453284766    -2.599546883968     0.229255365690
    H            1.109177240185    -1.647719950399    -0.235734886852
    C            1.585083055556    -4.252139746329    -0.999492894920
    H           -0.240957173829    -3.721626959302    -1.993412938458
    H            1.124824063308    -2.756498443000    -2.467329330944
    H            1.120216188000    -4.757069589138    -0.159092284104
    H            1.864371240208    -5.007567465356    -1.725035694001
    H            2.496728700801    -3.786378426056    -0.640045742119

  Mulliken Charges: (a.u.)
   Center  Symbol    Alpha    Beta     Spin     Total
       1     H     0.39443  0.39443  0.00000  0.21114
       2     O     4.20277  4.20277  0.00000 -0.40553
       3     C     2.97004  2.97004  0.00000  0.05991
       4     C     3.09769  3.09769  0.00000 -0.19537
       5     H     0.45828  0.45828  0.00000  0.08344
       6     H     0.46707  0.46707  0.00000  0.06587
       7     C     3.09915  3.09915  0.00000 -0.19829
       8     H     0.45402  0.45402  0.00000  0.09196
       9     H     0.45453  0.45453  0.00000  0.09094
      10     C     3.10088  3.10088  0.00000 -0.20177
      11     H     0.45187  0.45187  0.00000  0.09626
      12     H     0.44952  0.44952  0.00000  0.10096
      13     C     3.09794  3.09794  0.00000 -0.19588
      14     H     0.45399  0.45399  0.00000  0.09203
      15     H     0.44757  0.44757  0.00000  0.10487
      16     C     3.08801  3.08801  0.00000 -0.17601
      17     H     0.44860  0.44860  0.00000  0.10279
      18     H     0.45299  0.45299  0.00000  0.09403
      19     C     3.08400  3.08400  0.00000 -0.16801
      20     H     0.45557  0.45557  0.00000  0.08886
      21     H     0.45355  0.45355  0.00000  0.09291
      22     C     3.14975  3.14975  0.00000 -0.29950
      23     H     0.45415  0.45415  0.00000  0.09171
      24     H     0.45435  0.45435  0.00000  0.09130
      25     H     0.45546  0.45546  0.00000  0.08907
      26     H     0.44843  0.44843  0.00000  0.10314
      27     H     0.45542  0.45542  0.00000  0.08917

   Total alpha = 37.00000, Total beta = 37.00000, Total charge =  0.00000

*** Psi4 exiting successfully. Buy a developer a beer!
