  ==> Input File <==

--------------------------------------------------------------------------
set {
	reference rhf
	basis 6-31G*
}

set_num_threads( 4 )
memory 2 gb

molecule MOL {
0 1

H	 2.866480	 -0.465706	 0.876907
C	 2.405773	 -0.024801	 0.000000
N	 0.988830	 -0.304158	 0.000000
H	 2.866480	 -0.465706	 -0.876907
H	 2.629928	 1.045948	 0.000000
C	 0.445951	 -0.411189	 1.341564
C	 0.656791	 -1.480607	 -0.782104
H	 0.908359	 -1.232315	 1.898727
H	 0.648831	 0.508763	 1.880799
C	 -1.055197	 -0.638384	 1.271360
H	 1.014059	 -1.343731	 -1.797914
H	 1.134563	 -2.379661	 -0.379692
C	 -0.849947	 -1.679442	 -0.795991
H	 -1.463376	 -0.809265	 2.258886
H	 -1.537337	 0.238685	 0.843271
O	 -1.354698	 -1.772098	 0.506544
H	 -1.110082	 -2.601231	 -1.299630
H	 -1.322430	 -0.851353	 -1.321346

	symmetry c1
}
set optking {
	frozen_dihedral = ("
		6 3 2 5
	")
}

ee = optimize('scf')
oeprop('DIPOLE', 'QUADRUPOLE', 'MULLIKEN_CHARGES')
f=open( 'psi4out.xyz', 'w' )
f.write( "18  " )
f.write( str(ee) + "\n" )
f.write( MOL.save_string_xyz() )
f.close()
--------------------------------------------------------------------------

    Molecular point group: c1
  Charge       = 0
  Multiplicity = 1
  Basis Set: 6-31G*
  Basis Set:
  @DF-RHF Final Energy:  -325.02422530291921
    Total Energy =                       -325.0242253029193762
    Molecular point group: c1
  Basis Set: 6-31G*
  Basis Set:
  Basis Set: 6-31G*
  Basis Set:
  @DF-RHF Final Energy:  -325.02503549731938
    Total Energy =                       -325.0250354973197773
  Basis Set: 6-31G*
  Basis Set:
  Basis Set: 6-31G*
  Basis Set:
  @DF-RHF Final Energy:  -325.02515155332577
    Total Energy =                       -325.0251515533258271
  Basis Set: 6-31G*
  Basis Set:
  Basis Set: 6-31G*
  Basis Set:
  @DF-RHF Final Energy:  -325.02515489383507
    Total Energy =                       -325.0251548938349515
  Basis Set: 6-31G*
  Basis Set:
  Charge       = 0
  Multiplicity = 1
  Basis Set: 6-31G*
  Basis Set:

    Orbital Energies (a.u.)
    -----------------------

    Doubly Occupied:

       1A    -20.553606     2A    -15.548886     3A    -11.265778
       4A    -11.265746     5A    -11.244025     6A    -11.243836
       7A    -11.240729     8A     -1.383093     9A     -1.229969
      10A     -1.037843    11A     -0.980684    12A     -0.881964
      13A     -0.869543    14A     -0.775127    15A     -0.683137
      16A     -0.644190    17A     -0.642779    18A     -0.631225
      19A     -0.628741    20A     -0.571321    21A     -0.556765
      22A     -0.545292    23A     -0.525974    24A     -0.500951
      25A     -0.481876    26A     -0.451791    27A     -0.407322
      28A     -0.353350

  @DF-RHF Final Energy:  -325.02515526392619

   => Energetics <=

    Nuclear Repulsion Energy =            341.2501658929468249
    One-Electron Energy =               -1118.2595573361618335
    Two-Electron Energy =                 451.9842361792887004
    DFT Exchange-Correlation Energy =       0.0000000000000000
    Empirical Dispersion Energy =           0.0000000000000000
    PCM Polarization Energy =               0.0000000000000000
    EFP Energy =                            0.0000000000000000
    Total Energy =                       -325.0251552639263082
    Molecular point group: c1
  Basis Set: 6-31G*
  Basis Set:

  -Total Gradient:
     Atom            X                  Y                   Z
    ------   -----------------  -----------------  -----------------
       1       -0.000007839424    -0.000004902604    -0.000015044679
       2        0.000199025129    -0.001468017450     0.006596587726
       3       -0.001015902557     0.005292047482    -0.001341935425
       4        0.000010864183    -0.000009435157    -0.000013906451
       5        0.000048069455     0.000018858045    -0.005222261754
       6        0.000754473903    -0.003852019101    -0.000043271499
       7        0.000010577786     0.000030201902     0.000032881635
       8        0.000011063500    -0.000006044602     0.000002464854
       9       -0.000000387346    -0.000001687720     0.000001205089
      10       -0.000013488062     0.000000559345     0.000015982022
      11       -0.000001416099    -0.000000465677     0.000003174473
      12        0.000010049588    -0.000005537215     0.000001758173
      13       -0.000023380736     0.000013113434    -0.000018992121
      14        0.000000063582    -0.000000581975     0.000000618566
      15        0.000001652223     0.000001152881    -0.000001286856
      16        0.000011989392    -0.000008576299    -0.000000471603
      17        0.000004685828     0.000000083685     0.000004823356
      18       -0.000000100344     0.000001251026    -0.000002325507

  **** Optimization is complete! (in 5 steps) ****
    Final optimized geometry and variables:
    Molecular point group: c1

    Geometry (in Angstrom), charge = 0, multiplicity = 1:

    H            2.754231133719     0.429111858035     0.632236046446
    C            2.237746242726     0.885705765312    -0.212073528590
    N            0.813903970425     0.602158332450    -0.228217875364
    H            2.696167222322     0.508189019470    -1.119139150287
    H            2.410242186854     1.957204554902    -0.205940120934
    C            0.265924676196     0.490434137970     1.112290731307
    C            0.478893952064    -0.585832239816    -0.996829677205
    H            0.722493238609    -0.338794857086     1.661171949975
    H            0.477482257832     1.403922673755     1.660069262250
    C           -1.236976109647     0.277841489598     1.043201630356
    H            0.838989507963    -0.464354718902    -2.012988423695
    H            0.944723165666    -1.485136630965    -0.581893540011
    C           -1.029534574417    -0.771280803295    -1.019305703296
    H           -1.646242612647     0.111397368143     2.031143865667
    H           -1.711111589138     1.158883452085     0.614638063291
    O           -1.546114400780    -0.853715395194     0.279184886829
    H           -1.294403374649    -1.692363484604    -1.521990143760
    H           -1.489214990374     0.059664242524    -1.551411991911

  Mulliken Charges: (a.u.)
   Center  Symbol    Alpha    Beta     Spin     Total
       1     H     0.42777  0.42777  0.00000  0.14447
       2     C     3.14083  3.14083  0.00000 -0.28167
       3     N     3.78793  3.78793  0.00000 -0.57586
       4     H     0.41889  0.41889  0.00000  0.16222
       5     H     0.41413  0.41413  0.00000  0.17173
       6     C     3.07047  3.07047  0.00000 -0.14095
       7     C     3.07013  3.07013  0.00000 -0.14025
       8     H     0.42769  0.42769  0.00000  0.14463
       9     H     0.41619  0.41619  0.00000  0.16762
      10     C     2.99714  2.99714  0.00000  0.00572
      11     H     0.41639  0.41639  0.00000  0.16721
      12     H     0.42828  0.42828  0.00000  0.14344
      13     C     2.99750  2.99750  0.00000  0.00499
      14     H     0.41344  0.41344  0.00000  0.17313
      15     H     0.42381  0.42381  0.00000  0.15238
      16     O     4.31208  4.31208  0.00000 -0.62417
      17     H     0.41345  0.41345  0.00000  0.17311
      18     H     0.42387  0.42387  0.00000  0.15226

   Total alpha = 28.00000, Total beta = 28.00000, Total charge =  0.00000
