  ==> Input File <==

--------------------------------------------------------------------------
set {
	reference rhf
	basis 6-31G*
}

set_num_threads( 1 )
memory 2 gb

molecule MOL {
0 1

H	 1.136379	 0.211822	 1.465562
C	 1.135357	 0.094285	 0.374742
C	 0.065331	 0.871482	 -0.349150
O	 1.941633	 -0.601957	 -0.151457
C	 0.079299	 2.363667	 0.012332
H	 -0.894570	 0.419032	 -0.128264
H	 0.251657	 0.759029	 -1.416295
C	 -0.309707	 2.637195	 1.465700
H	 -0.605065	 2.884606	 -0.649694
H	 1.066531	 2.774751	 -0.187732
H	 -1.307385	 2.265177	 1.677284
H	 -0.299470	 3.701965	 1.674211
H	 0.372350	 2.158482	 2.162136

	symmetry c1
}
set optking {
	frozen_dihedral = ("
		6 3 5 9
	")
}

ee = energy('scf')
oeprop('DIPOLE', 'QUADRUPOLE', 'MULLIKEN_CHARGES')
f=open( 'psi4out.xyz', 'w' )
f.write( "13  " )
f.write( str(ee) + "\n" )
f.write( MOL.save_string_xyz() )
f.close()
--------------------------------------------------------------------------

    Molecular point group: c1

    Geometry (in Angstrom), charge = 0, multiplicity = 1:

       Center              X                  Y                   Z               Mass
    ------------   -----------------  -----------------  -----------------  -----------------
           H          0.547712384689    -0.860445134256     1.184479207299     1.007825032070
           C          0.546690384689    -0.977982134256     0.093659207299    12.000000000000
           C         -0.523335615311    -0.200785134256    -0.630232792701    12.000000000000
           O          1.352966384689    -1.674224134256    -0.432539792701    15.994914619560
           C         -0.509367615311     1.291399865744    -0.268750792701    12.000000000000
           H         -1.483236615311    -0.653235134256    -0.409346792701     1.007825032070
           H         -0.337009615311    -0.313238134256    -1.697377792701     1.007825032070
           C         -0.898373615311     1.564927865744     1.184617207299    12.000000000000
           H         -1.193731615311     1.812338865744    -0.930776792701     1.007825032070
           H          0.477864384689     1.702483865744    -0.468814792701     1.007825032070
           H         -1.896051615311     1.192909865744     1.396201207299     1.007825032070
           H         -0.888136615311     2.629697865744     1.393128207299     1.007825032070
           H         -0.216316615311     1.086214865744     1.881053207299     1.007825032070

  Charge       = 0
  Multiplicity = 1
  Basis Set: 6-31G*
  Basis Set:

    Orbital Energies (a.u.)
    -----------------------

    Doubly Occupied:

       1A    -20.562905     2A    -11.326237     3A    -11.239154
       4A    -11.235451     5A    -11.225575     6A     -1.402586
       7A     -1.088301     8A     -0.973146     9A     -0.854549
      10A     -0.783577    11A     -0.675975    12A     -0.649695
      13A     -0.605776    14A     -0.599006    15A     -0.578675
      16A     -0.530096    17A     -0.507751    18A     -0.492796
      19A     -0.485585    20A     -0.407773

  @DF-RHF Final Energy:  -230.98214666917059

   => Energetics <=

    Nuclear Repulsion Energy =            172.9981925063569577
    One-Electron Energy =                -655.5113529776946280
    Two-Electron Energy =                 251.5310138021671946
    DFT Exchange-Correlation Energy =       0.0000000000000000
    Empirical Dispersion Energy =           0.0000000000000000
    PCM Polarization Energy =               0.0000000000000000
    EFP Energy =                            0.0000000000000000
    Total Energy =                       -230.9821466691704472

  Mulliken Charges: (a.u.)
   Center  Symbol    Alpha    Beta     Spin     Total
       1     H     0.43123  0.43123  0.00000  0.13755
       2     C     2.83053  2.83053  0.00000  0.33894
       3     C     3.20989  3.20989  0.00000 -0.41977
       4     O     4.23767  4.23767  0.00000 -0.47534
       5     C     3.16530  3.16530  0.00000 -0.33060
       6     H     0.40704  0.40704  0.00000  0.18592
       7     H     0.39908  0.39908  0.00000  0.20183
       8     C     3.24559  3.24559  0.00000 -0.49119
       9     H     0.41079  0.41079  0.00000  0.17841
      10     H     0.41250  0.41250  0.00000  0.17501
      11     H     0.41836  0.41836  0.00000  0.16328
      12     H     0.41312  0.41312  0.00000  0.17376
      13     H     0.41891  0.41891  0.00000  0.16219

   Total alpha = 20.00000, Total beta = 20.00000, Total charge =  0.00000
