                              Psi4 1.0.54 Driver

  ==> Input File <==

--------------------------------------------------------------------------
set {
	reference rhf
	basis cc-pvtz
}

set_num_threads( 4 )
memory 2 gb

molecule MOL {
0 1

H	 -2.816458	 -0.841657	 -0.064679
N	 -1.878861	 -0.711874	 0.250184
C	 -1.341419	 0.551458	 -0.220231
H	 -1.333674	 -1.468530	 -0.105118
C	 0.082190	 0.731516	 0.254705
H	 -1.357065	 0.652078	 -1.304747
H	 -1.939897	 1.357530	 0.189797
O	 0.881195	 -0.248324	 -0.336237
H	 0.440901	 1.722476	 -0.020063
H	 0.119896	 0.643586	 1.338114
C	 0.735216	 -0.357488	 -1.713188
H	 1.394104	 -1.142098	 -2.056175
H	 -0.286060	 -0.615291	 -1.985635
H	 1.001795	 0.569035	 -2.216231

	symmetry c1
}
set optking {
	frozen_dihedral = ("
		11 8 5 3
	")
}

ee,wfn = optimize('scf', return_wfn=True)
oeprop( wfn, 'DIPOLE', 'QUADRUPOLE', 'MULLIKEN_CHARGES')
f=open( 'psi4out.xyz', 'w' )
f.write( "14  " )
f.write( str(ee) + "\n" )
f.write( MOL.save_string_xyz() )
f.close()
--------------------------------------------------------------------------

    Molecular point group: c1
  Charge       = 0
  Multiplicity = 1
  Basis Set: CC-PVTZ
  Basis Set:
  @DF-RHF Final Energy:  -248.21279811316722
    Total Energy =                       -248.2127981131671959
    Molecular point group: c1
  Basis Set: CC-PVTZ
  Basis Set:
  Basis Set: CC-PVTZ
  Basis Set:
  @DF-RHF Final Energy:  -248.10894860328702
    Total Energy =                       -248.1089486032869900
  Basis Set: CC-PVTZ
  Basis Set:
  Basis Set: CC-PVTZ
  Basis Set:
  @DF-RHF Final Energy:  -248.19234455202258
    Total Energy =                       -248.1923445520225755
  Basis Set: CC-PVTZ
  Basis Set:
  Basis Set: CC-PVTZ
  Basis Set:
  @DF-RHF Final Energy:  -248.21668529874290
    Total Energy =                       -248.2166852987429593
  Basis Set: CC-PVTZ
  Basis Set:
  @DF-RHF Final Energy:  -248.02164535338409
    Total Energy =                       -248.0216453533840308
  @DF-RHF Final Energy:  -247.97362110653884
    Total Energy =                       -247.9736211065389853
  @DF-RHF Final Energy:  -247.97312488253121
    Total Energy =                       -247.9731248825310388
  @DF-RHF Final Energy:  -247.99515614758184
    Total Energy =                       -247.9951561475817527
  @DF-RHF Final Energy:  -248.05060879250590
    Total Energy =                       -248.0506087925057273
  @DF-RHF Final Energy:  -248.10252736426241
    Total Energy =                       -248.1025273642624143
  @DF-RHF Final Energy:  -248.16042617926934
    Total Energy =                       -248.1604261792693933
  @DF-RHF Final Energy:  -248.19109453365931
    Total Energy =                       -248.1910945336594523
  @DF-RHF Final Energy:  -248.20926986086386
    Total Energy =                       -248.2092698608637420
  @DF-RHF Final Energy:  -248.21695695833662
    Total Energy =                       -248.2169569583365956
  @DF-RHF Final Energy:  -248.01790926372962
    Total Energy =                       -248.0179092637296208
  @DF-RHF Final Energy:  -247.95945912464427
    Total Energy =                       -247.9594591246442974
  @DF-RHF Final Energy:  -247.96573137987770
    Total Energy =                       -247.9657313798775817
  @DF-RHF Final Energy:  -248.03022405598236
    Total Energy =                       -248.0302240559822167
  @DF-RHF Final Energy:  -248.05319677505994
    Total Energy =                       -248.0531967750597175
  @DF-RHF Final Energy:  -248.08848776120863
    Total Energy =                       -248.0884877612086825
  @DF-RHF Final Energy:  -248.18792668251314
    Total Energy =                       -248.1879266825133072
  @DF-RHF Final Energy:  -248.20694369061965
    Total Energy =                       -248.2069436906198234
  @DF-RHF Final Energy:  -248.21585517293028
    Total Energy =                       -248.2158551729302189
  @DF-RHF Final Energy:  -248.00335925133479
    Total Energy =                       -248.0033592513349276
  @DF-RHF Final Energy:  -247.94671389829827
    Total Energy =                       -247.9467138982983556
  @DF-RHF Final Energy:  -247.96312192164049
    Total Energy =                       -247.9631219216406066
  @DF-RHF Final Energy:  -248.02662401918690
    Total Energy =                       -248.0266240191867837
  @DF-RHF Final Energy:  -248.05561667638747
    Total Energy =                       -248.0556166763875297
  @DF-RHF Final Energy:  -248.10383188122907
    Total Energy =                       -248.1038318812290981
  @DF-RHF Final Energy:  -248.15697895194381
    Total Energy =                       -248.1569789519439837
  @DF-RHF Final Energy:  -248.18934967120174
    Total Energy =                       -248.1893496712016258
  @DF-RHF Final Energy:  -248.20890836272380
    Total Energy =                       -248.2089083627240598
  @DF-RHF Final Energy:  -248.21603823347778
    Total Energy =                       -248.2160382334777751
  @DF-RHF Final Energy:  -248.21829349176073
    Total Energy =                       -248.2182934917608463
  @DF-RHF Final Energy:  -248.21958520942832
    Total Energy =                       -248.2195852094285442
  @DF-RHF Final Energy:  -248.22010341288379
    Total Energy =                       -248.2201034128838728
  Basis Set: CC-PVTZ
  Basis Set:
  @DF-RHF Final Energy:  -248.22015960804208
    Total Energy =                       -248.2201596080418540
  Basis Set: CC-PVTZ
  Basis Set:
  Basis Set: CC-PVTZ
  Basis Set:
  @DF-RHF Final Energy:  -248.22017119769203
    Total Energy =                       -248.2201711976921388
  Basis Set: CC-PVTZ
  Basis Set:
  Basis Set: CC-PVTZ
  Basis Set:
  @DF-RHF Final Energy:  -248.22017250712426
    Total Energy =                       -248.2201725071242322
  Basis Set: CC-PVTZ
  Basis Set:
  Charge       = 0
  Multiplicity = 1
  Basis Set: CC-PVTZ
  Basis Set:

    Orbital Energies (a.u.)
    -----------------------

    Doubly Occupied:

       1A    -20.549740     2A    -15.530017     3A    -11.265573
       4A    -11.265431     5A    -11.244598     6A     -1.380832
       7A     -1.180804     8A     -1.000437     9A     -0.924621
      10A     -0.807051    11A     -0.690403    12A     -0.677184
      13A     -0.648806    14A     -0.619580    15A     -0.602701
      16A     -0.547828    17A     -0.532585    18A     -0.522720
      19A     -0.460812    20A     -0.417553    21A     -0.388220

  @DF-RHF Final Energy:  -248.22017268169026

   => Energetics <=

    Nuclear Repulsion Energy =            197.7230994474860495
    One-Electron Energy =                -729.3715542652336126
    Two-Electron Energy =                 283.4282821360573621
    DFT Exchange-Correlation Energy =       0.0000000000000000
    Empirical Dispersion Energy =           0.0000000000000000
    PCM Polarization Energy =               0.0000000000000000
    EFP Energy =                            0.0000000000000000
    Total Energy =                       -248.2201726816901441
    Molecular point group: c1
  Basis Set: CC-PVTZ
  Basis Set:

  -Total Gradient:
     Atom            X                  Y                   Z
    ------   -----------------  -----------------  -----------------
       1       -0.000001453896     0.000002323952     0.000002141313
       2        0.000020562813    -0.000006087962    -0.000016246470
       3        0.000592106396     0.001375548170    -0.003513247897
       4       -0.000006691344     0.000006338146    -0.000001659968
       5       -0.002427393643    -0.002924130849     0.005942453388
       6       -0.000000249848    -0.000007029549    -0.000008652439
       7       -0.000003393275    -0.000002415485    -0.000007300459
       8        0.005228847259     0.003600056034    -0.004048261115
       9       -0.000000667073    -0.000008024587     0.000005619606
      10       -0.000007676049    -0.000005343601    -0.000008258434
      11       -0.003368305967    -0.002027503245     0.001654330237
      12       -0.000006824198     0.000000001307    -0.000001901313
      13       -0.000010212010     0.000000107873    -0.000004328828
      14       -0.000008649164    -0.000003840204     0.000005312379

  **** Optimization is complete! (in 42 steps) ****
    Final optimized geometry and variables:
    Molecular point group: c1

    Geometry (in Angstrom), charge = 0, multiplicity = 1:

    H           -2.598316731378    -0.058049329701     0.780886868775
    N           -1.619470573319    -0.066803344104     0.971153660720
    C           -0.902002674708     0.877378988968     0.133818877806
    H           -1.287741674588    -0.997213189084     0.831813414196
    C            0.597183541228     0.747981829599     0.333221546335
    H           -1.144994986225     0.793292781561    -0.923845151413
    H           -1.176069677700     1.882840427572     0.434371421979
    O            1.149980208787    -0.481107916751    -0.047914328056
    H            1.086588678056     1.549727532632    -0.219119979743
    H            0.832631033294     0.864845109780     1.381043205053
    C            0.830607489138    -0.965307787913    -1.311212186780
    H            1.467385643023    -1.818463955044    -1.496001249326
    H           -0.203253555709    -1.288067991544    -1.383964186371
    H            1.013770357942    -0.224328912002    -2.086889755384

  Mulliken Charges: (a.u.)
   Center  Symbol    Alpha    Beta     Spin     Total
       1     H     0.42953  0.42953  0.00000  0.14094
       2     N     3.69137  3.69137  0.00000 -0.38275
       3     C     3.05271  3.05271  0.00000 -0.10543
       4     H     0.42287  0.42287  0.00000  0.15426
       5     C     2.97937  2.97937  0.00000  0.04126
       6     H     0.46123  0.46123  0.00000  0.07755
       7     H     0.44661  0.44661  0.00000  0.10677
       8     O     4.18014  4.18014  0.00000 -0.36028
       9     H     0.46565  0.46565  0.00000  0.06870
      10     H     0.44913  0.44913  0.00000  0.10173
      11     C     3.03817  3.03817  0.00000 -0.07635
      12     H     0.44240  0.44240  0.00000  0.11519
      13     H     0.47172  0.47172  0.00000  0.05657
      14     H     0.46909  0.46909  0.00000  0.06183

   Total alpha = 21.00000, Total beta = 21.00000, Total charge =  0.00000

*** Psi4 exiting successfully. Buy a developer a beer!
