  ==> Input File <==

--------------------------------------------------------------------------
set {
	reference rhf
	basis cc-pvtz
}

set_num_threads( 4 )
memory 2 gb

molecule MOL {
0 1

O	 1.566471	 0.001110	 -0.929478
C	 0.860843	 0.273204	 -0.013120
C	 -0.623368	 -0.117453	 -0.005652
C	 1.427530	 1.027049	 1.173728
C	 -0.892588	 -1.253841	 -1.002900
C	 -1.473463	 1.100646	 -0.372896
C	 -0.981836	 -0.579025	 1.418506
H	 -0.609333	 -0.970024	 -2.010649
H	 -1.950451	 -1.487353	 -1.013175
H	 -0.360848	 -2.161259	 -0.746463
H	 -1.232203	 1.461623	 -1.364827
H	 -2.524364	 0.834451	 -0.354500
H	 -1.312381	 1.914833	 0.318657
H	 -2.035706	 -0.826342	 1.468082
H	 -0.425078	 -1.458934	 1.716857
H	 -0.788494	 0.205047	 2.140903
H	 1.611318	 0.329838	 1.983594
H	 2.364871	 1.476363	 0.883939
H	 0.752488	 1.786259	 1.544066

	symmetry c1
}
set optking {
	frozen_dihedral = ("
		1 2 3 5
	")
}

ee = optimize('scf')
oeprop('DIPOLE', 'QUADRUPOLE', 'MULLIKEN_CHARGES')
f=open( 'psi4out.xyz', 'w' )
f.write( "19  " )
f.write( str(ee) + "\n" )
f.write( MOL.save_string_xyz() )
f.close()
--------------------------------------------------------------------------

    Molecular point group: c1
  Charge       = 0
  Multiplicity = 1
  Basis Set: CC-PVTZ
  Basis Set:
  @DF-RHF Final Energy:  -309.17285827042406
    Total Energy =                       -309.1728582704237169
    Molecular point group: c1
  Basis Set: CC-PVTZ
  Basis Set:
  Basis Set: CC-PVTZ
  Basis Set:
  @DF-RHF Final Energy:  -309.17257652278454
    Total Energy =                       -309.1725765227848797
  Basis Set: CC-PVTZ
  Basis Set:
  Basis Set: CC-PVTZ
  Basis Set:
  @DF-RHF Final Energy:  -309.17273765488221
    Total Energy =                       -309.1727376548820416
  Basis Set: CC-PVTZ
  Basis Set:
  Basis Set: CC-PVTZ
  Basis Set:
  @DF-RHF Final Energy:  -309.17404105280423
    Total Energy =                       -309.1740410528043412
  Basis Set: CC-PVTZ
  Basis Set:
  @DF-RHF Final Energy:  -309.17421708091695
    Total Energy =                       -309.1742170809170602
  @DF-RHF Final Energy:  -309.17389351886976
    Total Energy =                       -309.1738935188697610
  Basis Set: CC-PVTZ
  Basis Set:
  @DF-RHF Final Energy:  -309.17423793471062
    Total Energy =                       -309.1742379347106180
  Basis Set: CC-PVTZ
  Basis Set:
  Basis Set: CC-PVTZ
  Basis Set:
  @DF-RHF Final Energy:  -309.17424375053946
    Total Energy =                       -309.1742437505398584
  Basis Set: CC-PVTZ
  Basis Set:
  Basis Set: CC-PVTZ
  Basis Set:
  @DF-RHF Final Energy:  -309.17424833845701
    Total Energy =                       -309.1742483384567777
  Basis Set: CC-PVTZ
  Basis Set:
  Charge       = 0
  Multiplicity = 1
  Basis Set: CC-PVTZ
  Basis Set:

    Orbital Energies (a.u.)
    -----------------------

    Doubly Occupied:

       1A    -20.537259     2A    -11.317842     3A    -11.245689
       4A    -11.225330     5A    -11.222207     6A    -11.221595
       7A    -11.206820     8A     -1.398393     9A     -1.110802
      10A     -1.003354    11A     -0.947496    12A     -0.936132
      13A     -0.835622    14A     -0.705484    15A     -0.666755
      16A     -0.634125    17A     -0.622054    18A     -0.597988
      19A     -0.592184    20A     -0.566670    21A     -0.546613
      22A     -0.546006    23A     -0.524968    24A     -0.514483
      25A     -0.502367    26A     -0.472825    27A     -0.467647
      28A     -0.394574

  @DF-RHF Final Energy:  -309.17424839340703

   => Energetics <=

    Nuclear Repulsion Energy =            326.9279099155386916
    One-Electron Energy =               -1067.0777479283760840
    Two-Electron Energy =                 430.9755896194300817
    DFT Exchange-Correlation Energy =       0.0000000000000000
    Empirical Dispersion Energy =           0.0000000000000000
    PCM Polarization Energy =               0.0000000000000000
    EFP Energy =                            0.0000000000000000
    Total Energy =                       -309.1742483934072538
    Molecular point group: c1
  Basis Set: CC-PVTZ
  Basis Set:

  -Total Gradient:
     Atom            X                  Y                   Z
    ------   -----------------  -----------------  -----------------
       1       -0.000131115066     0.000425898112    -0.000207230570
       2        0.000182778024    -0.000669427513     0.000358731939
       3       -0.000156401307     0.000512208218    -0.000386928559
       4       -0.000027277543     0.000007474952     0.000008145688
       5        0.000086287380    -0.000247633302     0.000249041902
       6        0.000020610993     0.000015515713    -0.000010666767
       7        0.000004713790    -0.000012703082     0.000003905513
       8        0.000004467425    -0.000005319228    -0.000003931424
       9        0.000006274240     0.000000495937    -0.000000873951
      10        0.000004105064     0.000002556679    -0.000005162202
      11       -0.000024880137    -0.000006105579    -0.000022490654
      12        0.000005423526     0.000001491582     0.000009883923
      13        0.000013913272     0.000000585073    -0.000000967163
      14       -0.000000898318     0.000003419651     0.000000910301
      15       -0.000007153366    -0.000010908565     0.000000415287
      16        0.000011894074     0.000002253559     0.000003126272
      17        0.000003275446    -0.000011449468     0.000001943235
      18        0.000004409505    -0.000005712409    -0.000001456156
      19       -0.000000427003    -0.000002640330     0.000003603384

  **** Optimization is complete! (in 10 steps) ****
    Final optimized geometry and variables:
    Molecular point group: c1

    Geometry (in Angstrom), charge = 0, multiplicity = 1:

    O            1.552370892589    -0.046241700384    -1.006999381279
    C            0.877421850653     0.207402894408    -0.062588161751
    C           -0.603188933596    -0.195614740790    -0.013222161697
    C            1.472168019188     0.965983734947     1.106673724396
    C           -0.860722290715    -1.314486289698    -1.025329092367
    C           -1.428644690434     1.045521675522    -0.397954564100
    C           -1.005595879398    -0.671322779498     1.389923704486
    H           -0.595950598679    -1.007185326875    -2.026262750066
    H           -1.909962879553    -1.587456723430    -1.013109094990
    H           -0.278983470423    -2.196954420048    -0.788419995956
    H           -1.165656270524     1.393137121636    -1.389572657451
    H           -2.483852651883     0.798665742997    -0.397357455206
    H           -1.283257184473     1.863789972619     0.297407684095
    H           -2.042596341419    -0.984791952212     1.384729383041
    H           -0.408733744483    -1.519819637218     1.706425686120
    H           -0.904765321179     0.107749616872     2.134663634459
    H            1.642680068688     0.283209055875     1.931359012600
    H            2.416874176765     1.388891821429     0.801792605591
    H            0.815413162733     1.748332611272     1.463052211857

  Mulliken Charges: (a.u.)
   Center  Symbol    Alpha    Beta     Spin     Total
       1     O     4.17643  4.17643  0.00000 -0.35286
       2     C     2.85193  2.85193  0.00000  0.29614
       3     C     3.00825  3.00825  0.00000 -0.01651
       4     C     3.16395  3.16395  0.00000 -0.32790
       5     C     3.15071  3.15071  0.00000 -0.30143
       6     C     3.15754  3.15754  0.00000 -0.31508
       7     C     3.16460  3.16460  0.00000 -0.32920
       8     H     0.43803  0.43803  0.00000  0.12394
       9     H     0.45186  0.45186  0.00000  0.09628
      10     H     0.44758  0.44758  0.00000  0.10484
      11     H     0.44096  0.44096  0.00000  0.11808
      12     H     0.44584  0.44584  0.00000  0.10833
      13     H     0.44646  0.44646  0.00000  0.10708
      14     H     0.44274  0.44274  0.00000  0.11452
      15     H     0.44335  0.44335  0.00000  0.11330
      16     H     0.44574  0.44574  0.00000  0.10853
      17     H     0.44570  0.44570  0.00000  0.10860
      18     H     0.43178  0.43178  0.00000  0.13644
      19     H     0.44655  0.44655  0.00000  0.10689

   Total alpha = 28.00000, Total beta = 28.00000, Total charge = -0.00000
