  ==> Input File <==

--------------------------------------------------------------------------
set {
	reference rhf
	basis cc-pvtz
}

set_num_threads( 4 )
memory 2 gb

molecule MOL {
0 1

H	 -1.821000	 -2.218000	 -0.014000
C	 -1.415000	 -1.222000	 -0.022000
N	 -0.127000	 -1.098000	 -0.269000
C	 -2.223000	 -0.123000	 0.214000
C	 0.378000	 0.125000	 -0.285000
H	 -3.273000	 -0.236000	 0.414000
N	 -1.732000	 1.100000	 0.202000
C	 -0.444000	 1.222000	 -0.046000
C	 1.856000	 0.270000	 -0.549000
H	 -0.043000	 2.220000	 -0.059000
C	 2.712000	 -0.228000	 0.620000
H	 2.099000	 -0.298000	 -1.441000
H	 2.086000	 1.310000	 -0.759000
H	 3.767000	 -0.135000	 0.387000
H	 2.500000	 -1.269000	 0.831000
H	 2.515000	 0.346000	 1.521000

	symmetry c1
}
ee = optimize('scf')
oeprop('DIPOLE', 'QUADRUPOLE', 'MULLIKEN_CHARGES')
f=open( 'psi4out.xyz', 'w' )
f.write( "16  " )
f.write( str(ee) + "\n" )
f.write( MOL.save_string_xyz() )
f.close()
--------------------------------------------------------------------------

    Molecular point group: c1
  Charge       = 0
  Multiplicity = 1
  Basis Set: CC-PVTZ
  Basis Set:
  @DF-RHF Final Energy:  -340.87226078289183
    Total Energy =                       -340.8722607828920559
    Molecular point group: c1
  Basis Set: CC-PVTZ
  Basis Set:
  Basis Set: CC-PVTZ
  Basis Set:
  @DF-RHF Final Energy:  -340.87237760638357
    Total Energy =                       -340.8723776063834521
  Basis Set: CC-PVTZ
  Basis Set:
  Basis Set: CC-PVTZ
  Basis Set:
  @DF-RHF Final Energy:  -340.87238032345135
    Total Energy =                       -340.8723803234516936
  Basis Set: CC-PVTZ
  Basis Set:
  Basis Set: CC-PVTZ
  Basis Set:
  @DF-RHF Final Energy:  -340.87238339138503
    Total Energy =                       -340.8723833913848580
  Basis Set: CC-PVTZ
  Basis Set:
  Charge       = 0
  Multiplicity = 1
  Basis Set: CC-PVTZ
  Basis Set:

    Orbital Energies (a.u.)
    -----------------------

    Doubly Occupied:

       1A    -15.580715     2A    -15.576210     3A    -11.278276
       4A    -11.272909     5A    -11.268353     6A    -11.268227
       7A    -11.231591     8A    -11.216638     9A     -1.316230
      10A     -1.224308    11A     -1.086197    12A     -1.015297
      13A     -0.906935    14A     -0.895315    15A     -0.829414
      16A     -0.719429    17A     -0.712833    18A     -0.660037
      19A     -0.614704    20A     -0.604253    21A     -0.583438
      22A     -0.563056    23A     -0.524068    24A     -0.506994
      25A     -0.501037    26A     -0.489822    27A     -0.433140
      28A     -0.397815    29A     -0.347021

  @DF-RHF Final Energy:  -340.87238291429804

   => Energetics <=

    Nuclear Repulsion Energy =            350.5738073080142954
    One-Electron Energy =               -1155.6438545584396707
    Two-Electron Energy =                 464.1976643361275023
    DFT Exchange-Correlation Energy =       0.0000000000000000
    Empirical Dispersion Energy =           0.0000000000000000
    PCM Polarization Energy =               0.0000000000000000
    EFP Energy =                            0.0000000000000000
    Total Energy =                       -340.8723829142979298
    Molecular point group: c1
  Basis Set: CC-PVTZ
  Basis Set:

  -Total Gradient:
     Atom            X                  Y                   Z
    ------   -----------------  -----------------  -----------------
       1       -0.000024689072    -0.000042434020     0.000021831535
       2        0.000140215657    -0.000169319252    -0.000121960482
       3       -0.000083550029    -0.000044328103     0.000001490650
       4       -0.000097475619     0.000193989933     0.000084745828
       5        0.000128663289    -0.000096197072     0.000078898837
       6       -0.000049262105    -0.000016582514     0.000000971779
       7       -0.000054378469    -0.000046113038     0.000000338121
       8       -0.000023938120     0.000130385763    -0.000025524430
       9       -0.000005605661     0.000042687123    -0.000036108339
      10        0.000013082022     0.000046705216    -0.000002921183
      11       -0.000004048394    -0.000015331905    -0.000007781772
      12        0.000045067637     0.000006528365    -0.000033785795
      13       -0.000005734426     0.000023767125     0.000000993902
      14        0.000012977428    -0.000026885541    -0.000016525515
      15       -0.000017707346    -0.000003690447     0.000044774236
      16        0.000026383210     0.000016818369     0.000010562627

  **** Optimization is complete! (in 5 steps) ****
    Final optimized geometry and variables:
    Molecular point group: c1

    Geometry (in Angstrom), charge = 0, multiplicity = 1:

    H           -1.752231618101    -2.214755474242    -0.011937341190
    C           -1.343851525523    -1.221619072577    -0.018178716244
    N           -0.058799500448    -1.097634907640    -0.261687818489
    C           -2.148158249407    -0.124235804362     0.219734147575
    C            0.449026172578     0.119242345767    -0.273392101427
    H           -3.196987860860    -0.237571436563     0.417076221474
    N           -1.655093260566     1.094229509211     0.209506503175
    C           -0.370317858229     1.215444703844    -0.035098996599
    C            1.924033171845     0.265863152017    -0.538105846893
    H            0.033214765615     2.210441255219    -0.046811396295
    C            2.783693455967    -0.226445647391     0.627255259730
    H            2.165448079600    -0.302368339679    -1.428383743897
    H            2.149868030072     1.304569932760    -0.748581617817
    H            3.836249852307    -0.136783903937     0.386379969085
    H            2.571592063037    -1.265007448111     0.844931978500
    H            2.593774322143     0.352427145176     1.524129280178

  Mulliken Charges: (a.u.)
   Center  Symbol    Alpha    Beta     Spin     Total
       1     H     0.41375  0.41375  0.00000  0.17250
       2     C     3.04384  3.04384  0.00000 -0.08768
       3     N     3.59790  3.59790  0.00000 -0.19580
       4     C     3.04750  3.04750  0.00000 -0.09501
       5     C     2.93749  2.93749  0.00000  0.12502
       6     H     0.41369  0.41369  0.00000  0.17262
       7     N     3.58670  3.58670  0.00000 -0.17340
       8     C     3.07851  3.07851  0.00000 -0.15702
       9     C     3.07755  3.07755  0.00000 -0.15509
      10     H     0.41571  0.41571  0.00000  0.16859
      11     C     3.14453  3.14453  0.00000 -0.28906
      12     H     0.44489  0.44489  0.00000  0.11022
      13     H     0.44945  0.44945  0.00000  0.10110
      14     H     0.44950  0.44950  0.00000  0.10099
      15     H     0.44523  0.44523  0.00000  0.10953
      16     H     0.45375  0.45375  0.00000  0.09251

   Total alpha = 29.00000, Total beta = 29.00000, Total charge = -0.00000
