  ==> Input File <==

--------------------------------------------------------------------------
set {
	reference rhf
	basis 6-31G*
}

set_num_threads( 1 )
memory 2 gb

molecule MOL {
0 1

H	 -4.236494	 0.538104	 0.039757
O	 -3.517110	 -0.026191	 -0.205115
C	 -2.306886	 0.532354	 0.237577
C	 -1.177863	 -0.397191	 -0.171080
H	 -2.156308	 1.517575	 -0.201710
H	 -2.315015	 0.655684	 1.319734
C	 0.198102	 0.111031	 0.262842
H	 -1.208843	 -0.518759	 -1.250427
H	 -1.368741	 -1.376554	 0.258909
C	 1.331804	 -0.827780	 -0.158768
H	 0.361943	 1.100838	 -0.156218
H	 0.217265	 0.229072	 1.345532
C	 2.723619	 -0.410569	 0.329459
H	 1.342964	 -0.912588	 -1.244120
H	 1.116806	 -1.824343	 0.220779
C	 3.853818	 -0.678991	 -0.665998
H	 2.938219	 -0.944240	 1.252080
H	 2.712379	 0.646643	 0.587030
H	 3.881352	 -1.727186	 -0.951599
H	 3.745761	 -0.092000	 -1.572057
H	 4.817173	 -0.430664	 -0.231218

	symmetry c1
}
set optking {
	frozen_dihedral = ("
		2 3 4 8,
		8 4 7 10,
		4 7 10 14,
		1 2 3 5
	")
}

ee = energy('scf')
oeprop('DIPOLE', 'QUADRUPOLE', 'MULLIKEN_CHARGES')
f=open( 'psi4out.xyz', 'w' )
f.write( "21  " )
f.write( str(ee) + "\n" )
f.write( MOL.save_string_xyz() )
f.close()
--------------------------------------------------------------------------

    Molecular point group: c1

    Geometry (in Angstrom), charge = 0, multiplicity = 1:

       Center              X                  Y                   Z               Mass
    ------------   -----------------  -----------------  -----------------  -----------------
           H         -4.326017796628     0.769588989559     0.097154167044     1.007825032070
           O         -3.606633796628     0.205293989559    -0.147717832956    15.994914619560
           C         -2.396409796628     0.763838989559     0.294974167044    12.000000000000
           C         -1.267386796628    -0.165706010441    -0.113682832956    12.000000000000
           H         -2.245831796628     1.749059989559    -0.144312832956     1.007825032070
           H         -2.404538796628     0.887168989559     1.377131167044     1.007825032070
           C          0.108578203372     0.342515989559     0.320239167044    12.000000000000
           H         -1.298366796628    -0.287274010441    -1.193029832956     1.007825032070
           H         -1.458264796628    -1.145069010441     0.316306167044     1.007825032070
           C          1.242280203372    -0.596295010441    -0.101370832956    12.000000000000
           H          0.272419203372     1.332322989559    -0.098820832956     1.007825032070
           H          0.127741203372     0.460556989559     1.402929167044     1.007825032070
           C          2.634095203372    -0.179084010441     0.386856167044    12.000000000000
           H          1.253440203372    -0.681103010441    -1.186722832956     1.007825032070
           H          1.027282203372    -1.592858010441     0.278176167044     1.007825032070
           C          3.764294203372    -0.447506010441    -0.608600832956    12.000000000000
           H          2.848695203372    -0.712755010441     1.309477167044     1.007825032070
           H          2.622855203372     0.878127989559     0.644427167044     1.007825032070
           H          3.791828203372    -1.495701010441    -0.894201832956     1.007825032070
           H          3.656237203372     0.139484989559    -1.514659832956     1.007825032070
           H          4.727649203372    -0.199179010441    -0.173820832956     1.007825032070

  Charge       = 0
  Multiplicity = 1
  Basis Set: 6-31G*
  Basis Set:

    Orbital Energies (a.u.)
    -----------------------

    Doubly Occupied:

       1A    -20.551881     2A    -11.267129     3A    -11.216698
       4A    -11.214019     5A    -11.212538     6A    -11.210557
       7A    -11.208566     8A     -1.358706     9A     -1.085335
      10A     -1.034078    11A     -0.956718    12A     -0.868878
      13A     -0.802825    14A     -0.789142    15A     -0.692138
      16A     -0.662438    17A     -0.628083    18A     -0.598936
      19A     -0.584669    20A     -0.562350    21A     -0.544484
      22A     -0.523081    23A     -0.507370    24A     -0.485268
      25A     -0.478199    26A     -0.460690    27A     -0.456001
      28A     -0.443250    29A     -0.434006

  @DF-RHF Final Energy:  -310.21016762287815

   => Energetics <=

    Nuclear Repulsion Energy =            308.8652226695787135
    One-Electron Energy =               -1032.4747267760596969
    Two-Electron Energy =                 413.3993364836024966
    DFT Exchange-Correlation Energy =       0.0000000000000000
    Empirical Dispersion Energy =           0.0000000000000000
    PCM Polarization Energy =               0.0000000000000000
    EFP Energy =                            0.0000000000000000
    Total Energy =                       -310.2101676228784299

  Mulliken Charges: (a.u.)
   Center  Symbol    Alpha    Beta     Spin     Total
       1     H     0.28117  0.28117  0.00000  0.43766
       2     O     4.37173  4.37173  0.00000 -0.74346
       3     C     2.98979  2.98979  0.00000  0.02042
       4     C     3.15988  3.15988  0.00000 -0.31977
       5     H     0.43294  0.43294  0.00000  0.13412
       6     H     0.43283  0.43283  0.00000  0.13434
       7     C     3.16169  3.16169  0.00000 -0.32338
       8     H     0.41463  0.41463  0.00000  0.17074
       9     H     0.41468  0.41468  0.00000  0.17064
      10     C     3.15256  3.15256  0.00000 -0.30513
      11     H     0.42295  0.42295  0.00000  0.15410
      12     H     0.42335  0.42335  0.00000  0.15330
      13     C     3.15338  3.15338  0.00000 -0.30676
      14     H     0.42117  0.42117  0.00000  0.15767
      15     H     0.42092  0.42092  0.00000  0.15817
      16     C     3.24006  3.24006  0.00000 -0.48011
      17     H     0.42140  0.42140  0.00000  0.15719
      18     H     0.42205  0.42205  0.00000  0.15590
      19     H     0.42135  0.42135  0.00000  0.15730
      20     H     0.42121  0.42121  0.00000  0.15759
      21     H     0.42026  0.42026  0.00000  0.15948

   Total alpha = 29.00000, Total beta = 29.00000, Total charge =  0.00000
