  ==> Input File <==

--------------------------------------------------------------------------
set {
	reference rhf
	basis cc-pvtz
}

set_num_threads( 4 )
memory 2 gb

molecule MOL {
0 1

O	 -0.628129	 -0.408869	 -2.205768
C	 -0.178030	 -0.758654	 -1.168026
C	 1.040053	 -1.631315	 -0.998915
O	 -0.695554	 -0.422406	 0.000602
C	 1.674400	 -2.046000	 -2.316721
H	 0.737741	 -2.495046	 -0.417084
H	 1.741623	 -1.086155	 -0.377195
H	 0.976319	 -2.603656	 -2.926575
H	 2.541241	 -2.668867	 -2.132404
H	 1.989330	 -1.181957	 -2.886347
C	 -1.852370	 0.402254	 0.000718
C	 -3.063338	 -0.501097	 -0.000437
H	 -1.831732	 1.039442	 -0.872158
H	 -1.832493	 1.038301	 0.874430
H	 -3.071944	 -1.133732	 -0.879113
H	 -3.966302	 0.097976	 -0.000483
H	 -3.072764	 -1.134834	 0.877435

	symmetry c1
}
set optking {
	frozen_dihedral = ("
		2 4 11 13
	")
}

ee = optimize('scf')
oeprop('DIPOLE', 'QUADRUPOLE', 'MULLIKEN_CHARGES')
f=open( 'psi4out.xyz', 'w' )
f.write( "17  " )
f.write( str(ee) + "\n" )
f.write( MOL.save_string_xyz() )
f.close()
--------------------------------------------------------------------------

    Molecular point group: c1
  Charge       = 0
  Multiplicity = 1
  Basis Set: CC-PVTZ
  Basis Set:
  @DF-RHF Final Energy:  -345.03813646045899
    Total Energy =                       -345.0381364604589862
    Molecular point group: c1
  Basis Set: CC-PVTZ
  Basis Set:
  Basis Set: CC-PVTZ
  Basis Set:
  @DF-RHF Final Energy:  -345.03913527696113
    Total Energy =                       -345.0391352769612467
  Basis Set: CC-PVTZ
  Basis Set:
  Basis Set: CC-PVTZ
  Basis Set:
  @DF-RHF Final Energy:  -345.03585556656839
    Total Energy =                       -345.0358555665685572
  Basis Set: CC-PVTZ
  Basis Set:
  Basis Set: CC-PVTZ
  Basis Set:
  @DF-RHF Final Energy:  -345.03943503591984
    Total Energy =                       -345.0394350359194959
  Basis Set: CC-PVTZ
  Basis Set:
  Basis Set: CC-PVTZ
  Basis Set:
  @DF-RHF Final Energy:  -345.03946994551228
    Total Energy =                       -345.0394699455118825
  Basis Set: CC-PVTZ
  Basis Set:
  Charge       = 0
  Multiplicity = 1
  Basis Set: CC-PVTZ
  Basis Set:

    Orbital Energies (a.u.)
    -----------------------

    Doubly Occupied:

       1A    -20.592613     2A    -20.532782     3A    -11.364666
       4A    -11.281871     5A    -11.235636     6A    -11.217313
       7A    -11.213711     8A     -1.469035     9A     -1.365043
      10A     -1.069852    11A     -1.029519    12A     -0.915995
      13A     -0.853342    14A     -0.763591    15A     -0.704610
      16A     -0.683271    17A     -0.662578    18A     -0.622928
      19A     -0.608590    20A     -0.570246    21A     -0.550287
      22A     -0.533499    23A     -0.521533    24A     -0.516081
      25A     -0.497502    26A     -0.492433    27A     -0.452332
      28A     -0.439715

  @DF-RHF Final Energy:  -345.03947040685711

   => Energetics <=

    Nuclear Repulsion Energy =            318.1747804094583785
    One-Electron Energy =               -1100.9073521087811969
    Two-Electron Energy =                 437.6931012924659399
    DFT Exchange-Correlation Energy =       0.0000000000000000
    Empirical Dispersion Energy =           0.0000000000000000
    PCM Polarization Energy =               0.0000000000000000
    EFP Energy =                            0.0000000000000000
    Total Energy =                       -345.0394704068568217
    Molecular point group: c1
  Basis Set: CC-PVTZ
  Basis Set:

  -Total Gradient:
     Atom            X                  Y                   Z
    ------   -----------------  -----------------  -----------------
       1       -0.000009320067    -0.000003463140     0.000032333348
       2        0.000497110514     0.000663844063    -0.000017746741
       3       -0.000005702590     0.000005945691    -0.000007712600
       4       -0.000823485741    -0.001209101873    -0.000098805982
       5        0.000024314344    -0.000005626088    -0.000000461292
       6       -0.000000091854     0.000002165198    -0.000001085584
       7       -0.000000655193    -0.000005316303    -0.000005258824
       8       -0.000002895891     0.000002856065     0.000006370497
       9        0.000006314712    -0.000002271443    -0.000008534137
      10        0.000000522113    -0.000003886111     0.000000234215
      11        0.000788321280     0.001223115724     0.000581821205
      12        0.000043851340    -0.000004692897     0.000008396105
      13       -0.000514830305    -0.000638260945    -0.000492987166
      14       -0.000012736834    -0.000025158312    -0.000004285065
      15        0.000010024542     0.000010042283     0.000001687366
      16        0.000013725440     0.000001953285     0.000001569795
      17       -0.000014465810    -0.000012145197     0.000004464858

  **** Optimization is complete! (in 6 steps) ****
    Final optimized geometry and variables:
    Molecular point group: c1

    Geometry (in Angstrom), charge = 0, multiplicity = 1:

    O           -0.074978094749     0.318263368775    -1.271392945761
    C            0.371941663802    -0.006871618302    -0.224161251994
    C            1.608273788737    -0.849714915636    -0.035164071749
    O           -0.158424687780     0.327917056604     0.939891056846
    C            2.260053173989    -1.270741806347    -1.342420577090
    H            1.321331761363    -1.710611076431     0.558443970956
    H            2.293510795706    -0.279533458217     0.582216227661
    H            1.578725558137    -1.853847259813    -1.947431651470
    H            3.139587221241    -1.870745704879    -1.142937905980
    H            2.559013158865    -0.408994814786    -1.923946706464
    C           -1.320212455747     1.148456681594     0.960100814235
    C           -2.579893947164     0.308201888635     0.992462440537
    H           -1.314486613693     1.797078874435     0.099113784358
    H           -1.228738403876     1.743503647946     1.856508855496
    H           -2.671990553488    -0.279836664348     0.088647425750
    H           -3.448151087730     0.952994296689     1.068362005723
    H           -2.574783622822    -0.359810057552     1.845077403420

  Mulliken Charges: (a.u.)
   Center  Symbol    Alpha    Beta     Spin     Total
       1     O     4.19925  4.19925  0.00000 -0.39849
       2     C     2.80165  2.80165  0.00000  0.39670
       3     C     3.09438  3.09438  0.00000 -0.18876
       4     O     4.15732  4.15732  0.00000 -0.31463
       5     C     3.13994  3.13994  0.00000 -0.27989
       6     H     0.44193  0.44193  0.00000  0.11615
       7     H     0.44175  0.44175  0.00000  0.11650
       8     H     0.44867  0.44867  0.00000  0.10266
       9     H     0.45057  0.45057  0.00000  0.09886
      10     H     0.44846  0.44846  0.00000  0.10307
      11     C     2.98816  2.98816  0.00000  0.02369
      12     C     3.14616  3.14616  0.00000 -0.29231
      13     H     0.44762  0.44762  0.00000  0.10475
      14     H     0.44542  0.44542  0.00000  0.10916
      15     H     0.44496  0.44496  0.00000  0.11009
      16     H     0.45172  0.45172  0.00000  0.09657
      17     H     0.45205  0.45205  0.00000  0.09590

   Total alpha = 28.00000, Total beta = 28.00000, Total charge = -0.00000
