  ==> Input File <==

--------------------------------------------------------------------------
set {
	reference rhf
	basis 6-31G*
}

set_num_threads( 1 )
memory 2 gb

molecule MOL {
0 1

H	 -1.836216	 1.387520	 -0.000064
C	 -1.301823	 0.443321	 -0.000031
O	 -0.003969	 0.658512	 0.000451
O	 -1.829879	 -0.616434	 -0.000857
C	 0.850537	 -0.484732	 -0.000064
C	 2.278695	 0.015952	 -0.000203
H	 0.633867	 -1.081462	 -0.875441
H	 0.634217	 -1.082585	 0.874620
H	 2.474914	 0.619238	 -0.879167
H	 2.963662	 -0.825506	 -0.001031
H	 2.475428	 0.618140	 0.879316

	symmetry c1
}
set optking {
	frozen_dihedral = ("
		7 5 3 2
	")
}

ee = energy('scf')
oeprop('DIPOLE', 'QUADRUPOLE', 'MULLIKEN_CHARGES')
f=open( 'psi4out.xyz', 'w' )
f.write( "11  " )
f.write( str(ee) + "\n" )
f.write( MOL.save_string_xyz() )
f.close()
--------------------------------------------------------------------------

    Molecular point group: c1

    Geometry (in Angstrom), charge = 0, multiplicity = 1:

       Center              X                  Y                   Z               Mass
    ------------   -----------------  -----------------  -----------------  -----------------
           H         -1.836216263365     1.387519762547     0.000096065879     1.007825032070
           C         -1.301823263365     0.443320762547     0.000129065879    12.000000000000
           O         -0.003969263365     0.658511762547     0.000611065879    15.994914619560
           O         -1.829879263365    -0.616434237453    -0.000696934121    15.994914619560
           C          0.850536736635    -0.484732237453     0.000096065879    12.000000000000
           C          2.278694736635     0.015951762547    -0.000042934121    12.000000000000
           H          0.633866736635    -1.081462237453    -0.875280934121     1.007825032070
           H          0.634216736635    -1.082585237453     0.874780065879     1.007825032070
           H          2.474913736635     0.619237762547    -0.879006934121     1.007825032070
           H          2.963661736635    -0.825506237453    -0.000870934121     1.007825032070
           H          2.475427736635     0.618139762547     0.879476065879     1.007825032070

  Charge       = 0
  Multiplicity = 1
  Basis Set: 6-31G*
  Basis Set:

    Orbital Energies (a.u.)
    -----------------------

    Doubly Occupied:

       1A    -20.612990     2A    -20.557076     3A    -11.378370
       4A    -11.291876     5A    -11.226828     6A     -1.476489
       7A     -1.374028     8A     -1.052801     9A     -0.902560
      10A     -0.805622    11A     -0.737453    12A     -0.690655
      13A     -0.677913    14A     -0.590813    15A     -0.576211
      16A     -0.557022    17A     -0.517645    18A     -0.515135
      19A     -0.459962    20A     -0.454645

  @DF-RHF Final Energy:  -266.82900065142900

   => Energetics <=

    Nuclear Repulsion Energy =            179.3190275711938284
    One-Electron Energy =                -719.3838799638292585
    Two-Electron Energy =                 273.2358517412063748
    DFT Exchange-Correlation Energy =       0.0000000000000000
    Empirical Dispersion Energy =           0.0000000000000000
    PCM Polarization Energy =               0.0000000000000000
    EFP Energy =                            0.0000000000000000
    Total Energy =                       -266.8290006514290553

  Mulliken Charges: (a.u.)
   Center  Symbol    Alpha    Beta     Spin     Total
       1     H     0.41025  0.41025  0.00000  0.17950
       2     C     2.72764  2.72764  0.00000  0.54473
       3     O     4.29110  4.29110  0.00000 -0.58221
       4     O     4.26321  4.26321  0.00000 -0.52642
       5     C     3.00639  3.00639  0.00000 -0.01278
       6     C     3.24945  3.24945  0.00000 -0.49891
       7     H     0.40809  0.40809  0.00000  0.18383
       8     H     0.40808  0.40808  0.00000  0.18384
       9     H     0.41039  0.41039  0.00000  0.17921
      10     H     0.41500  0.41500  0.00000  0.17000
      11     H     0.41039  0.41039  0.00000  0.17922

   Total alpha = 20.00000, Total beta = 20.00000, Total charge = -0.00000
