  ==> Input File <==

--------------------------------------------------------------------------
set {
	reference rhf
	basis 6-31G*
}

set_num_threads( 4 )
memory 2 gb

molecule MOL {
0 1

H	 2.845955	 -0.323208	 0.022310
C	 1.900140	 0.071967	 -0.330070
C	 0.778463	 -0.508087	 0.517968
H	 1.782469	 -0.206877	 -1.370777
H	 1.922247	 1.149867	 -0.254252
N	 -0.540928	 0.005139	 0.058438
H	 0.716718	 -1.581298	 0.454712
H	 0.859711	 -0.198647	 1.550086
O	 -1.454609	 -0.057435	 0.820373
O	 -0.591742	 0.447994	 -1.048720

	symmetry c1
}
set optking {
	frozen_dihedral = ("
		9 6 3 2
	")
}

ee = optimize('scf')
oeprop('DIPOLE', 'QUADRUPOLE', 'MULLIKEN_CHARGES')
f=open( 'psi4out.xyz', 'w' )
f.write( "10  " )
f.write( str(ee) + "\n" )
f.write( MOL.save_string_xyz() )
f.close()
--------------------------------------------------------------------------

    Molecular point group: c1
  Charge       = 0
  Multiplicity = 1
  Basis Set: 6-31G*
  Basis Set:
  @DF-RHF Final Energy:  -282.69936010238189
    Total Energy =                       -282.6993601023818883
    Molecular point group: c1
  Basis Set: 6-31G*
  Basis Set:
  Basis Set: 6-31G*
  Basis Set:
  @DF-RHF Final Energy:  -282.69714926036846
    Total Energy =                       -282.6971492603686897
  Basis Set: 6-31G*
  Basis Set:
  Basis Set: 6-31G*
  Basis Set:
  @DF-RHF Final Energy:  -282.69668045352790
    Total Energy =                       -282.6966804535277902
  Basis Set: 6-31G*
  Basis Set:
  Basis Set: 6-31G*
  Basis Set:
  @DF-RHF Final Energy:  -282.70031229171519
    Total Energy =                       -282.7003122917152496
  Basis Set: 6-31G*
  Basis Set:
  Basis Set: 6-31G*
  Basis Set:
  @DF-RHF Final Energy:  -282.70037990769947
    Total Energy =                       -282.7003799076992436
  Basis Set: 6-31G*
  Basis Set:
  Basis Set: 6-31G*
  Basis Set:
  @DF-RHF Final Energy:  -282.70039141991879
    Total Energy =                       -282.7003914199187875
  Basis Set: 6-31G*
  Basis Set:
  Charge       = 0
  Multiplicity = 1
  Basis Set: 6-31G*
  Basis Set:

    Orbital Energies (a.u.)
    -----------------------

    Doubly Occupied:

       1A    -20.604646     2A    -20.600722     3A    -15.850014
       4A    -11.305084     5A    -11.246795     6A     -1.633293
       7A     -1.418820     8A     -1.125733     9A     -0.967386
      10A     -0.833861    11A     -0.760944    12A     -0.747696
      13A     -0.727022    14A     -0.640625    15A     -0.593795
      16A     -0.564384    17A     -0.539617    18A     -0.486970
      19A     -0.478407    20A     -0.450600

  @DF-RHF Final Energy:  -282.70039255197253

   => Energetics <=

    Nuclear Repulsion Energy =            186.0861140212005864
    One-Electron Energy =                -754.4201831881828184
    Two-Electron Energy =                 285.6336766150097901
    DFT Exchange-Correlation Energy =       0.0000000000000000
    Empirical Dispersion Energy =           0.0000000000000000
    PCM Polarization Energy =               0.0000000000000000
    EFP Energy =                            0.0000000000000000
    Total Energy =                       -282.7003925519724135
    Molecular point group: c1
  Basis Set: 6-31G*
  Basis Set:

  -Total Gradient:
     Atom            X                  Y                   Z
    ------   -----------------  -----------------  -----------------
       1       -0.000019687392    -0.000001818897     0.000002602480
       2       -0.000025543180    -0.000029944803    -0.000058445692
       3       -0.000002595477     0.000037472450     0.000102854639
       4        0.000010671753     0.000010400246    -0.000023491489
       5        0.000012709524    -0.000001541560    -0.000007518020
       6       -0.000072060289     0.000101566064    -0.000013850678
       7       -0.000018170591     0.000005059901    -0.000005606253
       8       -0.000024711145    -0.000008895139     0.000013586559
       9        0.000042678524    -0.000119197412     0.000087322986
      10        0.000096708275     0.000006899148    -0.000097454532

  **** Optimization is complete! (in 7 steps) ****
    Final optimized geometry and variables:
    Molecular point group: c1

    Geometry (in Angstrom), charge = 0, multiplicity = 1:

    H            2.863083629514    -0.316168842503     0.063354609198
    C            1.931762153512     0.075262712262    -0.331020414720
    C            0.790841444244    -0.479933182311     0.497729437710
    H            1.844012728933    -0.214949912896    -1.368064543787
    H            1.965853021194     1.156175102518    -0.277612033408
    N           -0.545212770052     0.016650309105     0.057428246163
    H            0.714105592467    -1.556724093638     0.422134489227
    H            0.854916308385    -0.217520294760     1.541622516657
    O           -1.427508697983    -0.067234502315     0.855331860307
    O           -0.657094700587     0.428666291233    -1.054713983439

  Mulliken Charges: (a.u.)
   Center  Symbol    Alpha    Beta     Spin     Total
       1     H     0.40941  0.40941  0.00000  0.18118
       2     C     3.25113  3.25113  0.00000 -0.50227
       3     C     3.09547  3.09547  0.00000 -0.19094
       4     H     0.39595  0.39595  0.00000  0.20810
       5     H     0.40290  0.40290  0.00000  0.19420
       6     N     3.21987  3.21987  0.00000  0.56026
       7     H     0.38419  0.38419  0.00000  0.23163
       8     H     0.38495  0.38495  0.00000  0.23010
       9     O     4.22857  4.22857  0.00000 -0.45713
      10     O     4.22756  4.22756  0.00000 -0.45513

   Total alpha = 20.00000, Total beta = 20.00000, Total charge = -0.00000
