  ==> Input File <==

--------------------------------------------------------------------------
set {
	reference rhf
	basis cc-pvtz
}

set_num_threads( 4 )
memory 2 gb

molecule MOL {
0 1

H	 -2.023531	 0.171880	 0.105784
N	 -1.173824	 -0.310545	 -0.096857
C	 -0.022588	 0.563366	 0.065815
H	 -1.120667	 -1.089094	 0.526561
C	 1.270420	 -0.230572	 -0.014245
H	 -0.045354	 1.293678	 -0.735129
H	 -0.043155	 1.123061	 1.001180
H	 1.336273	 -0.754933	 -0.959364
H	 2.130728	 0.422015	 0.082222
H	 1.323344	 -0.967006	 0.781773

	symmetry c1
}
set optking {
	frozen_dihedral = ("
		1 2 3 6
	")
}

ee = optimize('scf')
oeprop('DIPOLE', 'QUADRUPOLE', 'MULLIKEN_CHARGES')
f=open( 'psi4out.xyz', 'w' )
f.write( "10  " )
f.write( str(ee) + "\n" )
f.write( MOL.save_string_xyz() )
f.close()
--------------------------------------------------------------------------

    Molecular point group: c1
  Charge       = 0
  Multiplicity = 1
  Basis Set: CC-PVTZ
  Basis Set:
  @DF-RHF Final Energy:  -134.30443204098964
    Total Energy =                       -134.3044320409896670
    Molecular point group: c1
  Basis Set: CC-PVTZ
  Basis Set:
  Basis Set: CC-PVTZ
  Basis Set:
  @DF-RHF Final Energy:  -134.30447339219478
    Total Energy =                       -134.3044733921948648
  Basis Set: CC-PVTZ
  Basis Set:
  Basis Set: CC-PVTZ
  Basis Set:
  @DF-RHF Final Energy:  -134.30447618902031
    Total Energy =                       -134.3044761890203063
  Basis Set: CC-PVTZ
  Basis Set:
  Charge       = 0
  Multiplicity = 1
  Basis Set: CC-PVTZ
  Basis Set:

    Orbital Energies (a.u.)
    -----------------------

    Doubly Occupied:

       1A    -15.527269     2A    -11.240891     3A    -11.206916
       4A     -1.178411     5A     -0.989223     6A     -0.825583
       7A     -0.659938     8A     -0.633254     9A     -0.585930
      10A     -0.518202    11A     -0.505341    12A     -0.490907
      13A     -0.386182

  @DF-RHF Final Energy:  -134.30447636942438

   => Energetics <=

    Nuclear Repulsion Energy =             83.5157247428252134
    One-Electron Energy =                -346.1443086486964376
    Two-Electron Energy =                 128.3241075364468600
    DFT Exchange-Correlation Energy =       0.0000000000000000
    Empirical Dispersion Energy =           0.0000000000000000
    PCM Polarization Energy =               0.0000000000000000
    EFP Energy =                            0.0000000000000000
    Total Energy =                       -134.3044763694243500
    Molecular point group: c1
  Basis Set: CC-PVTZ
  Basis Set:

  -Total Gradient:
     Atom            X                  Y                   Z
    ------   -----------------  -----------------  -----------------
       1        0.000091992154    -0.000459406263     0.001620621993
       2        0.000094832366     0.000404381103    -0.002243234049
       3       -0.001067882405     0.001016657699     0.001489550874
       4        0.000003179995    -0.000016647120     0.000013611951
       5        0.000011115963    -0.000007043236    -0.000003526952
       6        0.000841603839    -0.000943633618    -0.000865098774
       7        0.000004492571     0.000014161536    -0.000002383179
       8        0.000008416679    -0.000005888367    -0.000005617639
       9        0.000006901506     0.000000386629    -0.000001775559
      10        0.000005347333    -0.000002968363    -0.000002148666

  **** Optimization is complete! (in 4 steps) ****
    Final optimized geometry and variables:
    Molecular point group: c1

    Geometry (in Angstrom), charge = 0, multiplicity = 1:

    H           -2.026710972353     0.173128017036     0.091146123394
    N           -1.174808058426    -0.309431322422    -0.104196706239
    C           -0.026103976919     0.567245626826     0.069893928404
    H           -1.128836502917    -1.074770119182     0.536746793765
    C            1.267653904417    -0.225660496244    -0.015680281820
    H           -0.039677978685     1.299552278672    -0.729653600166
    H           -0.049059988595     1.116974253246     1.010397316490
    H            1.327719529611    -0.754026038024    -0.959305716099
    H            2.127299231965     0.428913553725     0.068952652104
    H            1.329539053847    -0.957620398491     0.783949361609

  Mulliken Charges: (a.u.)
   Center  Symbol    Alpha    Beta     Spin     Total
       1     H     0.43085  0.43085  0.00000  0.13831
       2     N     3.68765  3.68765  0.00000 -0.37531
       3     C     3.01637  3.01637  0.00000 -0.03275
       4     H     0.43135  0.43135  0.00000  0.13729
       5     C     3.14175  3.14175  0.00000 -0.28349
       6     H     0.45867  0.45867  0.00000  0.08265
       7     H     0.46983  0.46983  0.00000  0.06033
       8     H     0.44894  0.44894  0.00000  0.10211
       9     H     0.45402  0.45402  0.00000  0.09196
      10     H     0.46056  0.46056  0.00000  0.07889

   Total alpha = 13.00000, Total beta = 13.00000, Total charge =  0.00000
