                              Psi4 1.0.54 Driver

  ==> Input File <==

--------------------------------------------------------------------------
set {
	reference rhf
	basis cc-pvtz
}

set_num_threads( 4 )
memory 2 gb

molecule MOL {
0 1

H	 3.814330	 0.281630	 -0.512115
N	 3.091268	 -0.241216	 -0.065538
C	 1.860978	 0.530248	 0.016256
H	 3.421881	 -0.482335	 0.845453
C	 0.644130	 -0.381765	 -0.031064
H	 1.835721	 1.204666	 -0.833114
H	 1.808789	 1.151975	 0.911067
C	 -0.678115	 0.376691	 0.025731
H	 0.693998	 -0.977147	 -0.936845
H	 0.693309	 -1.082142	 0.800523
C	 -1.900706	 -0.535531	 -0.022488
H	 -0.725296	 1.079516	 -0.802982
H	 -0.715474	 0.974884	 0.933278
C	 -3.220513	 0.226854	 0.028039
H	 -1.865036	 -1.134397	 -0.928236
H	 -1.857948	 -1.236381	 0.806820
H	 -3.309098	 0.911849	 -0.808725
H	 -4.066838	 -0.449485	 -0.008086
H	 -3.301685	 0.809374	 0.939860

	symmetry c1
}
set optking {
	frozen_dihedral = ("
		1 2 3 6
	")
}

ee,wfn = optimize('scf', return_wfn=True)
oeprop( wfn, 'DIPOLE', 'QUADRUPOLE', 'MULLIKEN_CHARGES')
f=open( 'psi4out.xyz', 'w' )
f.write( "19  " )
f.write( str(ee) + "\n" )
f.write( MOL.save_string_xyz() )
f.close()
--------------------------------------------------------------------------

    Molecular point group: c1
  Charge       = 0
  Multiplicity = 1
  Basis Set: CC-PVTZ
  Basis Set:
  @DF-RHF Final Energy:  -251.44668520774925
    Total Energy =                       -251.4466852077492831
    Molecular point group: c1
  Basis Set: CC-PVTZ
  Basis Set:
  Basis Set: CC-PVTZ
  Basis Set:
  @DF-RHF Final Energy:  -251.44685912927275
    Total Energy =                       -251.4468591292729229
  Basis Set: CC-PVTZ
  Basis Set:
  Basis Set: CC-PVTZ
  Basis Set:
  @DF-RHF Final Energy:  -251.44690824973213
    Total Energy =                       -251.4469082497321892
  Basis Set: CC-PVTZ
  Basis Set:
  Basis Set: CC-PVTZ
  Basis Set:
  @DF-RHF Final Energy:  -251.44691046336905
    Total Energy =                       -251.4469104633691359
  Basis Set: CC-PVTZ
  Basis Set:
  Charge       = 0
  Multiplicity = 1
  Basis Set: CC-PVTZ
  Basis Set:

    Orbital Energies (a.u.)
    -----------------------

    Doubly Occupied:

       1A    -15.525038     2A    -11.238358     3A    -11.210572
       4A    -11.208699     5A    -11.204518     6A    -11.203878
       7A     -1.176026     8A     -1.072797     9A     -0.998586
      10A     -0.900596    11A     -0.811721    12A     -0.787198
      13A     -0.674319    14A     -0.638364    15A     -0.616482
      16A     -0.583719    17A     -0.567112    18A     -0.554104
      19A     -0.522540    20A     -0.502549    21A     -0.475490
      22A     -0.463497    23A     -0.459340    24A     -0.454633
      25A     -0.379454

  @DF-RHF Final Energy:  -251.44691070724124

   => Energetics <=

    Nuclear Repulsion Energy =            245.7647537994999141
    One-Electron Energy =                -825.9641515123590807
    Two-Electron Energy =                 328.7524870056182635
    DFT Exchange-Correlation Energy =       0.0000000000000000
    Empirical Dispersion Energy =           0.0000000000000000
    PCM Polarization Energy =               0.0000000000000000
    EFP Energy =                            0.0000000000000000
    Total Energy =                       -251.4469107072409315
    Molecular point group: c1
  Basis Set: CC-PVTZ
  Basis Set:

  -Total Gradient:
     Atom            X                  Y                   Z
    ------   -----------------  -----------------  -----------------
       1       -0.000656718475    -0.000906404799    -0.002214606510
       2        0.001089901489     0.001477886317     0.003059653089
       3       -0.001418651003    -0.002154265267    -0.002084925409
       4       -0.000011998430    -0.000003098967    -0.000002743770
       5        0.000040088217     0.000040745521     0.000017566231
       6        0.000995460941     0.001563487321     0.001209077566
       7       -0.000011494221    -0.000003911274     0.000015520535
       8       -0.000011452378    -0.000018775173    -0.000002525754
       9       -0.000002539752     0.000004050034     0.000007911490
      10        0.000000738060     0.000000158823     0.000001982024
      11       -0.000016286314     0.000011871436    -0.000007850772
      12        0.000000998769    -0.000002937975     0.000004754841
      13        0.000003707792    -0.000007778645    -0.000002186356
      14       -0.000003975388    -0.000004988212    -0.000000652196
      15        0.000001467318    -0.000001863797    -0.000001236768
      16        0.000002193356     0.000004722548     0.000000271208
      17       -0.000000224691    -0.000000690083    -0.000000099001
      18       -0.000001375697     0.000001397312     0.000000413138
      19        0.000000160400     0.000000394879    -0.000000323585

  **** Optimization is complete! (in 5 steps) ****
    Final optimized geometry and variables:
    Molecular point group: c1

    Geometry (in Angstrom), charge = 0, multiplicity = 1:

    H            3.834047971897     0.294145908872    -0.466969610748
    N            3.099220451637    -0.226623197298    -0.042506393724
    C            1.856695320082     0.529876391447     0.010290188270
    H            3.401300765835    -0.518370320289     0.861136553831
    C            0.641362042672    -0.385040352071    -0.033500265403
    H            1.838067822140     1.208322535808    -0.835853434100
    H            1.797076974341     1.161758170423     0.896703639254
    C           -0.682744144320     0.369842446424     0.025103877755
    H            0.692328581290    -0.982162952104    -0.938031904881
    H            0.698669297347    -1.084467178387     0.797412577785
    C           -1.903455563395    -0.544861925220    -0.023347378785
    H           -0.733091722067     1.074405755190    -0.802388204144
    H           -0.721194103110     0.966914877749     0.933585849282
    C           -3.225135113434     0.213867143842     0.032515486253
    H           -1.868316956104    -1.140860534394    -0.930996554999
    H           -1.856883071137    -1.248134935279     0.803621802818
    H           -3.317478898095     0.901147488050    -0.802012744753
    H           -4.069911961233    -0.464509119069    -0.003583760750
    H           -3.305642136272     0.793501985073     0.946262269910

  Mulliken Charges: (a.u.)
   Center  Symbol    Alpha    Beta     Spin     Total
       1     H     0.42566  0.42566  0.00000  0.14869
       2     N     3.69553  3.69553  0.00000 -0.39106
       3     C     3.03789  3.03789  0.00000 -0.07578
       4     H     0.42878  0.42878  0.00000  0.14245
       5     C     3.06930  3.06930  0.00000 -0.13861
       6     H     0.45655  0.45655  0.00000  0.08689
       7     H     0.46481  0.46481  0.00000  0.07037
       8     C     3.09527  3.09527  0.00000 -0.19053
       9     H     0.45199  0.45199  0.00000  0.09601
      10     H     0.45945  0.45945  0.00000  0.08109
      11     C     3.08313  3.08313  0.00000 -0.16627
      12     H     0.45633  0.45633  0.00000  0.08735
      13     H     0.45704  0.45704  0.00000  0.08593
      14     C     3.14966  3.14966  0.00000 -0.29932
      15     H     0.45395  0.45395  0.00000  0.09210
      16     H     0.45477  0.45477  0.00000  0.09046
      17     H     0.45548  0.45548  0.00000  0.08905
      18     H     0.44866  0.44866  0.00000  0.10269
      19     H     0.45576  0.45576  0.00000  0.08849

   Total alpha = 25.00000, Total beta = 25.00000, Total charge =  0.00000

*** Psi4 exiting successfully. Buy a developer a beer!
