  ==> Input File <==

--------------------------------------------------------------------------
set {
	reference rhf
	basis 6-31G*
}

set_num_threads( 4 )
memory 2 gb

molecule MOL {
0 1

O	 2.844745	 -1.611171	 -1.775597
C	 2.497339	 -1.321087	 -0.676406
C	 1.067375	 -1.213759	 -0.204735
O	 3.347903	 -1.046386	 0.304773
C	 0.049662	 -1.533653	 -1.297458
H	 0.964635	 -1.871470	 0.652033
H	 0.927856	 -0.205424	 0.176701
C	 -1.405911	 -1.327643	 -0.864607
H	 0.192573	 -2.556694	 -1.632245
H	 0.256777	 -0.905795	 -2.157295
C	 -1.896993	 -2.285414	 0.224716
H	 -2.038016	 -1.445695	 -1.741665
H	 -1.542870	 -0.300183	 -0.530574
C	 -3.383550	 -2.112543	 0.542933
H	 -1.714049	 -3.311151	 -0.091848
H	 -1.323462	 -2.140487	 1.137421
C	 -3.884164	 -3.060936	 1.633836
H	 -3.966052	 -2.269282	 -0.363356
H	 -3.569023	 -1.084211	 0.849254
C	 -5.370446	 -2.884515	 1.942935
H	 -3.698684	 -4.088944	 1.329799
H	 -3.306015	 -2.902722	 2.541852
H	 -5.695211	 -3.570075	 2.719557
H	 -5.978757	 -3.070411	 1.062256
H	 -5.583051	 -1.874862	 2.283043
C	 4.728119	 -1.109107	 -0.004993
H	 4.882018	 -1.033965	 -1.071845
H	 5.068212	 -2.067527	 0.355250
H	 5.265056	 -0.311663	 0.488280

	symmetry c1
}
set optking {
	frozen_dihedral = ("
		2 4 26 27
	")
}

ee = optimize('scf')
oeprop('DIPOLE', 'QUADRUPOLE', 'MULLIKEN_CHARGES')
f=open( 'psi4out.xyz', 'w' )
f.write( "29  " )
f.write( str(ee) + "\n" )
f.write( MOL.save_string_xyz() )
f.close()
--------------------------------------------------------------------------

    Molecular point group: c1
  Charge       = 0
  Multiplicity = 1
  Basis Set: 6-31G*
  Basis Set:
  @DF-RHF Final Energy:  -501.04117935732631
    Total Energy =                       -501.0411793573259729
    Molecular point group: c1
  Basis Set: 6-31G*
  Basis Set:
  Basis Set: 6-31G*
  Basis Set:
  @DF-RHF Final Energy:  -501.04199792040993
    Total Energy =                       -501.0419979204098127
  Basis Set: 6-31G*
  Basis Set:
  Basis Set: 6-31G*
  Basis Set:
  @DF-RHF Final Energy:  -501.04144045628675
    Total Energy =                       -501.0414404562867503
  Basis Set: 6-31G*
  Basis Set:
  Basis Set: 6-31G*
  Basis Set:
  @DF-RHF Final Energy:  -501.04242338295842
    Total Energy =                       -501.0424233829580771
  Basis Set: 6-31G*
  Basis Set:
  Basis Set: 6-31G*
  Basis Set:
  @DF-RHF Final Energy:  -501.04244113622451
    Total Energy =                       -501.0424411362241699
  Basis Set: 6-31G*
  Basis Set:
  Basis Set: 6-31G*
  Basis Set:
  @DF-RHF Final Energy:  -501.04244429451728
    Total Energy =                       -501.0424442945168266
  Basis Set: 6-31G*
  Basis Set:
  Basis Set: 6-31G*
  Basis Set:
  @DF-RHF Final Energy:  -501.04244258011602
    Total Energy =                       -501.0424425801162442
  Basis Set: 6-31G*
  Basis Set:
  Charge       = 0
  Multiplicity = 1
  Basis Set: 6-31G*
  Basis Set:

    Orbital Energies (a.u.)
    -----------------------

    Doubly Occupied:

       1A    -20.602524     2A    -20.544604     3A    -11.373150
       4A    -11.279511     5A    -11.234203     6A    -11.218647
       7A    -11.217352     8A    -11.215793     9A    -11.215680
      10A    -11.214282    11A    -11.208955    12A     -1.466793
      13A     -1.362918    14A     -1.097759    15A     -1.066551
      16A     -1.019546    17A     -0.977717    18A     -0.928455
      19A     -0.861315    20A     -0.798983    21A     -0.790235
      22A     -0.763107    23A     -0.701502    24A     -0.680342
      25A     -0.672135    26A     -0.650722    27A     -0.628729
      28A     -0.605101    29A     -0.594490    30A     -0.580905
      31A     -0.568112    32A     -0.549815    33A     -0.533422
      34A     -0.528085    35A     -0.514541    36A     -0.511922
      37A     -0.496147    38A     -0.477579    39A     -0.469953
      40A     -0.462131    41A     -0.458326    42A     -0.453308
      43A     -0.440597    44A     -0.435427

  @DF-RHF Final Energy:  -501.04244499496156

   => Energetics <=

    Nuclear Repulsion Energy =            609.7900765564846779
    One-Electron Energy =               -1890.7222979335629134
    Two-Electron Energy =                 779.8897763821169065
    DFT Exchange-Correlation Energy =       0.0000000000000000
    Empirical Dispersion Energy =           0.0000000000000000
    PCM Polarization Energy =               0.0000000000000000
    EFP Energy =                            0.0000000000000000
    Total Energy =                       -501.0424449949614427
    Molecular point group: c1
  Basis Set: 6-31G*
  Basis Set:

  -Total Gradient:
     Atom            X                  Y                   Z
    ------   -----------------  -----------------  -----------------
       1        0.000001901523     0.000002433955     0.000022677810
       2       -0.000040265906     0.001114050078    -0.000307390828
       3       -0.000001775592     0.000017062083     0.000000434099
       4        0.000036950712    -0.002003846099     0.000369488161
       5        0.000000494272    -0.000003549946     0.000002595401
       6        0.000002059446    -0.000006217430    -0.000001151068
       7       -0.000000215124    -0.000005753048     0.000002045992
       8       -0.000001117244     0.000000268801    -0.000002063325
       9        0.000000106063     0.000001765102     0.000000262498
      10       -0.000000131927     0.000001713155    -0.000001853231
      11        0.000000453710    -0.000001449315    -0.000000944950
      12       -0.000000505629    -0.000000135922    -0.000000081478
      13       -0.000000268056    -0.000000438952    -0.000000255651
      14       -0.000000032224     0.000000769891     0.000000683987
      15       -0.000000116468    -0.000000244471     0.000000163247
      16        0.000000425530     0.000000112290     0.000000031572
      17        0.000000257326     0.000000827126     0.000000834019
      18       -0.000000178927     0.000000454307     0.000000307378
      19        0.000000362785     0.000000131908     0.000000389565
      20       -0.000000358680    -0.000000933461    -0.000000871897
      21        0.000000492377     0.000000136493     0.000000356591
      22       -0.000000343369     0.000000460562     0.000000212998
      23       -0.000000145962    -0.000000304995    -0.000000326787
      24       -0.000000324326     0.000000319591    -0.000000087105
      25        0.000000367210    -0.000000241290     0.000000198465
      26        0.000044910145     0.002224002999     0.000045951369
      27       -0.000055568286    -0.001339924315    -0.000135581867
      28       -0.000001643054     0.000002547711    -0.000000312774
      29        0.000014209676    -0.000004016810     0.000004287809

  **** Optimization is complete! (in 8 steps) ****
    Final optimized geometry and variables:
    Molecular point group: c1

    Geometry (in Angstrom), charge = 0, multiplicity = 1:

    O            2.914607364137     0.147007831541    -1.786967793910
    C            2.579926816237     0.434722056257    -0.683487992977
    C            1.152664245961     0.547891619556    -0.203890597657
    O            3.429651574175     0.700400027821     0.302167451481
    C            0.126971640316     0.238621581899    -1.292109486566
    H            1.051271839103    -0.113400113483     0.650253698131
    H            1.020863921568     1.554995316013     0.183327067607
    C           -1.324901868657     0.450053313315    -0.849491106959
    H            0.262522268175    -0.783463736561    -1.632775908208
    H            0.332109568114     0.869641265132    -2.150089427202
    C           -1.814583790835    -0.510721604432     0.237833621690
    H           -1.962884784034     0.339833750582    -1.723318130124
    H           -1.454481539267     1.476479052677    -0.509358116520
    C           -3.298304316719    -0.331705381028     0.565773214743
    H           -1.638931421692    -1.535757705749    -0.085055835553
    H           -1.234906141255    -0.373514515966     1.147834142071
    C           -3.797397829078    -1.282871061649     1.654949925883
    H           -3.887002453820    -0.480901836359    -0.337779563666
    H           -3.476567634811     0.696046269142     0.878259957511
    C           -5.280820395062    -1.100090779609     1.973956592837
    H           -3.619274329923    -2.310315544315     1.344678605655
    H           -3.212928248958    -1.132300955988     2.560213884837
    H           -5.604532261162    -1.787751765846     2.749167480493
    H           -5.895441482080    -1.278388087838     1.096092774101
    H           -5.485964448948    -0.091014427325     2.320305218538
    C            4.821146972024     0.672655415924     0.034469588012
    H            5.012239881361     0.772801235781    -1.020982806146
    H            5.229339767055    -0.265703613962     0.386212352079
    H            5.263302783070     1.488950438473     0.585809128836

  Mulliken Charges: (a.u.)
   Center  Symbol    Alpha    Beta     Spin     Total
       1     O     4.28556  4.28556  0.00000 -0.57112
       2     C     2.60450  2.60450  0.00000  0.79100
       3     C     3.21008  3.21008  0.00000 -0.42016
       4     O     4.30918  4.30918  0.00000 -0.61837
       5     C     3.15375  3.15375  0.00000 -0.30750
       6     H     0.39877  0.39877  0.00000  0.20245
       7     H     0.40147  0.40147  0.00000  0.19706
       8     C     3.15660  3.15660  0.00000 -0.31319
       9     H     0.41311  0.41311  0.00000  0.17378
      10     H     0.40887  0.40887  0.00000  0.18226
      11     C     3.15504  3.15504  0.00000 -0.31009
      12     H     0.41831  0.41831  0.00000  0.16338
      13     H     0.42394  0.42394  0.00000  0.15213
      14     C     3.15028  3.15028  0.00000 -0.30057
      15     H     0.42262  0.42262  0.00000  0.15476
      16     H     0.42360  0.42360  0.00000  0.15280
      17     C     3.15145  3.15145  0.00000 -0.30290
      18     H     0.42334  0.42334  0.00000  0.15331
      19     H     0.42400  0.42400  0.00000  0.15199
      20     C     3.23934  3.23934  0.00000 -0.47869
      21     H     0.42281  0.42281  0.00000  0.15439
      22     H     0.42344  0.42344  0.00000  0.15312
      23     H     0.41925  0.41925  0.00000  0.16150
      24     H     0.42156  0.42156  0.00000  0.15689
      25     H     0.42185  0.42185  0.00000  0.15631
      26     C     3.09706  3.09706  0.00000 -0.19413
      27     H     0.39627  0.39627  0.00000  0.20746
      28     H     0.41345  0.41345  0.00000  0.17310
      29     H     0.41050  0.41050  0.00000  0.17901

   Total alpha = 44.00000, Total beta = 44.00000, Total charge =  0.00000
