  ==> Input File <==

--------------------------------------------------------------------------
set {
	reference rhf
	basis 6-31G*
}

set_num_threads( 4 )
memory 2 gb

molecule MOL {
0 1

O	 -0.988096	 -1.408613	 0.050699
C	 -0.676749	 -0.249230	 -0.009274
C	 -1.746085	 0.827156	 -0.009539
N	 0.623947	 0.147590	 -0.102813
H	 -1.701500	 1.431508	 -0.908902
H	 -2.703425	 0.330732	 0.036390
H	 -1.647323	 1.487769	 0.845106
C	 1.290645	 0.629594	 1.090947
C	 1.290091	 0.452513	 -1.350018
H	 2.318508	 0.283909	 1.095102
H	 0.783423	 0.252508	 1.961850
H	 1.294694	 1.716753	 1.129536
H	 2.341550	 0.207051	 -1.259344
H	 0.889199	 -0.127042	 -2.166312
H	 1.212872	 1.508038	 -1.604413

	symmetry c1
}
set optking {
	frozen_dihedral = ("
		8 4 2 3
	")
}

ee = optimize('scf')
oeprop('DIPOLE', 'QUADRUPOLE', 'MULLIKEN_CHARGES')
f=open( 'psi4out.xyz', 'w' )
f.write( "15  " )
f.write( str(ee) + "\n" )
f.write( MOL.save_string_xyz() )
f.close()
--------------------------------------------------------------------------

    Molecular point group: c1
  Charge       = 0
  Multiplicity = 1
  Basis Set: 6-31G*
  Basis Set:
  @DF-RHF Final Energy:  -285.99259610423974
    Total Energy =                       -285.9925961042397944
    Molecular point group: c1
  Basis Set: 6-31G*
  Basis Set:
  Basis Set: 6-31G*
  Basis Set:
  @DF-RHF Final Energy:  -285.99694376720794
    Total Energy =                       -285.9969437672079948
  Basis Set: 6-31G*
  Basis Set:
  Basis Set: 6-31G*
  Basis Set:
  @DF-RHF Final Energy:  -285.99905912822470
    Total Energy =                       -285.9990591282245305
  Basis Set: 6-31G*
  Basis Set:
  Basis Set: 6-31G*
  Basis Set:
  @DF-RHF Final Energy:  -286.00108784176507
    Total Energy =                       -286.0010878417650133
  Basis Set: 6-31G*
  Basis Set:
  @DF-RHF Final Energy:  -286.00245666134651
    Total Energy =                       -286.0024566613464003
  @DF-RHF Final Energy:  -286.00177072234476
    Total Energy =                       -286.0017707223444745
  @DF-RHF Final Energy:  -286.00303147984721
    Total Energy =                       -286.0030314798472659
  @DF-RHF Final Energy:  -286.00312702337214
    Total Energy =                       -286.0031270233722580
  @DF-RHF Final Energy:  -286.00313485944764
    Total Energy =                       -286.0031348594476412
  Basis Set: 6-31G*
  Basis Set:
  @DF-RHF Final Energy:  -286.00314131952871
    Total Energy =                       -286.0031413195289360
  Basis Set: 6-31G*
  Basis Set:
  Basis Set: 6-31G*
  Basis Set:
  @DF-RHF Final Energy:  -286.00314364086159
    Total Energy =                       -286.0031436408617083
  Basis Set: 6-31G*
  Basis Set:
  Basis Set: 6-31G*
  Basis Set:
  @DF-RHF Final Energy:  -286.00314283915839
    Total Energy =                       -286.0031428391585564
  Basis Set: 6-31G*
  Basis Set:
  Charge       = 0
  Multiplicity = 1
  Basis Set: 6-31G*
  Basis Set:

    Orbital Energies (a.u.)
    -----------------------

    Doubly Occupied:

       1A    -20.552171     2A    -15.563758     3A    -11.350329
       4A    -11.257658     5A    -11.257346     6A    -11.233493
       7A     -1.409389     8A     -1.237480     9A     -1.009190
      10A     -0.971150    11A     -0.905293    12A     -0.741838
      13A     -0.679527    14A     -0.660616    15A     -0.642823
      16A     -0.609646    17A     -0.591123    18A     -0.576013
      19A     -0.555142    20A     -0.547738    21A     -0.529459
      22A     -0.495286    23A     -0.424375    24A     -0.372987

  @DF-RHF Final Energy:  -286.00314246045480

   => Energetics <=

    Nuclear Repulsion Energy =            252.1929981193653418
    One-Electron Energy =                -888.0446218467964172
    Two-Electron Energy =                 349.8484812669762505
    DFT Exchange-Correlation Energy =       0.0000000000000000
    Empirical Dispersion Energy =           0.0000000000000000
    PCM Polarization Energy =               0.0000000000000000
    EFP Energy =                            0.0000000000000000
    Total Energy =                       -286.0031424604547965
    Molecular point group: c1
  Basis Set: 6-31G*
  Basis Set:

  -Total Gradient:
     Atom            X                  Y                   Z
    ------   -----------------  -----------------  -----------------
       1       -0.000021830584     0.000041565866     0.000140628545
       2       -0.000573514336    -0.000201671232    -0.007804038112
       3        0.000185835467     0.001147006810     0.004551871817
       4        0.001345148644    -0.004997789587     0.004936468811
       5        0.000026260651     0.000015266971    -0.000000337928
       6        0.000009266738     0.000008219145     0.000022423561
       7       -0.000028363023    -0.000006446677     0.000029262189
       8       -0.000858705974     0.004088039286    -0.001779485025
       9       -0.000078744818    -0.000085088699    -0.000083885559
      10        0.000003964741    -0.000001023738     0.000001604257
      11       -0.000008112500    -0.000008936508    -0.000016475267
      12       -0.000000012810     0.000000581378     0.000006489481
      13        0.000004966662     0.000007007274    -0.000013299795
      14       -0.000004365820    -0.000002764687     0.000011238210
      15       -0.000001793036    -0.000003965600    -0.000002465185

  **** Optimization is complete! (in 13 steps) ****
    Final optimized geometry and variables:
    Molecular point group: c1

    Geometry (in Angstrom), charge = 0, multiplicity = 1:

    O           -1.066715617607    -1.410295811570     0.407370972300
    C           -0.643872929887    -0.363921551490     0.042309486066
    C           -1.570715296122     0.809072234791    -0.219028228242
    N            0.763750147005    -0.150909738811    -0.067963156959
    H           -1.581421223688     1.076235048411    -1.270615103014
    H           -2.571900333535     0.538666797977     0.083239000831
    H           -1.244814927063     1.683698981952     0.333791234249
    C            1.318627653788     0.481709842818     1.118669434201
    C            1.178861810168     0.520104882818    -1.287510584468
    H            2.399496862577     0.433057848172     1.067524839866
    H            1.001321256792    -0.057696023891     2.001721354908
    H            1.031792023999     1.529877945112     1.222714756742
    H            2.254877752685     0.434848857055    -1.378271689463
    H            0.738312095341     0.031470085525    -2.148331194597
    H            0.921618806146     1.580281950257    -1.318219804346

  Mulliken Charges: (a.u.)
   Center  Symbol    Alpha    Beta     Spin     Total
       1     O     4.24622  4.24622  0.00000 -0.49245
       2     C     2.66285  2.66285  0.00000  0.67429
       3     C     3.29349  3.29349  0.00000 -0.58698
       4     N     3.79871  3.79871  0.00000 -0.59742
       5     H     0.40441  0.40441  0.00000  0.19118
       6     H     0.39356  0.39356  0.00000  0.21287
       7     H     0.40695  0.40695  0.00000  0.18611
       8     C     3.15522  3.15522  0.00000 -0.31044
       9     C     3.15513  3.15513  0.00000 -0.31026
      10     H     0.40755  0.40755  0.00000  0.18491
      11     H     0.40130  0.40130  0.00000  0.19740
      12     H     0.43002  0.43002  0.00000  0.13995
      13     H     0.40686  0.40686  0.00000  0.18628
      14     H     0.40916  0.40916  0.00000  0.18168
      15     H     0.42857  0.42857  0.00000  0.14287

   Total alpha = 24.00000, Total beta = 24.00000, Total charge =  0.00000
