                              Psi4 1.0.54 Driver

  ==> Input File <==

--------------------------------------------------------------------------
set {
	reference rhf
	basis cc-pvtz
}

set_num_threads( 4 )
memory 2 gb

molecule MOL {
0 1

H	 2.016967	 -1.292074	 -0.842386
O	 2.012307	 -0.863440	 0.000222
C	 1.050374	 0.054877	 0.000135
C	 -0.318151	 -0.570512	 0.000144
O	 1.286319	 1.213453	 -0.000040
C	 -1.454884	 0.441630	 -0.000560
H	 -0.371613	 -1.223646	 -0.864985
H	 -0.371920	 -1.222758	 0.865929
C	 -2.822577	 -0.232186	 0.000063
H	 -1.359760	 1.084704	 -0.867077
H	 -1.359641	 1.085996	 0.864983
H	 -2.954352	 -0.858985	 -0.875745
H	 -3.615886	 0.505352	 0.000019
H	 -2.953878	 -0.858359	 0.876394

	symmetry c1
}
set optking {
	frozen_dihedral = ("
		1 2 3 5
	")
}

ee,wfn = optimize('scf', return_wfn=True)
oeprop( wfn, 'DIPOLE', 'QUADRUPOLE', 'MULLIKEN_CHARGES')
f=open( 'psi4out.xyz', 'w' )
f.write( "14  " )
f.write( str(ee) + "\n" )
f.write( MOL.save_string_xyz() )
f.close()
--------------------------------------------------------------------------

    Molecular point group: c1
  Charge       = 0
  Multiplicity = 1
  Basis Set: CC-PVTZ
  Basis Set:
  @DF-RHF Final Energy:  -305.98020396718834
    Total Energy =                       -305.9802039671884017
    Molecular point group: c1
  Basis Set: CC-PVTZ
  Basis Set:
  Basis Set: CC-PVTZ
  Basis Set:
  @DF-RHF Final Energy:  -305.98156902581491
    Total Energy =                       -305.9815690258147924
  Basis Set: CC-PVTZ
  Basis Set:
  Basis Set: CC-PVTZ
  Basis Set:
  @DF-RHF Final Energy:  -305.98079146214940
    Total Energy =                       -305.9807914621495684
  Basis Set: CC-PVTZ
  Basis Set:
  Basis Set: CC-PVTZ
  Basis Set:
  @DF-RHF Final Energy:  -305.98178431940676
    Total Energy =                       -305.9817843194068701
  Basis Set: CC-PVTZ
  Basis Set:
  Basis Set: CC-PVTZ
  Basis Set:
  @DF-RHF Final Energy:  -305.98180566060205
    Total Energy =                       -305.9818056606020491
  Basis Set: CC-PVTZ
  Basis Set:
  Charge       = 0
  Multiplicity = 1
  Basis Set: CC-PVTZ
  Basis Set:

    Orbital Energies (a.u.)
    -----------------------

    Doubly Occupied:

       1A    -20.588419     2A    -20.549549     3A    -11.374408
       4A    -11.244548     5A    -11.226771     6A    -11.218331
       7A     -1.464276     8A     -1.372019     9A     -1.085920
      10A     -0.978021    11A     -0.853029    12A     -0.805457
      13A     -0.716973    14A     -0.676148    15A     -0.665708
      16A     -0.632338    17A     -0.581449    18A     -0.564022
      19A     -0.546942    20A     -0.509584    21A     -0.498952
      22A     -0.486299    23A     -0.485423    24A     -0.447347

  @DF-RHF Final Energy:  -305.98180627541615

   => Energetics <=

    Nuclear Repulsion Energy =            239.7366326771271190
    One-Electron Energy =                -892.2930149498613446
    Two-Electron Energy =                 346.5745759973181066
    DFT Exchange-Correlation Energy =       0.0000000000000000
    Empirical Dispersion Energy =           0.0000000000000000
    PCM Polarization Energy =               0.0000000000000000
    EFP Energy =                            0.0000000000000000
    Total Energy =                       -305.9818062754161474
    Molecular point group: c1
  Basis Set: CC-PVTZ
  Basis Set:

  -Total Gradient:
     Atom            X                  Y                   Z
    ------   -----------------  -----------------  -----------------
       1        0.002347841970     0.002584573631    -0.000999986955
       2       -0.002986054129    -0.003161668780    -0.000136130363
       3        0.000509405070     0.000387481766     0.004289119024
       4        0.000073855619     0.000022830992     0.000050564055
       5        0.000095902662     0.000179815667    -0.003165902436
       6        0.000001485418     0.000010218399    -0.000012659084
       7       -0.000003499375    -0.000001730885    -0.000013666217
       8       -0.000014650162    -0.000010993069    -0.000020165474
       9       -0.000015792627     0.000004971494     0.000000748167
      10        0.000001438097    -0.000010941012     0.000012931129
      11        0.000000029287    -0.000004422813    -0.000003873777
      12        0.000000666612     0.000001456958     0.000001186935
      13       -0.000011593377    -0.000003873124    -0.000000516047
      14        0.000000964939     0.000002280778    -0.000001648957

  **** Optimization is complete! (in 6 steps) ****
    Final optimized geometry and variables:
    Molecular point group: c1

    Geometry (in Angstrom), charge = 0, multiplicity = 1:

    H            2.147214130006    -1.288238114310    -0.809783822963
    O            2.057565347118    -0.864619139152     0.027336650292
    C            1.056354496206     0.051813825726     0.027209558247
    C           -0.323582870892    -0.554123653238    -0.011644671761
    O            1.288423888292     1.200634932712     0.084174599459
    C           -1.452967532529     0.465976687881    -0.021100210803
    H           -0.376189958944    -1.199091802648    -0.885843810090
    H           -0.398827676891    -1.218223655431     0.843795642915
    C           -2.826597492750    -0.194998010954    -0.053965280387
    H           -1.336552120145     1.120128179309    -0.876967661561
    H           -1.366591644774     1.097376150978     0.854533580199
    H           -2.948908382092    -0.809403931770    -0.940059322474
    H           -3.613001648409     0.549788099722    -0.058823088454
    H           -2.979358599429    -0.830729031080     0.811847533937

  Mulliken Charges: (a.u.)
   Center  Symbol    Alpha    Beta     Spin     Total
       1     H     0.38968  0.38968  0.00000  0.22064
       2     O     4.16890  4.16890  0.00000 -0.33780
       3     C     2.80197  2.80197  0.00000  0.39605
       4     C     3.11430  3.11430  0.00000 -0.22861
       5     O     4.16059  4.16059  0.00000 -0.32119
       6     C     3.08109  3.08109  0.00000 -0.16219
       7     H     0.45078  0.45078  0.00000  0.09843
       8     H     0.43643  0.43643  0.00000  0.12714
       9     C     3.15019  3.15019  0.00000 -0.30038
      10     H     0.44673  0.44673  0.00000  0.10655
      11     H     0.44365  0.44365  0.00000  0.11269
      12     H     0.45635  0.45635  0.00000  0.08730
      13     H     0.44448  0.44448  0.00000  0.11105
      14     H     0.45484  0.45484  0.00000  0.09032

   Total alpha = 24.00000, Total beta = 24.00000, Total charge = -0.00000

*** Psi4 exiting successfully. Buy a developer a beer!
