  ==> Input File <==

--------------------------------------------------------------------------
set {
	reference rhf
	basis cc-pvtz
}

set_num_threads( 4 )
memory 2 gb

molecule MOL {
0 1

H	 -3.144994	 -1.202467	 -0.018751
O	 -2.321472	 -0.864941	 -0.318626
C	 -2.021813	 0.336996	 0.342658
C	 -0.669613	 0.837286	 -0.127252
H	 -2.780861	 1.084746	 0.127159
H	 -2.006390	 0.184138	 1.420053
C	 0.490865	 -0.082543	 0.241244
H	 -0.708709	 0.967192	 -1.204587
H	 -0.507562	 1.822272	 0.303070
C	 1.418711	 -0.373805	 -0.934713
H	 0.097140	 -1.013806	 0.632122
H	 1.065162	 0.371681	 1.046220
C	 2.583136	 -1.286788	 -0.565445
H	 0.845993	 -0.829198	 -1.738028
H	 1.806561	 0.561503	 -1.330264
H	 2.227527	 -2.244105	 -0.199382
H	 3.221612	 -1.476019	 -1.420925
H	 3.196070	 -0.844165	 0.212913

	symmetry c1
}
set optking {
	frozen_dihedral = ("
		10 7 4 8
	")
}

ee = optimize('scf')
oeprop('DIPOLE', 'QUADRUPOLE', 'MULLIKEN_CHARGES')
f=open( 'psi4out.xyz', 'w' )
f.write( "18  " )
f.write( str(ee) + "\n" )
f.write( MOL.save_string_xyz() )
f.close()
--------------------------------------------------------------------------

    Molecular point group: c1
  Charge       = 0
  Multiplicity = 1
  Basis Set: CC-PVTZ
  Basis Set:
  @DF-RHF Final Energy:  -271.28238569684765
    Total Energy =                       -271.2823856968476548
    Molecular point group: c1
  Basis Set: CC-PVTZ
  Basis Set:
  Basis Set: CC-PVTZ
  Basis Set:
  @DF-RHF Final Energy:  -271.28262177765384
    Total Energy =                       -271.2826217776540147
  Basis Set: CC-PVTZ
  Basis Set:
  Basis Set: CC-PVTZ
  Basis Set:
  @DF-RHF Final Energy:  -271.28267834928130
    Total Energy =                       -271.2826783492811273
  Basis Set: CC-PVTZ
  Basis Set:
  Charge       = 0
  Multiplicity = 1
  Basis Set: CC-PVTZ
  Basis Set:

    Orbital Energies (a.u.)
    -----------------------

    Doubly Occupied:

       1A    -20.546880     2A    -11.266335     3A    -11.210083
       4A    -11.206876     5A    -11.205083     6A    -11.201076
       7A     -1.364776     8A     -1.073789     9A     -1.009071
      10A     -0.913583    11A     -0.819052    12A     -0.784062
      13A     -0.708821    14A     -0.641166    15A     -0.625115
      16A     -0.583496    17A     -0.569975    18A     -0.559913
      19A     -0.522920    20A     -0.499747    21A     -0.490367
      22A     -0.467600    23A     -0.454578    24A     -0.448202
      25A     -0.431897

  @DF-RHF Final Energy:  -271.28267931083116

   => Energetics <=

    Nuclear Repulsion Energy =            250.9967985769858956
    One-Electron Energy =                -865.3500307005560899
    Two-Electron Energy =                 343.0705528127390949
    DFT Exchange-Correlation Energy =       0.0000000000000000
    Empirical Dispersion Energy =           0.0000000000000000
    PCM Polarization Energy =               0.0000000000000000
    EFP Energy =                            0.0000000000000000
    Total Energy =                       -271.2826793108311563
    Molecular point group: c1
  Basis Set: CC-PVTZ
  Basis Set:

  -Total Gradient:
     Atom            X                  Y                   Z
    ------   -----------------  -----------------  -----------------
       1       -0.000000640452     0.000027596302     0.000006778548
       2        0.000131072975    -0.000032180664     0.000062869235
       3       -0.000116220357     0.000043583839    -0.000080078874
       4       -0.002056443346    -0.002699100544    -0.000332192528
       5        0.000005595853     0.000039994952     0.000021454826
       6        0.000023241617    -0.000034162118    -0.000028207343
       7        0.001643132319     0.002263067824     0.000581274020
       8        0.001369599173     0.001762792186     0.000215512100
       9       -0.000003068674    -0.000012437633     0.000001242882
      10       -0.000937693899    -0.001361183225    -0.000455369460
      11       -0.000050587692    -0.000032926300    -0.000007660831
      12       -0.000041950396     0.000000047474     0.000003147350
      13        0.000024967784     0.000040376288     0.000019389411
      14        0.000004726753    -0.000009564461     0.000010606975
      15        0.000000299799    -0.000000115336    -0.000017658362
      16       -0.000009912752     0.000009014327    -0.000011710236
      17        0.000003984656     0.000011402678     0.000001634708
      18        0.000009896639    -0.000016205589     0.000008967578

  **** Optimization is complete! (in 4 steps) ****
    Final optimized geometry and variables:
    Molecular point group: c1

    Geometry (in Angstrom), charge = 0, multiplicity = 1:

    H           -3.003253974085    -0.942397543348     0.230912336834
    O           -2.194751534535    -0.589908347926    -0.091579905132
    C           -1.890860948035     0.610429453788     0.570560032002
    C           -0.538805880997     1.102262660973     0.094936877632
    H           -2.648625545410     1.360752043159     0.359672473885
    H           -1.870699796717     0.455084856458     1.647549440854
    C            0.631120740924     0.169876139915     0.458867917721
    H           -0.582201099628     1.246638917165    -0.979275063208
    H           -0.375882257278     2.087906197124     0.520332301874
    C            1.567293778906    -0.117782321998    -0.712181458320
    H            0.236875499300    -0.774802036069     0.816631855984
    H            1.199458763117     0.596716618629     1.279810568574
    C            2.736062782011    -1.021218633320    -0.335584584016
    H            0.994550412557    -0.578404588202    -1.511189563904
    H            1.950043946938     0.819028006714    -1.109925458637
    H            2.385120893629    -1.978675596350     0.034991858425
    H            3.376624359613    -1.211988942386    -1.189167035920
    H            3.345939158118    -0.571112813634     0.441047226966

  Mulliken Charges: (a.u.)
   Center  Symbol    Alpha    Beta     Spin     Total
       1     H     0.39538  0.39538  0.00000  0.20925
       2     O     4.19951  4.19951  0.00000 -0.39903
       3     C     2.97525  2.97525  0.00000  0.04949
       4     C     3.09553  3.09553  0.00000 -0.19106
       5     H     0.46386  0.46386  0.00000  0.07228
       6     H     0.47235  0.47235  0.00000  0.05529
       7     C     3.08712  3.08712  0.00000 -0.17423
       8     H     0.45244  0.45244  0.00000  0.09513
       9     H     0.45062  0.45062  0.00000  0.09876
      10     C     3.08301  3.08301  0.00000 -0.16601
      11     H     0.45264  0.45264  0.00000  0.09472
      12     H     0.45394  0.45394  0.00000  0.09212
      13     C     3.15084  3.15084  0.00000 -0.30168
      14     H     0.45041  0.45041  0.00000  0.09919
      15     H     0.45626  0.45626  0.00000  0.08747
      16     H     0.45457  0.45457  0.00000  0.09087
      17     H     0.44942  0.44942  0.00000  0.10115
      18     H     0.45685  0.45685  0.00000  0.08629

   Total alpha = 25.00000, Total beta = 25.00000, Total charge = -0.00000
