  ==> Input File <==

--------------------------------------------------------------------------
set {
	reference rhf
	basis 6-31G*
}

set_num_threads( 4 )
memory 2 gb

molecule MOL {
0 1

H	 -2.172150	 0.880146	 0.502514
C	 -2.018062	 -0.000025	 -0.114509
O	 -0.774054	 0.001095	 -0.743181
H	 -2.760490	 0.003458	 -0.901350
H	 -2.173624	 -0.884374	 0.496163
C	 -0.620631	 0.649419	 -1.993248
C	 0.852366	 0.433720	 -2.333492
C	 -1.504405	 0.001472	 -3.063901
C	 -0.916395	 2.148256	 -1.878673
H	 1.071214	 -0.626680	 -2.389065
H	 1.480660	 0.867110	 -1.563561
H	 1.104761	 0.890410	 -3.285013
H	 -1.339779	 -1.070600	 -3.088190
H	 -1.266760	 0.405514	 -4.042613
H	 -2.559467	 0.180695	 -2.887045
H	 -0.338450	 2.584379	 -1.070695
H	 -0.650754	 2.655350	 -2.800531
H	 -1.966636	 2.345024	 -1.691835

	symmetry c1
}
set optking {
	frozen_dihedral = ("
		6 3 2 5
	")
}

ee = optimize('scf')
oeprop('DIPOLE', 'QUADRUPOLE', 'MULLIKEN_CHARGES')
f=open( 'psi4out.xyz', 'w' )
f.write( "18  " )
f.write( str(ee) + "\n" )
f.write( MOL.save_string_xyz() )
f.close()
--------------------------------------------------------------------------

    Molecular point group: c1
  Charge       = 0
  Multiplicity = 1
  Basis Set: 6-31G*
  Basis Set:
  @DF-RHF Final Energy:  -271.17155478943863
    Total Energy =                       -271.1715547894385736
    Molecular point group: c1
  Basis Set: 6-31G*
  Basis Set:
  Basis Set: 6-31G*
  Basis Set:
  @DF-RHF Final Energy:  -271.17338993839337
    Total Energy =                       -271.1733899383932567
  Basis Set: 6-31G*
  Basis Set:
  Basis Set: 6-31G*
  Basis Set:
  @DF-RHF Final Energy:  -271.17447927518327
    Total Energy =                       -271.1744792751832733
  Basis Set: 6-31G*
  Basis Set:
  Basis Set: 6-31G*
  Basis Set:
  @DF-RHF Final Energy:  -271.17432634355384
    Total Energy =                       -271.1743263435537301
  Basis Set: 6-31G*
  Basis Set:
  @DF-RHF Final Energy:  -271.17449266993953
    Total Energy =                       -271.1744926699394114
  Basis Set: 6-31G*
  Basis Set:
  @DF-RHF Final Energy:  -271.17452964689124
    Total Energy =                       -271.1745296468911874
  Basis Set: 6-31G*
  Basis Set:
  Basis Set: 6-31G*
  Basis Set:
  @DF-RHF Final Energy:  -271.17452620722565
    Total Energy =                       -271.1745262072257106
  Basis Set: 6-31G*
  Basis Set:
  Basis Set: 6-31G*
  Basis Set:
  @DF-RHF Final Energy:  -271.17453310315398
    Total Energy =                       -271.1745331031540900
  Basis Set: 6-31G*
  Basis Set:
  Charge       = 0
  Multiplicity = 1
  Basis Set: 6-31G*
  Basis Set:

    Orbital Energies (a.u.)
    -----------------------

    Doubly Occupied:

       1A    -20.545589     2A    -11.281591     3A    -11.260944
       4A    -11.209531     5A    -11.207869     6A    -11.203272
       7A     -1.369031     8A     -1.072683     9A     -0.946070
      10A     -0.939629    11A     -0.912613    12A     -0.752558
      13A     -0.655001    14A     -0.644366    15A     -0.638022
      16A     -0.591300    17A     -0.571952    18A     -0.552223
      19A     -0.536790    20A     -0.523951    21A     -0.514907
      22A     -0.489228    23A     -0.486923    24A     -0.438340
      25A     -0.402626

  @DF-RHF Final Energy:  -271.17453265993959

   => Energetics <=

    Nuclear Repulsion Energy =            272.2977255355447141
    One-Electron Energy =                -907.4504955476589885
    Two-Electron Energy =                 363.9782373521748013
    DFT Exchange-Correlation Energy =       0.0000000000000000
    Empirical Dispersion Energy =           0.0000000000000000
    PCM Polarization Energy =               0.0000000000000000
    EFP Energy =                            0.0000000000000000
    Total Energy =                       -271.1745326599394730
    Molecular point group: c1
  Basis Set: 6-31G*
  Basis Set:

  -Total Gradient:
     Atom            X                  Y                   Z
    ------   -----------------  -----------------  -----------------
       1       -0.000004940056     0.000000447961     0.000010640430
       2        0.000832388996     0.000300438389     0.001432872548
       3        0.000667765733     0.001778330074     0.000861989862
       4       -0.000018274563    -0.000001575152     0.000041362205
       5       -0.000924393827    -0.000784929976    -0.001547646939
       6       -0.000564084717    -0.001321029769    -0.000797743242
       7       -0.000009114130    -0.000007337984    -0.000013457540
       8        0.000027450798    -0.000000724462     0.000009704839
       9       -0.000027863939     0.000019682984     0.000000046665
      10        0.000019520919    -0.000000051110     0.000015119447
      11       -0.000015853172     0.000020081829    -0.000001472508
      12       -0.000004484508    -0.000021045809    -0.000010405438
      13       -0.000016576251    -0.000005300976     0.000002903331
      14        0.000018587033    -0.000004362826    -0.000009172125
      15        0.000013055534     0.000019515596    -0.000001204472
      16        0.000031595400    -0.000008328807    -0.000016978750
      17       -0.000014094175     0.000000014773     0.000002233747
      18       -0.000010685077     0.000016175267     0.000021207938

  **** Optimization is complete! (in 9 steps) ****
    Final optimized geometry and variables:
    Molecular point group: c1

    Geometry (in Angstrom), charge = 0, multiplicity = 1:

    H           -1.177052844117     0.362704239690     2.271646439960
    C           -1.174449891245    -0.471808748401     1.576301165936
    O            0.045272070734    -0.572482208596     0.905211959991
    H           -2.018005378780    -0.359356466910     0.904138758138
    H           -1.317076151600    -1.391858381907     2.128839750154
    C            0.226189052781     0.103351769559    -0.326275138705
    C            1.708234268580    -0.091831709561    -0.637447679472
    C           -0.624522487364    -0.540167400934    -1.426036934659
    C           -0.088811400754     1.596037384446    -0.189606013621
    H            1.941233145105    -1.149079118670    -0.694761314739
    H            2.315893056417     0.344748623536     0.147057483799
    H            1.973589872591     0.373009943008    -1.581569130407
    H           -0.424469082407    -1.604978530182    -1.475398420349
    H           -0.390193908479    -0.102308092285    -2.391101532492
    H           -1.686949779613    -0.402113508009    -1.257489152265
    H            0.492274939102     2.030865658657     0.616923857220
    H            0.156620655426     2.120865373016    -1.107126671163
    H           -1.139694175781     1.771723902514     0.015787588046

  Mulliken Charges: (a.u.)
   Center  Symbol    Alpha    Beta     Spin     Total
       1     H     0.42606  0.42606  0.00000  0.14787
       2     C     3.07806  3.07806  0.00000 -0.15612
       3     O     4.32015  4.32015  0.00000 -0.64030
       4     H     0.43082  0.43082  0.00000  0.13836
       5     H     0.41482  0.41482  0.00000  0.17036
       6     C     2.84400  2.84400  0.00000  0.31199
       7     C     3.23306  3.23306  0.00000 -0.46611
       8     C     3.24361  3.24361  0.00000 -0.48723
       9     C     3.24788  3.24788  0.00000 -0.49576
      10     H     0.41369  0.41369  0.00000  0.17262
      11     H     0.41463  0.41463  0.00000  0.17075
      12     H     0.42509  0.42509  0.00000  0.14983
      13     H     0.41328  0.41328  0.00000  0.17343
      14     H     0.42102  0.42102  0.00000  0.15797
      15     H     0.42081  0.42081  0.00000  0.15837
      16     H     0.41371  0.41371  0.00000  0.17258
      17     H     0.41903  0.41903  0.00000  0.16194
      18     H     0.42027  0.42027  0.00000  0.15945

   Total alpha = 25.00000, Total beta = 25.00000, Total charge = -0.00000
