                              Psi4 1.0.54 Driver

  ==> Input File <==

--------------------------------------------------------------------------
set {
	reference rhf
	basis cc-pvtz
}

set_num_threads( 4 )
memory 2 gb

molecule MOL {
0 1

H	 -4.340537	 -0.784487	 0.000000
O	 -3.958786	 0.074640	 0.000000
C	 -2.613554	 0.009900	 0.000000
C	 -1.922322	 1.041164	 -0.613896
C	 -1.918397	 -1.032683	 0.581947
H	 -2.471813	 1.844900	 -1.062147
C	 -0.545515	 1.025465	 -0.643054
H	 -2.447657	 -1.836324	 1.060081
C	 -0.535788	 -1.046905	 0.551777
H	 -0.012610	 1.824103	 -1.118404
C	 0.145034	 -0.019643	 -0.059523
H	 -0.000946	 -1.857372	 1.004315
Br	 2.042861	 -0.036588	 -0.102421

	symmetry c1
}
set optking {
	frozen_dihedral = ("
		4 3 2 1
	")
}

ee,wfn = optimize('scf', return_wfn=True)
oeprop( wfn, 'DIPOLE', 'QUADRUPOLE', 'MULLIKEN_CHARGES')
f=open( 'psi4out.xyz', 'w' )
f.write( "13  " )
f.write( str(ee) + "\n" )
f.write( MOL.save_string_xyz() )
f.close()
--------------------------------------------------------------------------

    Molecular point group: c1
  Charge       = 0
  Multiplicity = 1
  Basis Set: CC-PVTZ
  Basis Set:
  @DF-RHF Final Energy: -2877.54579068528392
    Total Energy =                      -2877.5457906852834640
    Molecular point group: c1
  Basis Set: CC-PVTZ
  Basis Set:
  Basis Set: CC-PVTZ
  Basis Set:
  @DF-RHF Final Energy: -2877.54583822804580
    Total Energy =                      -2877.5458382280421574
  Basis Set: CC-PVTZ
  Basis Set:
  Basis Set: CC-PVTZ
  Basis Set:
  @DF-RHF Final Energy: -2877.54584656049474
    Total Energy =                      -2877.5458465604974663
  Basis Set: CC-PVTZ
  Basis Set:
  Charge       = 0
  Multiplicity = 1
  Basis Set: CC-PVTZ
  Basis Set:

    Orbital Energies (a.u.)
    -----------------------

    Doubly Occupied:

       1A   -490.019051     2A    -65.159375     3A    -58.514601
       4A    -58.513233     5A    -58.513227     6A    -20.593115
       7A    -11.309787     8A    -11.289263     9A    -11.253707
      10A    -11.252129    11A    -11.242886    12A    -11.238198
      13A     -9.833173    14A     -7.444793    15A     -7.438035
      16A     -7.437975    17A     -3.188483    18A     -3.184929
      19A     -3.184823    20A     -3.176173    21A     -3.176169
      22A     -1.423758    23A     -1.180138    24A     -1.067006
      25A     -1.042130    26A     -0.970544    27A     -0.867843
      28A     -0.827776    29A     -0.757261    30A     -0.687670
      31A     -0.654775    32A     -0.636213    33A     -0.610296
      34A     -0.605624    35A     -0.570133    36A     -0.525700
      37A     -0.507997    38A     -0.501492    39A     -0.429148
      40A     -0.414135    41A     -0.360064    42A     -0.320129

  @DF-RHF Final Energy: -2877.54584737417736

   => Energetics <=

    Nuclear Repulsion Energy =            525.4285248484292197
    One-Electron Energy =               -5042.1028292204591708
    Two-Electron Energy =                1639.1284569978524814
    DFT Exchange-Correlation Energy =       0.0000000000000000
    Empirical Dispersion Energy =           0.0000000000000000
    PCM Polarization Energy =               0.0000000000000000
    EFP Energy =                            0.0000000000000000
    Total Energy =                      -2877.5458473741773560
    Molecular point group: c1
  Basis Set: CC-PVTZ
  Basis Set:

  -Total Gradient:
     Atom            X                  Y                   Z
    ------   -----------------  -----------------  -----------------
       1        0.000016971073    -0.000000492128    -0.002422117393
       2       -0.000084828201    -0.000370933747     0.002296323051
       3        0.000168865332     0.001137897175     0.001663731503
       4        0.000074653016    -0.000838818793    -0.001516204756
       5       -0.000133866924     0.000091294990    -0.000000214719
       6       -0.000019297562     0.000005274871    -0.000014648145
       7       -0.000155548138     0.000110043352    -0.000038083348
       8        0.000007682267     0.000002162651    -0.000002158632
       9        0.000171561221     0.000064831083    -0.000057072394
      10       -0.000004601180    -0.000010333680     0.000006085575
      11       -0.000011762908    -0.000194996762     0.000088795793
      12       -0.000012990852    -0.000010616120    -0.000006364079
      13       -0.000016837741     0.000014687134     0.000001927599

  **** Optimization is complete! (in 4 steps) ****
    Final optimized geometry and variables:
    Molecular point group: c1

    Geometry (in Angstrom), charge = 0, multiplicity = 1:

    H           -4.339644270498    -0.772008552188     0.067455600174
    O           -3.961354335089     0.088828176101     0.066242951695
    C           -2.611227530430     0.026037477659     0.053875007718
    C           -1.920437159916     1.054844738923    -0.560874147705
    C           -1.917468932007    -1.017721119745     0.635782071129
    H           -2.469774152515     1.855477215722    -1.014972640750
    C           -0.542010800299     1.044480176327    -0.581344473047
    H           -2.450146122738    -1.814755165891     1.120176512958
    C           -0.535537482787    -1.034481834793     0.604641191052
    H           -0.008214751557     1.843435971415    -1.055045495811
    C            0.145881350738    -0.002569149567    -0.000529088032
    H           -0.000666521369    -1.845849038017     1.055460901869
    BR           2.043531436181    -0.019367384349    -0.038680316863

  Mulliken Charges: (a.u.)
   Center  Symbol    Alpha    Beta     Spin     Total
       1     H     0.38496  0.38496  0.00000  0.23008
       2     O     4.17616  4.17616  0.00000 -0.35233
       3     C     2.86678  2.86678  0.00000  0.26645
       4     C     3.09252  3.09252  0.00000 -0.18505
       5     C     3.11343  3.11343  0.00000 -0.22685
       6     H     0.41479  0.41479  0.00000  0.17042
       7     C     3.07917  3.07917  0.00000 -0.15833
       8     H     0.42604  0.42604  0.00000  0.14792
       9     C     3.08532  3.08532  0.00000 -0.17064
      10     H     0.41052  0.41052  0.00000  0.17896
      11     C     2.97352  2.97352  0.00000  0.05296
      12     H     0.41055  0.41055  0.00000  0.17891
      13    BR    17.56625 17.56625  0.00000 -0.13250

   Total alpha = 42.00000, Total beta = 42.00000, Total charge = -0.00000

*** Psi4 exiting successfully. Buy a developer a beer!
