  ==> Input File <==

--------------------------------------------------------------------------
set {
	reference rhf
	basis 6-31G*
}

set_num_threads( 1 )
memory 2 gb

molecule MOL {
0 1

H	 -1.026832	 0.497929	 4.328671
C	 -1.643607	 -0.202162	 3.751536
C	 -2.101755	 0.309195	 2.409439
O	 -1.904911	 -1.273178	 4.194703
C	 -0.941899	 0.836271	 1.553180
H	 -2.639729	 -0.485672	 1.905972
H	 -2.804239	 1.119924	 2.598886
C	 0.036736	 -0.255303	 1.112682
H	 -1.356170	 1.324663	 0.676175
H	 -0.407154	 1.607908	 2.104887
C	 1.180775	 0.282413	 0.250794
H	 -0.506848	 -1.018583	 0.559721
H	 0.450538	 -0.754607	 1.986754
C	 2.148627	 -0.814315	 -0.201312
H	 0.761402	 0.788813	 -0.614895
H	 1.730252	 1.037577	 0.811317
C	 3.580890	 -0.659131	 0.322722
H	 2.166869	 -0.852443	 -1.289387
H	 1.762857	 -1.776509	 0.128956
C	 4.324889	 0.564933	 -0.213704
H	 4.142010	 -1.551473	 0.056605
H	 3.564836	 -0.624694	 1.410140
H	 4.342616	 0.565491	 -1.300421
H	 3.866655	 1.493402	 0.110242
H	 5.353900	 0.572371	 0.132816

	symmetry c1
}
set optking {
	frozen_dihedral = ("
		6 3 5 8,
		6 3 2 4,
		3 5 8 12,
		12 8 11 14,
		20 17 14 18
	")
}

ee = energy('scf')
oeprop('DIPOLE', 'QUADRUPOLE', 'MULLIKEN_CHARGES')
f=open( 'psi4out.xyz', 'w' )
f.write( "25  " )
f.write( str(ee) + "\n" )
f.write( MOL.save_string_xyz() )
f.close()
--------------------------------------------------------------------------

    Molecular point group: c1

    Geometry (in Angstrom), charge = 0, multiplicity = 1:

       Center              X                  Y                   Z               Mass
    ------------   -----------------  -----------------  -----------------  -----------------
           H         -1.558362581941     0.635785977149     2.856373929664     1.007825032070
           C         -2.175137581941    -0.064305022851     2.279238929664    12.000000000000
           C         -2.633285581941     0.447051977149     0.937141929664    12.000000000000
           O         -2.436441581941    -1.135321022851     2.722405929664    15.994914619560
           C         -1.473429581941     0.974127977149     0.080882929664    12.000000000000
           H         -3.171259581941    -0.347815022851     0.433674929664     1.007825032070
           H         -3.335769581941     1.257780977149     1.126588929664     1.007825032070
           C         -0.494794581941    -0.117446022851    -0.359615070336    12.000000000000
           H         -1.887700581941     1.462519977149    -0.796122070336     1.007825032070
           H         -0.938684581941     1.745764977149     0.632589929664     1.007825032070
           C          0.649244418059     0.420269977149    -1.221503070336    12.000000000000
           H         -1.038378581941    -0.880726022851    -0.912576070336     1.007825032070
           H         -0.080992581941    -0.616750022851     0.514456929664     1.007825032070
           C          1.617096418059    -0.676458022851    -1.673609070336    12.000000000000
           H          0.229871418059     0.926669977149    -2.087192070336     1.007825032070
           H          1.198721418059     1.175433977149    -0.660980070336     1.007825032070
           C          3.049359418059    -0.521274022851    -1.149575070336    12.000000000000
           H          1.635338418059    -0.714586022851    -2.761684070336     1.007825032070
           H          1.231326418059    -1.638652022851    -1.343341070336     1.007825032070
           C          3.793358418059     0.702789977149    -1.686001070336    12.000000000000
           H          3.610479418059    -1.413616022851    -1.415692070336     1.007825032070
           H          3.033305418059    -0.486837022851    -0.062157070336     1.007825032070
           H          3.811085418059     0.703347977149    -2.772718070336     1.007825032070
           H          3.335124418059     1.631258977149    -1.362055070336     1.007825032070
           H          4.822369418059     0.710227977149    -1.339481070336     1.007825032070

  Charge       = 0
  Multiplicity = 1
  Basis Set: 6-31G*
  Basis Set:

    Orbital Energies (a.u.)
    -----------------------

    Doubly Occupied:

       1A    -20.562021     2A    -11.326140     3A    -11.234994
       4A    -11.234412     5A    -11.224206     6A    -11.218440
       7A    -11.218053     8A    -11.215374     9A    -11.210775
      10A     -1.402010    11A     -1.104213    12A     -1.069597
      13A     -1.012807    14A     -0.942344    15A     -0.874838
      16A     -0.824116    17A     -0.788037    18A     -0.778539
      19A     -0.665233    20A     -0.659771    21A     -0.634456
      22A     -0.624013    23A     -0.606898    24A     -0.590063
      25A     -0.573019    26A     -0.555421    27A     -0.533504
      28A     -0.522644    29A     -0.513349    30A     -0.494044
      31A     -0.489713    32A     -0.483644    33A     -0.459573
      34A     -0.455168    35A     -0.441910    36A     -0.409570

  @DF-RHF Final Energy:  -387.11658309444653

   => Energetics <=

    Nuclear Repulsion Energy =            441.8921968665153486
    One-Electron Energy =               -1400.1117349559358445
    Two-Electron Energy =                 571.1029549949735156
    DFT Exchange-Correlation Energy =       0.0000000000000000
    Empirical Dispersion Energy =           0.0000000000000000
    PCM Polarization Energy =               0.0000000000000000
    EFP Energy =                            0.0000000000000000
    Total Energy =                       -387.1165830944469235

  Mulliken Charges: (a.u.)
   Center  Symbol    Alpha    Beta     Spin     Total
       1     H     0.43263  0.43263  0.00000  0.13473
       2     C     2.83089  2.83089  0.00000  0.33822
       3     C     3.20811  3.20811  0.00000 -0.41621
       4     O     4.23780  4.23780  0.00000 -0.47560
       5     C     3.16706  3.16706  0.00000 -0.33411
       6     H     0.39976  0.39976  0.00000  0.20047
       7     H     0.40674  0.40674  0.00000  0.18652
       8     C     3.15796  3.15796  0.00000 -0.31591
       9     H     0.41279  0.41279  0.00000  0.17442
      10     H     0.41965  0.41965  0.00000  0.16070
      11     C     3.15484  3.15484  0.00000 -0.30967
      12     H     0.41742  0.41742  0.00000  0.16517
      13     H     0.41815  0.41815  0.00000  0.16370
      14     C     3.15721  3.15721  0.00000 -0.31441
      15     H     0.42001  0.42001  0.00000  0.15999
      16     H     0.42072  0.42072  0.00000  0.15857
      17     C     3.15435  3.15435  0.00000 -0.30870
      18     H     0.42091  0.42091  0.00000  0.15818
      19     H     0.41739  0.41739  0.00000  0.16522
      20     C     3.24069  3.24069  0.00000 -0.48139
      21     H     0.42037  0.42037  0.00000  0.15926
      22     H     0.42335  0.42335  0.00000  0.15331
      23     H     0.42178  0.42178  0.00000  0.15645
      24     H     0.42092  0.42092  0.00000  0.15817
      25     H     0.41853  0.41853  0.00000  0.16293

   Total alpha = 36.00000, Total beta = 36.00000, Total charge = -0.00000
