  ==> Input File <==

--------------------------------------------------------------------------
set {
	reference rhf
	basis cc-pvtz
}

set_num_threads( 4 )
memory 2 gb

molecule MOL {
0 1

H	 -3.194000	 0.530000	 0.000000
C	 -2.399000	 -0.203000	 0.000000
O	 -1.190000	 0.485000	 0.000000
H	 -2.500000	 -0.832000	 -0.883000
H	 -2.500000	 -0.832000	 0.883000
C	 -0.062000	 -0.336000	 -0.000000
C	 1.180000	 0.538000	 -0.000000
H	 -0.069000	 -0.984000	 -0.878000
H	 -0.069000	 -0.984000	 0.878000
C	 2.471000	 -0.280000	 0.000000
H	 1.146000	 1.185000	 -0.872000
H	 1.146000	 1.185000	 0.871000
H	 2.536000	 -0.917000	 -0.877000
H	 3.341000	 0.369000	 -0.000000
H	 2.537000	 -0.917000	 0.878000

	symmetry c1
}
ee = optimize('scf')
oeprop('DIPOLE', 'QUADRUPOLE', 'MULLIKEN_CHARGES')
f=open( 'psi4out.xyz', 'w' )
f.write( "15  " )
f.write( str(ee) + "\n" )
f.write( MOL.save_string_xyz() )
f.close()
--------------------------------------------------------------------------

    Molecular point group: c1
  Charge       = 0
  Multiplicity = 1
  Basis Set: CC-PVTZ
  Basis Set:
  @DF-RHF Final Energy:  -232.22817710878454
    Total Energy =                       -232.2281771087845073
    Molecular point group: c1
  Basis Set: CC-PVTZ
  Basis Set:
  Basis Set: CC-PVTZ
  Basis Set:
  @DF-RHF Final Energy:  -232.22822185410044
    Total Energy =                       -232.2282218541002976
  Basis Set: CC-PVTZ
  Basis Set:
  Charge       = 0
  Multiplicity = 1
  Basis Set: CC-PVTZ
  Basis Set:

    Orbital Energies (a.u.)
    -----------------------

    Doubly Occupied:

       1A    -20.547597     2A    -11.264393     3A    -11.261786
       4A    -11.212768     5A    -11.210727     6A     -1.381836
       7A     -1.058494     8A     -0.956163     9A     -0.877396
      10A     -0.809578    11A     -0.677238    12A     -0.655934
      13A     -0.632283    14A     -0.608548    15A     -0.565263
      16A     -0.540921    17A     -0.503785    18A     -0.490409
      19A     -0.478394    20A     -0.462949    21A     -0.416867

  @DF-RHF Final Energy:  -232.22822340192300

   => Energetics <=

    Nuclear Repulsion Energy =            190.0068538651887025
    One-Electron Energy =                -691.2434931514721939
    Two-Electron Energy =                 269.0084158843606588
    DFT Exchange-Correlation Energy =       0.0000000000000000
    Empirical Dispersion Energy =           0.0000000000000000
    PCM Polarization Energy =               0.0000000000000000
    EFP Energy =                            0.0000000000000000
    Total Energy =                       -232.2282234019228326
    Molecular point group: c1
  Basis Set: CC-PVTZ
  Basis Set:

  -Total Gradient:
     Atom            X                  Y                   Z
    ------   -----------------  -----------------  -----------------
       1        0.000087803724     0.000004671397    -0.000000029132
       2       -0.000110107138    -0.000209232814     0.000000356314
       3        0.000030682412     0.000209668260    -0.000000299085
       4        0.000001299716     0.000038673422     0.000020963222
       5        0.000001335293     0.000038752326    -0.000021105566
       6        0.000064092934    -0.000137496894     0.000001323197
       7        0.000005085490     0.000032266071    -0.000018324211
       8       -0.000002756019     0.000036265530     0.000022733258
       9       -0.000004470661     0.000034515177    -0.000021434685
      10       -0.000002402301    -0.000011764394     0.000011189243
      11       -0.000012268397    -0.000025497285     0.000032975950
      12       -0.000009837848    -0.000026462549    -0.000024631985
      13        0.000000103296     0.000018146439     0.000025860132
      14       -0.000054882092    -0.000021732689     0.000000167782
      15        0.000006321587     0.000019228006    -0.000029744433

  **** Optimization is complete! (in 3 steps) ****
    Final optimized geometry and variables:
    Molecular point group: c1

    Geometry (in Angstrom), charge = 0, multiplicity = 1:

    H           -3.162190251581     0.493204483919    -0.000107154024
    C           -2.363908041247    -0.234727386182     0.000005167903
    O           -1.158738190339     0.454633709510    -0.000086497762
    H           -2.464314403712    -0.863616442900    -0.882152777359
    H           -2.464326867346    -0.863358658833     0.882345046215
    C           -0.028610869278    -0.359694137172     0.000036556115
    C            1.212846529529     0.509313490613    -0.000053253435
    H           -0.034155396014    -1.007047283387    -0.877197731293
    H           -0.034194892934    -1.006836036699     0.877429545724
    C            2.497891629194    -0.311058239544     0.000089644469
    H            1.182188297738     1.155367246099    -0.870456330273
    H            1.182168696120     1.155529340676     0.870243560185
    H            2.560486150560    -0.947939032174    -0.876009587490
    H            3.367935082520     0.333958252968    -0.000109305616
    H            2.560608785059    -0.947544824791     0.876457413641

  Mulliken Charges: (a.u.)
   Center  Symbol    Alpha    Beta     Spin     Total
       1     H     0.44684  0.44684  0.00000  0.10632
       2     C     3.03354  3.03354  0.00000 -0.06708
       3     O     4.17154  4.17154  0.00000 -0.34307
       4     H     0.47212  0.47212  0.00000  0.05576
       5     H     0.47212  0.47212  0.00000  0.05576
       6     C     2.95609  2.95609  0.00000  0.08782
       7     C     3.08015  3.08015  0.00000 -0.16029
       8     H     0.47583  0.47583  0.00000  0.04834
       9     H     0.47583  0.47583  0.00000  0.04834
      10     C     3.15584  3.15584  0.00000 -0.31168
      11     H     0.45109  0.45109  0.00000  0.09782
      12     H     0.45110  0.45110  0.00000  0.09780
      13     H     0.45583  0.45583  0.00000  0.08833
      14     H     0.44626  0.44626  0.00000  0.10748
      15     H     0.45583  0.45583  0.00000  0.08834

   Total alpha = 21.00000, Total beta = 21.00000, Total charge = -0.00000
