                              Psi4 1.0.54 Driver

  ==> Input File <==

--------------------------------------------------------------------------
set {
	reference rhf
	basis cc-pvtz
}

set_num_threads( 4 )
memory 2 gb

molecule MOL {
0 1

H	 -2.805655	 0.405619	 -0.610295
O	 -2.313989	 -0.142475	 -0.025864
C	 -0.943808	 -0.065018	 -0.330000
H	 -0.812293	 -0.225641	 -1.398673
C	 -0.231030	 -1.182113	 0.407592
C	 -0.353797	 1.300461	 0.050970
H	 -0.312800	 -0.992012	 1.473041
H	 -0.738841	 -2.119564	 0.220514
C	 1.246176	 -1.268044	 -0.015480
H	 -0.539537	 2.008579	 -0.751815
H	 -0.889989	 1.662858	 0.920677
C	 1.153605	 1.231851	 0.356834
H	 1.823096	 -1.684665	 0.802361
H	 1.352335	 -1.958223	 -0.845114
C	 1.826409	 0.100723	 -0.416008
H	 1.622968	 2.181508	 0.128734
H	 1.301983	 1.066493	 1.419367
H	 2.897299	 0.112407	 -0.249665
H	 1.683458	 0.265621	 -1.480024

	symmetry c1
}
set optking {
	frozen_dihedral = ("
		1 2 3 4
	")
}

ee,wfn = optimize('scf', return_wfn=True)
oeprop( wfn, 'DIPOLE', 'QUADRUPOLE', 'MULLIKEN_CHARGES')
f=open( 'psi4out.xyz', 'w' )
f.write( "19  " )
f.write( str(ee) + "\n" )
f.write( MOL.save_string_xyz() )
f.close()
--------------------------------------------------------------------------

    Molecular point group: c1
  Charge       = 0
  Multiplicity = 1
  Basis Set: CC-PVTZ
  Basis Set:
  @DF-RHF Final Energy:  -309.16337104734566
    Total Energy =                       -309.1633710473456631
    Molecular point group: c1
  Basis Set: CC-PVTZ
  Basis Set:
  Basis Set: CC-PVTZ
  Basis Set:
  @DF-RHF Final Energy:  -309.16337909735495
    Total Energy =                       -309.1633790973552323
  Basis Set: CC-PVTZ
  Basis Set:
  Charge       = 0
  Multiplicity = 1
  Basis Set: CC-PVTZ
  Basis Set:

    Orbital Energies (a.u.)
    -----------------------

    Doubly Occupied:

       1A    -20.543329     2A    -11.267582     3A    -11.214118
       4A    -11.213531     5A    -11.212988     6A    -11.210106
       7A    -11.206731     8A     -1.363200     9A     -1.109624
      10A     -1.002547    11A     -0.989262    12A     -0.843405
      13A     -0.836146    14A     -0.733017    15A     -0.704508
      16A     -0.661596    17A     -0.629168    18A     -0.590576
      19A     -0.576177    20A     -0.547112    21A     -0.533040
      22A     -0.518267    23A     -0.498475    24A     -0.489226
      25A     -0.462918    26A     -0.449613    27A     -0.429585
      28A     -0.412668

  @DF-RHF Final Energy:  -309.16338213591098

   => Energetics <=

    Nuclear Repulsion Energy =            331.8791950848358283
    One-Electron Energy =               -1077.5881239062050554
    Two-Electron Energy =                 436.5455466854583619
    DFT Exchange-Correlation Energy =       0.0000000000000000
    Empirical Dispersion Energy =           0.0000000000000000
    PCM Polarization Energy =               0.0000000000000000
    EFP Energy =                            0.0000000000000000
    Total Energy =                       -309.1633821359108651
    Molecular point group: c1
  Basis Set: CC-PVTZ
  Basis Set:

  -Total Gradient:
     Atom            X                  Y                   Z
    ------   -----------------  -----------------  -----------------
       1       -0.000095908743    -0.000757684866    -0.000596439940
       2        0.000110667233     0.001155528443     0.000721536342
       3        0.000040976273    -0.001187011992     0.000018880712
       4       -0.000032120814     0.000819379506    -0.000139705480
       5        0.000048850552    -0.000073181352     0.000002625463
       6       -0.000061571877    -0.000050814774    -0.000018217815
       7        0.000007478133     0.000006576028    -0.000002533682
       8       -0.000008400116     0.000004575508    -0.000004419181
       9       -0.000019025399    -0.000014934932     0.000024037566
      10        0.000019530241     0.000016485653     0.000026592357
      11        0.000021386350     0.000015958638    -0.000007400419
      12        0.000043912859     0.000024414460    -0.000019991892
      13       -0.000018696430    -0.000012834213    -0.000000205842
      14       -0.000019355539    -0.000012261914     0.000002454661
      15       -0.000018164599     0.000023924845    -0.000004097300
      16       -0.000000286284     0.000013182920    -0.000000926074
      17       -0.000018590857    -0.000002501059    -0.000008739169
      18       -0.000003018822     0.000024740557     0.000008154692
      19        0.000002337838     0.000006458544    -0.000001604998

  **** Optimization is complete! (in 3 steps) ****
    Final optimized geometry and variables:
    Molecular point group: c1

    Geometry (in Angstrom), charge = 0, multiplicity = 1:

    H           -2.807282392827     0.420271244566    -0.592045188185
    O           -2.314802451421    -0.133817995592    -0.014562042450
    C           -0.945463394882    -0.064105342332    -0.327601179812
    H           -0.820810428899    -0.219708207701    -1.397588407086
    C           -0.230708596190    -1.183292420379     0.405115657342
    C           -0.351658390906     1.300934475275     0.051897123128
    H           -0.311319166111    -0.996128091776     1.471212432700
    H           -0.738622022077    -2.120221652311     0.216063321067
    C            1.246231416429    -1.268271801506    -0.019029012051
    H           -0.536101113741     2.008658274547    -0.751394839626
    H           -0.888957313376     1.664736606989     0.919771236382
    C            1.155415276519     1.230524189289     0.357883100183
    H            1.823550284216    -1.686532185728     0.797679291211
    H            1.351223926385    -1.957408138775    -0.849778365887
    C            1.826827696458     0.100826089827    -0.417897520272
    H            1.625688791981     2.180414663428     0.132319510156
    H            1.303866465813     1.062148108850     1.419981999467
    H            2.898030663160     0.111302343387    -0.253362286552
    H            1.682221488193     0.267738642580    -1.481473676211

  Mulliken Charges: (a.u.)
   Center  Symbol    Alpha    Beta     Spin     Total
       1     H     0.39655  0.39655  0.00000  0.20690
       2     O     4.19981  4.19981  0.00000 -0.39963
       3     C     2.92461  2.92461  0.00000  0.15079
       4     H     0.46467  0.46467  0.00000  0.07067
       5     C     3.09807  3.09807  0.00000 -0.19615
       6     C     3.11910  3.11910  0.00000 -0.23820
       7     H     0.45347  0.45347  0.00000  0.09306
       8     H     0.44089  0.44089  0.00000  0.11822
       9     C     3.11332  3.11332  0.00000 -0.22663
      10     H     0.45323  0.45323  0.00000  0.09355
      11     H     0.44508  0.44508  0.00000  0.10983
      12     C     3.10066  3.10066  0.00000 -0.20132
      13     H     0.44719  0.44719  0.00000  0.10562
      14     H     0.44765  0.44765  0.00000  0.10470
      15     C     3.10271  3.10271  0.00000 -0.20543
      16     H     0.44283  0.44283  0.00000  0.11435
      17     H     0.45266  0.45266  0.00000  0.09467
      18     H     0.44290  0.44290  0.00000  0.11420
      19     H     0.45460  0.45460  0.00000  0.09079

   Total alpha = 28.00000, Total beta = 28.00000, Total charge =  0.00000

*** Psi4 exiting successfully. Buy a developer a beer!
