  ==> Input File <==

--------------------------------------------------------------------------
set {
	reference rhf
	basis 6-31G*
}

set_num_threads( 4 )
memory 2 gb

molecule MOL {
0 1

H	 -2.499100	 -0.730091	 -0.745082
O	 -2.347518	 -0.290803	 0.079804
C	 -1.184022	 0.487508	 -0.006784
C	 0.062599	 -0.378592	 0.031606
H	 -1.176523	 1.099369	 -0.904519
H	 -1.187323	 1.153111	 0.844927
O	 1.016315	 0.202999	 -0.800235
H	 -0.173588	 -1.390187	 -0.304357
H	 0.425344	 -0.451576	 1.055165
C	 2.234938	 -0.469694	 -0.840018
H	 2.116292	 -1.486385	 -1.210007
H	 2.886169	 0.073405	 -1.510722
H	 2.697410	 -0.512224	 0.143904

	symmetry c1
}
set optking {
	frozen_dihedral = ("
		8 4 3 5
	")
}

ee = optimize('scf')
oeprop('DIPOLE', 'QUADRUPOLE', 'MULLIKEN_CHARGES')
f=open( 'psi4out.xyz', 'w' )
f.write( "13  " )
f.write( str(ee) + "\n" )
f.write( MOL.save_string_xyz() )
f.close()
--------------------------------------------------------------------------

    Molecular point group: c1
  Charge       = 0
  Multiplicity = 1
  Basis Set: 6-31G*
  Basis Set:
  @DF-RHF Final Energy:  -267.94645514556106
    Total Energy =                       -267.9464551455612309
    Molecular point group: c1
  Basis Set: 6-31G*
  Basis Set:
  Basis Set: 6-31G*
  Basis Set:
  @DF-RHF Final Energy:  -267.94688233316833
    Total Energy =                       -267.9468823331683325
  Basis Set: 6-31G*
  Basis Set:
  Basis Set: 6-31G*
  Basis Set:
  @DF-RHF Final Energy:  -267.94704027406760
    Total Energy =                       -267.9470402740675468
  Basis Set: 6-31G*
  Basis Set:
  Basis Set: 6-31G*
  Basis Set:
  @DF-RHF Final Energy:  -267.94704367653026
    Total Energy =                       -267.9470436765301429
  Basis Set: 6-31G*
  Basis Set:
  Charge       = 0
  Multiplicity = 1
  Basis Set: 6-31G*
  Basis Set:

    Orbital Energies (a.u.)
    -----------------------

    Doubly Occupied:

       1A    -20.563413     2A    -20.559037     3A    -11.271743
       4A    -11.270813     5A    -11.268910     6A     -1.389468
       7A     -1.364535     8A     -1.016679     9A     -0.914597
      10A     -0.843093    11A     -0.706784    12A     -0.677263
      13A     -0.659174    14A     -0.630724    15A     -0.606932
      16A     -0.566508    17A     -0.540490    18A     -0.491355
      19A     -0.482585    20A     -0.437847    21A     -0.420754

  @DF-RHF Final Energy:  -267.94704403867360

   => Energetics <=

    Nuclear Repulsion Energy =            190.1063169470361913
    One-Electron Energy =                -742.7413160952772841
    Two-Electron Energy =                 284.6879551095674969
    DFT Exchange-Correlation Energy =       0.0000000000000000
    Empirical Dispersion Energy =           0.0000000000000000
    PCM Polarization Energy =               0.0000000000000000
    EFP Energy =                            0.0000000000000000
    Total Energy =                       -267.9470440386736527
    Molecular point group: c1
  Basis Set: 6-31G*
  Basis Set:

  -Total Gradient:
     Atom            X                  Y                   Z
    ------   -----------------  -----------------  -----------------
       1       -0.000011790761    -0.000009948083    -0.000005599275
       2       -0.000005682045     0.000000385079    -0.000019288542
       3       -0.002724881889    -0.003952120564    -0.001541194784
       4        0.001416169495     0.002118179229    -0.004430225530
       5        0.002087188531     0.002981255838     0.002057116618
       6        0.000010255847    -0.000001936159     0.000005897964
       7        0.000017917508    -0.000011647100     0.000003198398
       8       -0.000816815464    -0.001148295512     0.003951466769
       9        0.000006007778     0.000022500572    -0.000016213527
      10        0.000010288319     0.000003303147     0.000003052813
      11        0.000000677197     0.000000338148    -0.000005600839
      12        0.000003226611    -0.000002242097    -0.000002782865
      13        0.000007438874     0.000000227503     0.000000172803

  **** Optimization is complete! (in 5 steps) ****
    Final optimized geometry and variables:
    Molecular point group: c1

    Geometry (in Angstrom), charge = 0, multiplicity = 1:

    H           -2.467170096619    -0.639696302846    -0.362827498904
    O           -2.305931874809    -0.156394393929     0.435595448906
    C           -1.126768789499     0.587110792885     0.301246512705
    C            0.124492029920    -0.291511531904     0.307821231132
    H           -1.116703922211     1.198616850455    -0.596065571437
    H           -1.108807870623     1.268409234114     1.141126291171
    O            1.090564521575     0.297975675977    -0.504576044106
    H           -0.130948266116    -1.295636155407    -0.033029824222
    H            0.503087417562    -0.405491834849     1.322788188963
    C            2.317189318116    -0.361385390960    -0.509844020907
    H            2.217788744198    -1.382648034147    -0.872807465382
    H            2.977573491166     0.182872794206    -1.170648155914
    H            2.757503800286    -0.390120061206     0.484796269247

  Mulliken Charges: (a.u.)
   Center  Symbol    Alpha    Beta     Spin     Total
       1     H     0.28131  0.28131  0.00000  0.43738
       2     O     4.37055  4.37055  0.00000 -0.74111
       3     C     3.00757  3.00757  0.00000 -0.01515
       4     C     3.00123  3.00123  0.00000 -0.00246
       5     H     0.41540  0.41540  0.00000  0.16919
       6     H     0.41163  0.41163  0.00000  0.17674
       7     O     4.30707  4.30707  0.00000 -0.61415
       8     H     0.43105  0.43105  0.00000  0.13790
       9     H     0.42591  0.42591  0.00000  0.14818
      10     C     3.08081  3.08081  0.00000 -0.16161
      11     H     0.42886  0.42886  0.00000  0.14227
      12     H     0.41072  0.41072  0.00000  0.17855
      13     H     0.42787  0.42787  0.00000  0.14426

   Total alpha = 21.00000, Total beta = 21.00000, Total charge = -0.00000
