  ==> Input File <==

--------------------------------------------------------------------------
set {
	reference rhf
	basis cc-pvtz
}

set_num_threads( 4 )
memory 2 gb

molecule MOL {
0 1

H	 0.271860	 -2.372164	 0.683693
C	 -0.560527	 -1.685687	 0.849010
N	 -0.537714	 -0.645117	 0.000000
O	 -1.372685	 -1.878083	 1.697598
C	 -1.522613	 0.412524	 0.000000
H	 0.200477	 -0.611462	 -0.658730
H	 -2.150256	 0.356137	 -0.880771
H	 -1.005621	 1.357208	 0.000000
H	 -2.150256	 0.356137	 0.880771

	symmetry c1
}
set optking {
	frozen_dihedral = ("
		6 3 5 7
	")
}

ee = optimize('scf')
oeprop('DIPOLE', 'QUADRUPOLE', 'MULLIKEN_CHARGES')
f=open( 'psi4out.xyz', 'w' )
f.write( "9  " )
f.write( str(ee) + "\n" )
f.write( MOL.save_string_xyz() )
f.close()
--------------------------------------------------------------------------

    Molecular point group: c1
  Charge       = 0
  Multiplicity = 1
  Basis Set: CC-PVTZ
  Basis Set:
  @DF-RHF Final Energy:  -208.04317732566378
    Total Energy =                       -208.0431773256636347
    Molecular point group: c1
  Basis Set: CC-PVTZ
  Basis Set:
  Basis Set: CC-PVTZ
  Basis Set:
  @DF-RHF Final Energy:  -208.04353146971494
    Total Energy =                       -208.0435314697148783
  Basis Set: CC-PVTZ
  Basis Set:
  Basis Set: CC-PVTZ
  Basis Set:
  @DF-RHF Final Energy:  -208.04355089251968
    Total Energy =                       -208.0435508925195904
  Basis Set: CC-PVTZ
  Basis Set:
  Basis Set: CC-PVTZ
  Basis Set:
  @DF-RHF Final Energy:  -208.04357126194128
    Total Energy =                       -208.0435712619412811
  Basis Set: CC-PVTZ
  Basis Set:
  @DF-RHF Final Energy:  -208.04358260704836
    Total Energy =                       -208.0435826070483643
  Basis Set: CC-PVTZ
  Basis Set:
  @DF-RHF Final Energy:  -208.04358492901014
    Total Energy =                       -208.0435849290102510
  Basis Set: CC-PVTZ
  Basis Set:
  Basis Set: CC-PVTZ
  Basis Set:
  @DF-RHF Final Energy:  -208.04358762896686
    Total Energy =                       -208.0435876289667476
  Basis Set: CC-PVTZ
  Basis Set:
  Basis Set: CC-PVTZ
  Basis Set:
  @DF-RHF Final Energy:  -208.04358916650489
    Total Energy =                       -208.0435891665048302
  Basis Set: CC-PVTZ
  Basis Set:
  Charge       = 0
  Multiplicity = 1
  Basis Set: CC-PVTZ
  Basis Set:

    Orbital Energies (a.u.)
    -----------------------

    Doubly Occupied:

       1A    -20.516132     2A    -15.585056     3A    -11.337517
       4A    -11.259268     5A     -1.393657     6A     -1.239893
       7A     -0.970403     8A     -0.808267     9A     -0.748813
      10A     -0.646365    11A     -0.629337    12A     -0.596845
      13A     -0.555368    14A     -0.542113    15A     -0.428255
      16A     -0.395969

  @DF-RHF Final Energy:  -208.04358964816956

   => Energetics <=

    Nuclear Repulsion Energy =            122.7142262135314184
    One-Electron Energy =                -526.2091153156216023
    Two-Electron Energy =                 195.4512994539205124
    DFT Exchange-Correlation Energy =       0.0000000000000000
    Empirical Dispersion Energy =           0.0000000000000000
    PCM Polarization Energy =               0.0000000000000000
    EFP Energy =                            0.0000000000000000
    Total Energy =                       -208.0435896481696432
    Molecular point group: c1
  Basis Set: CC-PVTZ
  Basis Set:

  -Total Gradient:
     Atom            X                  Y                   Z
    ------   -----------------  -----------------  -----------------
       1        0.000001779810     0.000000108716     0.000000254136
       2        0.000002425473     0.000016405512    -0.000021664450
       3        0.000141562146     0.000119654468     0.000123146351
       4       -0.000003989179     0.000001818438     0.000004602905
       5       -0.000128707252    -0.000127518459     0.000055758283
       6       -0.000092304646    -0.000083624600    -0.000090975267
       7        0.000077836148     0.000077786601    -0.000070622346
       8        0.000001685183    -0.000002387546    -0.000000405234
       9       -0.000000287685    -0.000002243131    -0.000000094376

  **** Optimization is complete! (in 9 steps) ****
    Final optimized geometry and variables:
    Molecular point group: c1

    Geometry (in Angstrom), charge = 0, multiplicity = 1:

    H            1.268156719134    -1.445393111029     0.056197238917
    C            0.438337049356    -0.753967053518     0.214774635282
    N            0.493969859012     0.306813816008    -0.607736052561
    O           -0.395318602027    -0.952017509296     1.040733281588
    C           -0.504565166868     1.351416037985    -0.631203712565
    H            1.215314699023     0.319394778953    -1.285737323035
    H           -1.159534828049     1.257171711855    -1.489568333627
    H           -0.027712164785     2.322355427333    -0.661110603192
    H           -1.097054729352     1.278978595415     0.265473867697

  Mulliken Charges: (a.u.)
   Center  Symbol    Alpha    Beta     Spin     Total
       1     H     0.46293  0.46293  0.00000  0.07413
       2     C     2.88099  2.88099  0.00000  0.23801
       3     N     3.60785  3.60785  0.00000 -0.21569
       4     O     4.21489  4.21489  0.00000 -0.42979
       5     C     3.08071  3.08071  0.00000 -0.16143
       6     H     0.40971  0.40971  0.00000  0.18058
       7     H     0.45532  0.45532  0.00000  0.08935
       8     H     0.45407  0.45407  0.00000  0.09187
       9     H     0.43352  0.43352  0.00000  0.13297

   Total alpha = 16.00000, Total beta = 16.00000, Total charge = -0.00000
