                              Psi4 1.0.54 Driver

  ==> Input File <==

--------------------------------------------------------------------------
set {
	reference rhf
	basis cc-pvtz
}

set_num_threads( 4 )
memory 2 gb

molecule MOL {
0 1

H	 4.825132	 3.027235	 -0.313938
C	 4.532563	 1.988420	 -0.414601
C	 3.145172	 1.747274	 0.170480
H	 4.557979	 1.738388	 -1.469614
H	 5.281392	 1.383755	 0.086832
C	 2.703383	 0.289984	 0.056023
H	 2.428100	 2.383198	 -0.335828
H	 3.141092	 2.041471	 1.217502
C	 1.320499	 0.017299	 0.639257
H	 2.712864	 -0.010873	 -0.984277
H	 3.421547	 -0.339335	 0.573691
C	 0.166485	 0.574257	 -0.177158
H	 1.153397	 -1.054802	 0.705902
H	 1.247209	 0.389915	 1.656756
C	 -1.180025	 0.697761	 0.509157
O	 0.300689	 0.884056	 -1.317022
C	 -2.285431	 -0.137488	 -0.145671
H	 -1.447360	 1.745713	 0.496200
H	 -1.065514	 0.394096	 1.546399
C	 -3.646545	 0.082747	 0.508954
H	 -2.348635	 0.118247	 -1.199806
H	 -2.034895	 -1.192387	 -0.096473
C	 -4.757412	 -0.737227	 -0.138149
H	 -3.900211	 1.137405	 0.459735
H	 -3.580878	 -0.166775	 1.564416
H	 -4.867876	 -0.486707	 -1.187777
H	 -4.549650	 -1.800049	 -0.072540
H	 -5.709585	 -0.556397	 0.346597

	symmetry c1
}
set optking {
	frozen_dihedral = ("
		16 12 15 17
	")
}

ee,wfn = optimize('scf', return_wfn=True)
oeprop( wfn, 'DIPOLE', 'QUADRUPOLE', 'MULLIKEN_CHARGES')
f=open( 'psi4out.xyz', 'w' )
f.write( "28  " )
f.write( str(ee) + "\n" )
f.write( MOL.save_string_xyz() )
f.close()
--------------------------------------------------------------------------

    Molecular point group: c1
  Charge       = 0
  Multiplicity = 1
  Basis Set: CC-PVTZ
  Basis Set:
  @DF-RHF Final Energy:  -426.31960011402964
    Total Energy =                       -426.3196001140296403
    Molecular point group: c1
  Basis Set: CC-PVTZ
  Basis Set:
  Basis Set: CC-PVTZ
  Basis Set:
  @DF-RHF Final Energy:  -426.30614031485754
    Total Energy =                       -426.3061403148572026
  Basis Set: CC-PVTZ
  Basis Set:
  Basis Set: CC-PVTZ
  Basis Set:
  @DF-RHF Final Energy:  -426.32028518816549
    Total Energy =                       -426.3202851881654851
  Basis Set: CC-PVTZ
  Basis Set:
  Basis Set: CC-PVTZ
  Basis Set:
  @DF-RHF Final Energy:  -426.31963714224594
    Total Energy =                       -426.3196371422461652
  Basis Set: CC-PVTZ
  Basis Set:
  @DF-RHF Final Energy:  -426.32020384096506
    Total Energy =                       -426.3202038409651777
  @DF-RHF Final Energy:  -426.32010982620545
    Total Energy =                       -426.3201098262046571
  @DF-RHF Final Energy:  -426.32051193812651
    Total Energy =                       -426.3205119381267423
  Basis Set: CC-PVTZ
  Basis Set:
  @DF-RHF Final Energy:  -426.32049293982197
    Total Energy =                       -426.3204929398220884
  Basis Set: CC-PVTZ
  Basis Set:
  Basis Set: CC-PVTZ
  Basis Set:
  @DF-RHF Final Energy:  -426.32051511490226
    Total Energy =                       -426.3205151149023777
  Basis Set: CC-PVTZ
  Basis Set:
  Basis Set: CC-PVTZ
  Basis Set:
  @DF-RHF Final Energy:  -426.32051642349199
    Total Energy =                       -426.3205164234918811
  Basis Set: CC-PVTZ
  Basis Set:
  Charge       = 0
  Multiplicity = 1
  Basis Set: CC-PVTZ
  Basis Set:

    Orbital Energies (a.u.)
    -----------------------

    Doubly Occupied:

       1A    -20.536373     2A    -11.317622     3A    -11.229920
       4A    -11.227015     5A    -11.222615     6A    -11.219845
       7A    -11.214743     8A    -11.210477     9A    -11.209557
      10A    -11.203296    11A     -1.397324    12A     -1.091420
      13A     -1.079047    14A     -1.022985    15A     -0.991909
      16A     -0.910127    17A     -0.868420    18A     -0.806930
      19A     -0.795319    20A     -0.726051    21A     -0.672097
      22A     -0.651532    23A     -0.630551    24A     -0.617942
      25A     -0.608856    26A     -0.589329    27A     -0.577052
      28A     -0.571295    29A     -0.542216    30A     -0.531693
      31A     -0.523146    32A     -0.510299    33A     -0.496861
      34A     -0.479772    35A     -0.476685    36A     -0.474153
      37A     -0.469277    38A     -0.465680    39A     -0.456599
      40A     -0.394032

  @DF-RHF Final Energy:  -426.32051648463823

   => Energetics <=

    Nuclear Repulsion Energy =            529.9503193228472355
    One-Electron Energy =               -1628.5015543396343674
    Two-Electron Energy =                 672.2307185321494671
    DFT Exchange-Correlation Energy =       0.0000000000000000
    Empirical Dispersion Energy =           0.0000000000000000
    PCM Polarization Energy =               0.0000000000000000
    EFP Energy =                            0.0000000000000000
    Total Energy =                       -426.3205164846376647
    Molecular point group: c1
  Basis Set: CC-PVTZ
  Basis Set:

  -Total Gradient:
     Atom            X                  Y                   Z
    ------   -----------------  -----------------  -----------------
       1        0.000000207719     0.000001778091    -0.000000772401
       2       -0.000006041122     0.000000816420     0.000001109054
       3        0.000017774121    -0.000004027393     0.000006573018
       4        0.000000373715    -0.000002265674    -0.000001983898
       5        0.000001660400    -0.000000589965     0.000001230060
       6       -0.000004064600    -0.000000391569     0.000004377386
       7       -0.000006783602     0.000003230117    -0.000002281834
       8        0.000000683292     0.000001821023     0.000001243380
       9        0.000007904837     0.000004749713    -0.000000199138
      10        0.000000469753    -0.000001956355    -0.000001958123
      11        0.000001888644     0.000000878385     0.000001093469
      12       -0.000131435931    -0.000636188040     0.000001496732
      13       -0.000003779876    -0.000002057116    -0.000000310256
      14        0.000000541101     0.000000081396     0.000001223547
      15       -0.000023258820     0.000430572762    -0.000283594183
      16        0.000095703832     0.000400065362     0.000051743485
      17        0.000045638072    -0.000201720360     0.000211902237
      18       -0.000003161201     0.000002107276    -0.000001888081
      19       -0.000000149736    -0.000001609281    -0.000001929340
      20        0.000004842622    -0.000005311702     0.000010129551
      21        0.000002655701    -0.000002278768     0.000009165969
      22        0.000001143178     0.000009104550    -0.000000925467
      23       -0.000006325293     0.000005349663    -0.000004072066
      24       -0.000000859057    -0.000008236746     0.000003406475
      25       -0.000002561203     0.000000676951    -0.000004147320
      26       -0.000000723804    -0.000003164395     0.000005293822
      27       -0.000000374972     0.000010386696    -0.000000101040
      28        0.000008032232    -0.000001821041    -0.000005825034

  **** Optimization is complete! (in 11 steps) ****
    Final optimized geometry and variables:
    Molecular point group: c1

    Geometry (in Angstrom), charge = 0, multiplicity = 1:

    H            5.179380699446     1.517289604666    -0.868545590942
    C            4.677785998517     0.583518595960    -0.641973081727
    C            3.300557509956     0.831081622757    -0.036158394038
    H            4.600598736731     0.017690770093    -1.564036954401
    H            5.312278630646     0.023643898800     0.037684680920
    C            2.569407226124    -0.464345202344     0.310375318583
    H            2.701449808739     1.408805964424    -0.729354175341
    H            3.407482892457     1.431789149308     0.864144108694
    C            1.187013363464    -0.250812235928     0.916074975784
    H            2.475116547668    -1.075739291049    -0.579336937472
    H            3.168985707430    -1.029145405244     1.018446987937
    C            0.109690062377     0.180516364415    -0.057313683620
    H            0.824584450145    -1.167374714408     1.378084279953
    H            1.221328218365     0.479493083266     1.720995659284
    C           -1.261202006199     0.481802738970     0.524369459034
    O            0.302554865411     0.267214203926    -1.226884424886
    C           -2.339335155585    -0.441227272125    -0.048089505058
    H           -1.491709310440     1.511995892965     0.272718886569
    H           -1.239228317281     0.407596991602     1.605576074725
    C           -3.734393893652    -0.118733157897     0.478503239350
    H           -2.325168517413    -0.363720791553    -1.128383380529
    H           -2.094799421617    -1.473212876914     0.191958418982
    C           -4.809566276481    -1.039296372858    -0.088862913112
    H           -3.977752371649     0.912033916608     0.236440246692
    H           -3.737600731722    -0.186492917748     1.563085373866
    H           -4.852722288369    -0.969027752079    -1.170311431846
    H           -4.612773563268    -2.075161331493     0.166545258895
    H           -5.788653802085    -0.783536205751     0.299156189747

  Mulliken Charges: (a.u.)
   Center  Symbol    Alpha    Beta     Spin     Total
       1     H     0.44873  0.44873  0.00000  0.10254
       2     C     3.15163  3.15163  0.00000 -0.30327
       3     C     3.08403  3.08403  0.00000 -0.16807
       4     H     0.45209  0.45209  0.00000  0.09582
       5     H     0.45727  0.45727  0.00000  0.08547
       6     C     3.08722  3.08722  0.00000 -0.17444
       7     H     0.44406  0.44406  0.00000  0.11189
       8     H     0.45870  0.45870  0.00000  0.08260
       9     C     3.12457  3.12457  0.00000 -0.24914
      10     H     0.44610  0.44610  0.00000  0.10780
      11     H     0.44792  0.44792  0.00000  0.10416
      12     C     2.87151  2.87151  0.00000  0.25698
      13     H     0.43476  0.43476  0.00000  0.13048
      14     H     0.44225  0.44225  0.00000  0.11549
      15     C     3.09386  3.09386  0.00000 -0.18772
      16     O     4.18249  4.18249  0.00000 -0.36498
      17     C     3.08927  3.08927  0.00000 -0.17854
      18     H     0.44180  0.44180  0.00000  0.11639
      19     H     0.44740  0.44740  0.00000  0.10521
      20     C     3.08764  3.08764  0.00000 -0.17528
      21     H     0.43874  0.43874  0.00000  0.12252
      22     H     0.45462  0.45462  0.00000  0.09076
      23     C     3.14957  3.14957  0.00000 -0.29913
      24     H     0.45295  0.45295  0.00000  0.09409
      25     H     0.45486  0.45486  0.00000  0.09027
      26     H     0.45285  0.45285  0.00000  0.09430
      27     H     0.45509  0.45509  0.00000  0.08982
      28     H     0.44800  0.44800  0.00000  0.10399

   Total alpha = 40.00000, Total beta = 40.00000, Total charge = -0.00000

*** Psi4 exiting successfully. Buy a developer a beer!
