  ==> Input File <==

--------------------------------------------------------------------------
set {
	reference rhf
	basis cc-pvtz
}

set_num_threads( 4 )
memory 2 gb

molecule MOL {
0 1

H	 -2.752176	 0.406662	 0.508569
O	 -2.041679	 -0.058866	 0.103463
C	 -0.959304	 0.780994	 -0.094939
C	 0.354905	 0.037902	 -0.006215
H	 -0.985899	 1.279578	 -1.057596
H	 -0.969809	 1.529522	 0.682889
F	 0.412060	 -0.931028	 -0.902708
F	 1.359641	 0.856111	 -0.239961
F	 0.545380	 -0.506387	 1.171682

	symmetry c1
}
set optking {
	frozen_dihedral = ("
		1 2 3 5
	")
}

ee = optimize('scf')
oeprop('DIPOLE', 'QUADRUPOLE', 'MULLIKEN_CHARGES')
f=open( 'psi4out.xyz', 'w' )
f.write( "9  " )
f.write( str(ee) + "\n" )
f.write( MOL.save_string_xyz() )
f.close()
--------------------------------------------------------------------------

    Molecular point group: c1
  Charge       = 0
  Multiplicity = 1
  Basis Set: CC-PVTZ
  Basis Set:
  @DF-RHF Final Energy:  -450.84294617414912
    Total Energy =                       -450.8429461741491195
    Molecular point group: c1
  Basis Set: CC-PVTZ
  Basis Set:
  Basis Set: CC-PVTZ
  Basis Set:
  @DF-RHF Final Energy:  -450.84421913932448
    Total Energy =                       -450.8442191393243093
  Basis Set: CC-PVTZ
  Basis Set:
  Basis Set: CC-PVTZ
  Basis Set:
  @DF-RHF Final Energy:  -450.84444080173569
    Total Energy =                       -450.8444408017359706
  Basis Set: CC-PVTZ
  Basis Set:
  Basis Set: CC-PVTZ
  Basis Set:
  @DF-RHF Final Energy:  -450.84445194841851
    Total Energy =                       -450.8444519484186799
  Basis Set: CC-PVTZ
  Basis Set:
  Charge       = 0
  Multiplicity = 1
  Basis Set: CC-PVTZ
  Basis Set:

    Orbital Energies (a.u.)
    -----------------------

    Doubly Occupied:

       1A    -26.333654     2A    -26.330424     3A    -26.329964
       4A    -20.582501     5A    -11.490324     6A    -11.310147
       7A     -1.741885     8A     -1.638129     9A     -1.636627
      10A     -1.406168    11A     -1.050632    12A     -0.923645
      13A     -0.833108    14A     -0.831499    15A     -0.789186
      16A     -0.740316    17A     -0.713777    18A     -0.703802
      19A     -0.671967    20A     -0.657517    21A     -0.642576
      22A     -0.641437    23A     -0.600329    24A     -0.532098
      25A     -0.483282

  @DF-RHF Final Energy:  -450.84445379811950

   => Energetics <=

    Nuclear Repulsion Energy =            277.7487847852091818
    One-Electron Energy =               -1177.9564884486317169
    Two-Electron Energy =                 449.3632498653031462
    DFT Exchange-Correlation Energy =       0.0000000000000000
    Empirical Dispersion Energy =           0.0000000000000000
    PCM Polarization Energy =               0.0000000000000000
    EFP Energy =                            0.0000000000000000
    Total Energy =                       -450.8444537981193889
    Molecular point group: c1
  Basis Set: CC-PVTZ
  Basis Set:

  -Total Gradient:
     Atom            X                  Y                   Z
    ------   -----------------  -----------------  -----------------
       1        0.000075992251    -0.000042171345     0.000189448951
       2        0.000017026013     0.000112474789    -0.000305598199
       3       -0.000177994707     0.000115314411     0.000199642458
       4        0.000078911202     0.000110595845     0.000137027044
       5        0.000059754717    -0.000183564900    -0.000065035703
       6       -0.000033210456    -0.000003226636     0.000002170489
       7        0.000027110765    -0.000039514555    -0.000044206920
       8       -0.000020037359    -0.000083289816    -0.000024394204
       9       -0.000027552422     0.000013382200    -0.000089053911

  **** Optimization is complete! (in 5 steps) ****
    Final optimized geometry and variables:
    Molecular point group: c1

    Geometry (in Angstrom), charge = 0, multiplicity = 1:

    H           -2.734402020559     0.353921228141     0.476341567627
    O           -1.998558706080    -0.087319834666     0.095643626654
    C           -0.945787149889     0.794834507330    -0.098805075084
    C            0.350797945314     0.023817984971    -0.023229934489
    H           -0.986115991660     1.265279778367    -1.074677650087
    H           -0.900355996472     1.565646785819     0.661003672874
    F            0.409342969217    -0.932638533578    -0.919861211401
    F            1.362367744524     0.841989413518    -0.244220440833
    F            0.531834394805    -0.521872142846     1.157315320761

  Mulliken Charges: (a.u.)
   Center  Symbol    Alpha    Beta     Spin     Total
       1     H     0.38833  0.38833  0.00000  0.22335
       2     O     4.18740  4.18740  0.00000 -0.37479
       3     C     2.98640  2.98640  0.00000  0.02719
       4     C     2.67658  2.67658  0.00000  0.64685
       5     H     0.46423  0.46423  0.00000  0.07154
       6     H     0.46450  0.46450  0.00000  0.07099
       7     F     4.60853  4.60853  0.00000 -0.21706
       8     F     4.61443  4.61443  0.00000 -0.22885
       9     F     4.60961  4.60961  0.00000 -0.21921

   Total alpha = 25.00000, Total beta = 25.00000, Total charge = -0.00000
