  ==> Input File <==

--------------------------------------------------------------------------
set {
	reference rhf
	basis cc-pvtz
}

set_num_threads( 4 )
memory 2 gb

molecule MOL {
0 1

H	 -3.642953	 0.223825	 0.000000
C	 -2.571844	 0.155001	 0.000000
C	 -1.957580	 -1.086132	 0.000000
C	 -1.807160	 1.303787	 0.000000
H	 -2.551493	 -1.979629	 0.000000
C	 -0.582719	 -1.174294	 0.000000
H	 -2.279934	 2.266806	 0.000000
C	 -0.427220	 1.213406	 0.000000
H	 -0.094904	 -2.127556	 0.000000
C	 0.196908	 -0.024061	 0.000000
H	 0.151409	 2.115254	 0.000000
C	 1.690041	 -0.173233	 0.000000
C	 2.420821	 -0.246242	 -1.321094
O	 2.291104	 -0.233283	 1.024929
H	 2.075712	 -1.091691	 -1.904272
H	 3.475718	 -0.351632	 -1.124076
H	 2.249793	 0.650771	 -1.904272

	symmetry c1
}
set optking {
	frozen_dihedral = ("
		13 12 10 8
	")
}

ee = optimize('scf')
oeprop('DIPOLE', 'QUADRUPOLE', 'MULLIKEN_CHARGES')
f=open( 'psi4out.xyz', 'w' )
f.write( "17  " )
f.write( str(ee) + "\n" )
f.write( MOL.save_string_xyz() )
f.close()
--------------------------------------------------------------------------

    Molecular point group: c1
  Charge       = 0
  Multiplicity = 1
  Basis Set: CC-PVTZ
  Basis Set:
  @DF-RHF Final Energy:  -382.59635518107189
    Total Energy =                       -382.5963551810715444
    Molecular point group: c1
  Basis Set: CC-PVTZ
  Basis Set:
  Basis Set: CC-PVTZ
  Basis Set:
  @DF-RHF Final Energy:  -382.59688266831256
    Total Energy =                       -382.5968826683127872
  Basis Set: CC-PVTZ
  Basis Set:
  Basis Set: CC-PVTZ
  Basis Set:
  @DF-RHF Final Energy:  -382.59557531475002
    Total Energy =                       -382.5955753147497944
  Basis Set: CC-PVTZ
  Basis Set:
  Basis Set: CC-PVTZ
  Basis Set:
  @DF-RHF Final Energy:  -382.59713206786779
    Total Energy =                       -382.5971320678675056
  Basis Set: CC-PVTZ
  Basis Set:
  Basis Set: CC-PVTZ
  Basis Set:
  @DF-RHF Final Energy:  -382.59714165539043
    Total Energy =                       -382.5971416553900326
  Basis Set: CC-PVTZ
  Basis Set:
  Charge       = 0
  Multiplicity = 1
  Basis Set: CC-PVTZ
  Basis Set:

    Orbital Energies (a.u.)
    -----------------------

    Doubly Occupied:

       1A    -20.548975     2A    -11.331170     3A    -11.247261
       4A    -11.241414     5A    -11.241283     6A    -11.239443
       7A    -11.239128     8A    -11.236776     9A    -11.231596
      10A     -1.408587    11A     -1.171144    12A     -1.054189
      13A     -1.029665    14A     -1.001729    15A     -0.862308
      16A     -0.841569    17A     -0.765640    18A     -0.706358
      19A     -0.667284    20A     -0.647506    21A     -0.633499
      22A     -0.623372    23A     -0.602107    24A     -0.592984
      25A     -0.565643    26A     -0.525110    27A     -0.515584
      28A     -0.513015    29A     -0.497222    30A     -0.413504
      31A     -0.348871    32A     -0.346398

  @DF-RHF Final Energy:  -382.59714249261231

   => Energetics <=

    Nuclear Repulsion Energy =            403.5125216778830008
    One-Electron Energy =               -1318.4386574211503103
    Two-Electron Energy =                 532.3289932506545483
    DFT Exchange-Correlation Energy =       0.0000000000000000
    Empirical Dispersion Energy =           0.0000000000000000
    PCM Polarization Energy =               0.0000000000000000
    EFP Energy =                            0.0000000000000000
    Total Energy =                       -382.5971424926127611
    Molecular point group: c1
  Basis Set: CC-PVTZ
  Basis Set:

  -Total Gradient:
     Atom            X                  Y                   Z
    ------   -----------------  -----------------  -----------------
       1       -0.000004260453    -0.000017301987    -0.000001403432
       2        0.000022790297     0.000176925487     0.000028577788
       3        0.000150020210    -0.000102369768    -0.000023855803
       4       -0.000178683218    -0.000079526583    -0.000015386661
       5       -0.000013023018     0.000006919751     0.000007372999
       6       -0.000165114595    -0.000090523758    -0.000014285538
       7        0.000014175978    -0.000000232353     0.000004193992
       8        0.000174703852    -0.000123496555     0.000019220652
       9        0.000002079650     0.000012855430     0.000005995402
      10       -0.000006915709     0.000210547690    -0.000055617298
      11       -0.000008969447     0.000004789617     0.000006326213
      12        0.000073023051     0.000045821203     0.000058143518
      13       -0.000027120071    -0.000055291764     0.000029066553
      14       -0.000025963624    -0.000004998373    -0.000036184206
      15       -0.000001809132     0.000002085738    -0.000002660109
      16       -0.000006863687     0.000004566836    -0.000007441778
      17        0.000001929915     0.000009229391    -0.000002062293

  **** Optimization is complete! (in 6 steps) ****
    Final optimized geometry and variables:
    Molecular point group: c1

    Geometry (in Angstrom), charge = 0, multiplicity = 1:

    H           -3.634133553429     0.275959962927     0.010211265784
    C           -2.564204248779     0.195031482218     0.016520964810
    C           -1.963383494916    -1.049561846633     0.027547650713
    C           -1.782762806380     1.334356104783     0.016708638295
    H           -2.565783313489    -1.937645079548     0.032401500334
    C           -0.585832606269    -1.154940237193     0.037054830439
    H           -2.243914515147     2.303326910378     0.013105619529
    C           -0.404529473768     1.230745243568     0.025967311838
    H           -0.124322414544    -2.124492791244     0.054504203342
    C            0.198442228980    -0.014439110733     0.038558083743
    H            0.197656352793     2.119945067954     0.034616714160
    C            1.702369751136    -0.129155256665     0.061835644118
    C            2.395669364403    -0.184132864004    -1.277000298953
    O            2.299139559551    -0.173985823342     1.085228449190
    H            2.027839210125    -1.030561796860    -1.846207866533
    H            3.462999919809    -0.265969261997    -1.137876613662
    H            2.161512303071     0.707110149657    -1.848523172843

  Mulliken Charges: (a.u.)
   Center  Symbol    Alpha    Beta     Spin     Total
       1     H     0.42168  0.42168  0.00000  0.15664
       2     C     3.08633  3.08633  0.00000 -0.17265
       3     C     3.06295  3.06295  0.00000 -0.12590
       4     C     3.06299  3.06299  0.00000 -0.12598
       5     H     0.42138  0.42138  0.00000  0.15724
       6     C     3.09867  3.09867  0.00000 -0.19735
       7     H     0.42138  0.42138  0.00000  0.15724
       8     C     3.09877  3.09877  0.00000 -0.19754
       9     H     0.42301  0.42301  0.00000  0.15399
      10     C     2.95125  2.95125  0.00000  0.09750
      11     H     0.42304  0.42304  0.00000  0.15391
      12     C     2.88244  2.88244  0.00000  0.23512
      13     C     3.14973  3.14973  0.00000 -0.29946
      14     O     4.16610  4.16610  0.00000 -0.33220
      15     H     0.44700  0.44700  0.00000  0.10599
      16     H     0.43622  0.43622  0.00000  0.12756
      17     H     0.44705  0.44705  0.00000  0.10590

   Total alpha = 32.00000, Total beta = 32.00000, Total charge = -0.00000
