  ==> Input File <==

--------------------------------------------------------------------------
set {
	reference rhf
	basis 6-31G*
}

set_num_threads( 1 )
memory 2 gb

molecule MOL {
0 1

H	 -2.792532	 0.267064	 -0.365439
O	 -2.035884	 -0.060112	 0.102722
C	 -0.955155	 0.788182	 -0.092531
C	 0.353668	 0.040312	 -0.004810
H	 -0.985057	 1.290372	 -1.054184
H	 -0.974469	 1.533190	 0.688632
F	 0.394464	 -0.937475	 -0.903053
F	 1.368604	 0.853376	 -0.249821
F	 0.546173	 -0.502608	 1.179981

	symmetry c1
}
set optking {
	frozen_dihedral = ("
		7 4 3 5
	")
}

ee = energy('scf')
oeprop('DIPOLE', 'QUADRUPOLE', 'MULLIKEN_CHARGES')
f=open( 'psi4out.xyz', 'w' )
f.write( "9  " )
f.write( str(ee) + "\n" )
f.write( MOL.save_string_xyz() )
f.close()
--------------------------------------------------------------------------

    Molecular point group: c1

    Geometry (in Angstrom), charge = 0, multiplicity = 1:

       Center              X                  Y                   Z               Mass
    ------------   -----------------  -----------------  -----------------  -----------------
           H         -2.785543089427     0.257577732278    -0.367970818765     1.007825032070
           O         -2.028895089427    -0.069598267722     0.100190181235    15.994914619560
           C         -0.948166089427     0.778695732278    -0.095062818765    12.000000000000
           C          0.360656910573     0.030825732278    -0.007341818765    12.000000000000
           H         -0.978068089427     1.280885732278    -1.056715818765     1.007825032070
           H         -0.967480089427     1.523703732278     0.686100181235     1.007825032070
           F          0.401452910573    -0.946961267722    -0.905584818765    18.998403224000
           F          1.375592910573     0.843889732278    -0.252352818765    18.998403224000
           F          0.553161910573    -0.512094267722     1.177449181235    18.998403224000

  Charge       = 0
  Multiplicity = 1
  Basis Set: 6-31G*
  Basis Set:

    Orbital Energies (a.u.)
    -----------------------

    Doubly Occupied:

       1A    -26.341165     2A    -26.334922     3A    -26.329772
       4A    -20.587840     5A    -11.498912     6A    -11.309444
       7A     -1.733656     8A     -1.634535     9A     -1.626883
      10A     -1.400875    11A     -1.047599    12A     -0.917230
      13A     -0.825708    14A     -0.822456    15A     -0.785116
      16A     -0.733995    17A     -0.706534    18A     -0.697793
      19A     -0.664013    20A     -0.651954    21A     -0.635511
      22A     -0.634940    23A     -0.596886    24A     -0.529061
      25A     -0.476113

  @DF-RHF Final Energy:  -450.65796500900024

   => Energetics <=

    Nuclear Repulsion Energy =            276.0853513783438302
    One-Electron Energy =               -1174.4407370560170421
    Two-Electron Energy =                 447.6974206686730895
    DFT Exchange-Correlation Energy =       0.0000000000000000
    Empirical Dispersion Energy =           0.0000000000000000
    PCM Polarization Energy =               0.0000000000000000
    EFP Energy =                            0.0000000000000000
    Total Energy =                       -450.6579650090001223

  Mulliken Charges: (a.u.)
   Center  Symbol    Alpha    Beta     Spin     Total
       1     H     0.27100  0.27100  0.00000  0.45800
       2     O     4.36311  4.36311  0.00000 -0.72621
       3     C     3.05360  3.05360  0.00000 -0.10720
       4     C     2.45366  2.45366  0.00000  1.09268
       5     H     0.41090  0.41090  0.00000  0.17820
       6     H     0.40864  0.40864  0.00000  0.18271
       7     F     4.68144  4.68144  0.00000 -0.36287
       8     F     4.68215  4.68215  0.00000 -0.36429
       9     F     4.67551  4.67551  0.00000 -0.35103

   Total alpha = 25.00000, Total beta = 25.00000, Total charge = -0.00000
