  ==> Input File <==

--------------------------------------------------------------------------
set {
	reference rhf
	basis cc-pvtz
}

set_num_threads( 4 )
memory 2 gb

molecule MOL {
0 1

H	 -3.357000	 0.215000	 -0.030000
C	 -2.447000	 -0.376000	 -0.044000
C	 -1.217000	 0.520000	 0.021000
H	 -2.434000	 -0.972000	 -0.949000
H	 -2.482000	 -1.055000	 0.805000
N	 -0.000000	 -0.265000	 -0.039000
H	 -1.219000	 1.198000	 -0.827000
H	 -1.265000	 1.146000	 0.918000
C	 1.217000	 0.520000	 0.021000
H	 0.000000	 -0.938000	 0.705000
C	 2.447000	 -0.376000	 -0.044000
H	 1.219000	 1.198000	 -0.827000
H	 1.265000	 1.146000	 0.918000
H	 2.434000	 -0.972000	 -0.949000
H	 3.357000	 0.215000	 -0.030000
H	 2.482000	 -1.055000	 0.805000

	symmetry c1
}
ee = optimize('scf')
oeprop('DIPOLE', 'QUADRUPOLE', 'MULLIKEN_CHARGES')
f=open( 'psi4out.xyz', 'w' )
f.write( "16  " )
f.write( str(ee) + "\n" )
f.write( MOL.save_string_xyz() )
f.close()
--------------------------------------------------------------------------

    Molecular point group: c1
  Charge       = 0
  Multiplicity = 1
  Basis Set: CC-PVTZ
  Basis Set:
  @DF-RHF Final Energy:  -212.39461481931804
    Total Energy =                       -212.3946148193182353
    Molecular point group: c1
  Basis Set: CC-PVTZ
  Basis Set:
  Basis Set: CC-PVTZ
  Basis Set:
  @DF-RHF Final Energy:  -212.39468465554430
    Total Energy =                       -212.3946846555442676
  Basis Set: CC-PVTZ
  Basis Set:
  Basis Set: CC-PVTZ
  Basis Set:
  @DF-RHF Final Energy:  -212.39468831187236
    Total Energy =                       -212.3946883118724145
  Basis Set: CC-PVTZ
  Basis Set:
  Charge       = 0
  Multiplicity = 1
  Basis Set: CC-PVTZ
  Basis Set:

    Orbital Energies (a.u.)
    -----------------------

    Doubly Occupied:

       1A    -15.528845     2A    -11.239001     3A    -11.238984
       4A    -11.206582     5A    -11.206581     6A     -1.207494
       7A     -1.029241     8A     -0.963983     9A     -0.832386
      10A     -0.822485    11A     -0.662584    12A     -0.629580
      13A     -0.599388    14A     -0.590863    15A     -0.553913
      16A     -0.521555    17A     -0.508545    18A     -0.489429
      19A     -0.482305    20A     -0.475202    21A     -0.362295

  @DF-RHF Final Energy:  -212.39468875809104

   => Energetics <=

    Nuclear Repulsion Energy =            189.4373195803270278
    One-Electron Energy =                -661.3615355588890452
    Two-Electron Energy =                 259.5295272204707544
    DFT Exchange-Correlation Energy =       0.0000000000000000
    Empirical Dispersion Energy =           0.0000000000000000
    PCM Polarization Energy =               0.0000000000000000
    EFP Energy =                            0.0000000000000000
    Total Energy =                       -212.3946887580912630
    Molecular point group: c1
  Basis Set: CC-PVTZ
  Basis Set:

  -Total Gradient:
     Atom            X                  Y                   Z
    ------   -----------------  -----------------  -----------------
       1       -0.000001830161     0.000000534096     0.000002879602
       2        0.000022397517     0.000006370423     0.000012793010
       3       -0.000016770414    -0.000047552178    -0.000050653057
       4        0.000000433716    -0.000002145036    -0.000007811040
       5       -0.000002769637     0.000012872330    -0.000012810377
       6        0.000012601700     0.000054852648     0.000000000601
       7        0.000000225640    -0.000006320593     0.000016170037
       8       -0.000005938901    -0.000000859853    -0.000001563314
       9       -0.000016770460    -0.000047551216     0.000050653294
      10       -0.000004097210     0.000019348380     0.000000000071
      11        0.000022397440     0.000006370881    -0.000012793398
      12        0.000000225815    -0.000006320465    -0.000016170169
      13       -0.000005939061    -0.000000859922     0.000001563161
      14        0.000000434569    -0.000002145579     0.000007811077
      15       -0.000001830153     0.000000534344    -0.000002879888
      16       -0.000002770399     0.000012871740     0.000012810394

  **** Optimization is complete! (in 4 steps) ****
    Final optimized geometry and variables:
    Molecular point group: c1

    Geometry (in Angstrom), charge = 0, multiplicity = 1:

    H           -0.000342118028    -0.223901874205    -3.352295393955
    C           -0.027146186275     0.371068266782    -2.446755981464
    C            0.024492374256    -0.518540296293    -1.216015258915
    H           -0.932585824606     0.964978894107    -2.449855040744
    H            0.819708139955     1.049865743340    -2.473331637370
    N           -0.042516301074     0.263377056704     0.000000000481
    H           -0.822211322320    -1.197104553415    -1.225584387487
    H            0.921114016531    -1.142846683106    -1.255206326565
    C            0.024492372903    -0.518540296733     1.216015258957
    H            0.682567582071     0.950412255639     0.000000001102
    C           -0.027146185975     0.371068266701     2.446755981100
    H           -0.822211324760    -1.197104551175     1.225584386691
    H            0.921114013386    -1.142846684854     1.255206325642
    H           -0.932585823065     0.964978893928     2.449855040961
    H           -0.000342116931    -0.223901872917     3.352295393257
    H            0.819708139703     1.049865742415     2.473331635605

  Mulliken Charges: (a.u.)
   Center  Symbol    Alpha    Beta     Spin     Total
       1     H     0.45387  0.45387  0.00000  0.09227
       2     C     3.14202  3.14202  0.00000 -0.28404
       3     C     3.02192  3.02192  0.00000 -0.04384
       4     H     0.44950  0.44950  0.00000  0.10099
       5     H     0.45949  0.45949  0.00000  0.08102
       6     N     3.63614  3.63614  0.00000 -0.27227
       7     H     0.45856  0.45856  0.00000  0.08289
       8     H     0.47405  0.47405  0.00000  0.05189
       9     C     3.02192  3.02192  0.00000 -0.04384
      10     H     0.44505  0.44505  0.00000  0.10991
      11     C     3.14202  3.14202  0.00000 -0.28404
      12     H     0.45856  0.45856  0.00000  0.08289
      13     H     0.47405  0.47405  0.00000  0.05189
      14     H     0.44950  0.44950  0.00000  0.10099
      15     H     0.45387  0.45387  0.00000  0.09227
      16     H     0.45949  0.45949  0.00000  0.08102

   Total alpha = 21.00000, Total beta = 21.00000, Total charge =  0.00000
