  ==> Input File <==

--------------------------------------------------------------------------
set {
	reference rhf
	basis 6-31G*
}

set_num_threads( 4 )
memory 2 gb

molecule MOL {
0 1

H	 -2.172150	 0.880146	 0.502514
C	 -2.018062	 -0.000025	 -0.114509
O	 -0.774054	 0.001095	 -0.743181
H	 -2.760490	 0.003458	 -0.901350
H	 -2.173624	 -0.884374	 0.496163
C	 -0.664056	 0.457856	 -2.079519
C	 0.823408	 0.308089	 -2.391018
C	 -1.487660	 -0.415401	 -3.031510
C	 -1.076998	 1.928511	 -2.196864
H	 1.124967	 -0.727672	 -2.282878
H	 1.411005	 0.903432	 -1.701329
H	 1.045212	 0.630147	 -3.403314
H	 -1.239437	 -1.462054	 -2.890331
H	 -1.276269	 -0.150559	 -4.062420
H	 -2.554603	 -0.294138	 -2.878267
H	 -0.540047	 2.528498	 -1.469711
H	 -0.846123	 2.305844	 -3.187747
H	 -2.140571	 2.068977	 -2.036507

	symmetry c1
}
set optking {
	frozen_dihedral = ("
		6 3 2 5
	")
}

ee = optimize('scf')
oeprop('DIPOLE', 'QUADRUPOLE', 'MULLIKEN_CHARGES')
f=open( 'psi4out.xyz', 'w' )
f.write( "18  " )
f.write( str(ee) + "\n" )
f.write( MOL.save_string_xyz() )
f.close()
--------------------------------------------------------------------------

    Molecular point group: c1
  Charge       = 0
  Multiplicity = 1
  Basis Set: 6-31G*
  Basis Set:
  @DF-RHF Final Energy:  -271.17106916973279
    Total Energy =                       -271.1710691697330731
    Molecular point group: c1
  Basis Set: 6-31G*
  Basis Set:
  Basis Set: 6-31G*
  Basis Set:
  @DF-RHF Final Energy:  -271.17264349182500
    Total Energy =                       -271.1726434918249993
  Basis Set: 6-31G*
  Basis Set:
  Basis Set: 6-31G*
  Basis Set:
  @DF-RHF Final Energy:  -271.17372656876307
    Total Energy =                       -271.1737265687631293
  Basis Set: 6-31G*
  Basis Set:
  Basis Set: 6-31G*
  Basis Set:
  @DF-RHF Final Energy:  -271.17358907660559
    Total Energy =                       -271.1735890766053103
  Basis Set: 6-31G*
  Basis Set:
  @DF-RHF Final Energy:  -271.17382843641821
    Total Energy =                       -271.1738284364180345
  Basis Set: 6-31G*
  Basis Set:
  @DF-RHF Final Energy:  -271.17385208593282
    Total Energy =                       -271.1738520859326513
  Basis Set: 6-31G*
  Basis Set:
  Basis Set: 6-31G*
  Basis Set:
  @DF-RHF Final Energy:  -271.17384990972300
    Total Energy =                       -271.1738499097232875
  Basis Set: 6-31G*
  Basis Set:
  Basis Set: 6-31G*
  Basis Set:
  @DF-RHF Final Energy:  -271.17385296570188
    Total Energy =                       -271.1738529657018262
  Basis Set: 6-31G*
  Basis Set:
  Charge       = 0
  Multiplicity = 1
  Basis Set: 6-31G*
  Basis Set:

    Orbital Energies (a.u.)
    -----------------------

    Doubly Occupied:

       1A    -20.544887     2A    -11.281807     3A    -11.260961
       4A    -11.209221     5A    -11.208124     6A    -11.203227
       7A     -1.368302     8A     -1.072589     9A     -0.945817
      10A     -0.939815    11A     -0.912721    12A     -0.752631
      13A     -0.654900    14A     -0.643979    15A     -0.638201
      16A     -0.590819    17A     -0.571237    18A     -0.551835
      19A     -0.537996    20A     -0.523788    21A     -0.514927
      22A     -0.489611    23A     -0.487139    24A     -0.437851
      25A     -0.401848

  @DF-RHF Final Energy:  -271.17385297062225

   => Energetics <=

    Nuclear Repulsion Energy =            272.2145477934270161
    One-Electron Energy =                -907.2883329981095812
    Two-Electron Energy =                 363.8999322340603157
    DFT Exchange-Correlation Energy =       0.0000000000000000
    Empirical Dispersion Energy =           0.0000000000000000
    PCM Polarization Energy =               0.0000000000000000
    EFP Energy =                            0.0000000000000000
    Total Energy =                       -271.1738529706221925
    Molecular point group: c1
  Basis Set: 6-31G*
  Basis Set:

  -Total Gradient:
     Atom            X                  Y                   Z
    ------   -----------------  -----------------  -----------------
       1       -0.000007161254     0.000001455607     0.000005781375
       2        0.000842218841     0.000264099254     0.001568527327
       3        0.000401917008     0.001991081998     0.000486489963
       4        0.000005718406    -0.000000329132     0.000007342856
       5       -0.000844563715    -0.000801736300    -0.001495816260
       6       -0.000397673642    -0.001450571996    -0.000549796603
       7       -0.000011108421    -0.000002303662     0.000010041353
       8       -0.000009904073    -0.000002670720    -0.000017857008
       9        0.000013938113     0.000005857297    -0.000006659982
      10        0.000000244887    -0.000004206706    -0.000000941104
      11       -0.000001084104    -0.000000983907     0.000002070049
      12       -0.000003040581     0.000000667780     0.000004876633
      13        0.000018537859     0.000003409832    -0.000006671292
      14       -0.000011685634     0.000004976994    -0.000000395625
      15       -0.000001990878    -0.000009282659    -0.000003882262
      16        0.000003708266     0.000002019904    -0.000001022693
      17       -0.000003488453     0.000004227585    -0.000005315584
      18        0.000005417375    -0.000005711168     0.000003228857

  **** Optimization is complete! (in 9 steps) ****
    Final optimized geometry and variables:
    Molecular point group: c1

    Geometry (in Angstrom), charge = 0, multiplicity = 1:

    H           -1.174990711414     0.519454434344     2.316189021819
    C           -1.148537154219    -0.326512874105     1.635851500898
    O            0.086004254205    -0.404851512326     0.987086496886
    H           -1.982743423949    -0.237050749924     0.950008889979
    H           -1.287572456109    -1.239516999222     2.202076731117
    C            0.219904620221     0.071628152311    -0.339703366953
    C            1.713452822044    -0.062021002203    -0.627458726397
    C           -0.576580251805    -0.802489768018    -1.313767378756
    C           -0.203331172874     1.540194096047    -0.442437896878
    H            2.023162749407    -1.095404513858    -0.520231725835
    H            2.284467737405     0.535181402510     0.074337453593
    H            1.947837247174     0.267261372432    -1.634692660213
    H           -0.291230651443    -1.842473102866    -1.198150287363
    H           -0.379036628608    -0.504941005849    -2.338659414043
    H           -1.646649714244    -0.725054055502    -1.154696390413
    H            0.344214648722     2.139254297096     0.277554405394
    H            0.003230566501     1.927124702799    -1.435060879702
    H           -1.264088284575     1.671074623598    -0.255589028835

  Mulliken Charges: (a.u.)
   Center  Symbol    Alpha    Beta     Spin     Total
       1     H     0.42455  0.42455  0.00000  0.15090
       2     C     3.07717  3.07717  0.00000 -0.15434
       3     O     4.32119  4.32119  0.00000 -0.64239
       4     H     0.43041  0.43041  0.00000  0.13919
       5     H     0.41658  0.41658  0.00000  0.16685
       6     C     2.84413  2.84413  0.00000  0.31173
       7     C     3.23302  3.23302  0.00000 -0.46605
       8     C     3.24384  3.24384  0.00000 -0.48769
       9     C     3.24681  3.24681  0.00000 -0.49362
      10     H     0.41383  0.41383  0.00000  0.17234
      11     H     0.41443  0.41443  0.00000  0.17115
      12     H     0.42509  0.42509  0.00000  0.14982
      13     H     0.41341  0.41341  0.00000  0.17319
      14     H     0.42087  0.42087  0.00000  0.15825
      15     H     0.42088  0.42088  0.00000  0.15823
      16     H     0.41368  0.41368  0.00000  0.17263
      17     H     0.41946  0.41946  0.00000  0.16108
      18     H     0.42064  0.42064  0.00000  0.15872

   Total alpha = 25.00000, Total beta = 25.00000, Total charge = -0.00000
