  ==> Input File <==

--------------------------------------------------------------------------
set {
	reference rhf
	basis 6-31G*
}

set_num_threads( 4 )
memory 2 gb

molecule MOL {
0 1

H	 -1.836216	 1.387520	 -0.000064
C	 -1.301823	 0.443321	 -0.000031
O	 -0.003969	 0.658512	 0.000451
O	 -1.829879	 -0.616434	 -0.000857
C	 0.850537	 -0.484732	 0.000380
C	 0.703047	 -1.161834	 1.345780
H	 1.866731	 -0.160354	 -0.176947
H	 0.560742	 -1.137059	 -0.811891
H	 0.989963	 -0.491204	 2.147632
H	 1.339362	 -2.039660	 1.387707
H	 -0.322311	 -1.472699	 1.509770

	symmetry c1
}
set optking {
	frozen_dihedral = ("
		7 5 3 2
	")
}

ee = optimize('scf')
oeprop('DIPOLE', 'QUADRUPOLE', 'MULLIKEN_CHARGES')
f=open( 'psi4out.xyz', 'w' )
f.write( "11  " )
f.write( str(ee) + "\n" )
f.write( MOL.save_string_xyz() )
f.close()
--------------------------------------------------------------------------

    Molecular point group: c1
  Charge       = 0
  Multiplicity = 1
  Basis Set: 6-31G*
  Basis Set:
  @DF-RHF Final Energy:  -266.82406799878322
    Total Energy =                       -266.8240679987831072
    Molecular point group: c1
  Basis Set: 6-31G*
  Basis Set:
  Basis Set: 6-31G*
  Basis Set:
  @DF-RHF Final Energy:  -266.82715766576922
    Total Energy =                       -266.8271576657691071
  Basis Set: 6-31G*
  Basis Set:
  Basis Set: 6-31G*
  Basis Set:
  @DF-RHF Final Energy:  -266.82755069520294
    Total Energy =                       -266.8275506952029446
  Basis Set: 6-31G*
  Basis Set:
  Basis Set: 6-31G*
  Basis Set:
  @DF-RHF Final Energy:  -266.82679725216332
    Total Energy =                       -266.8267972521633737
  Basis Set: 6-31G*
  Basis Set:
  Basis Set: 6-31G*
  Basis Set:
  @DF-RHF Final Energy:  -266.82756916942128
    Total Energy =                       -266.8275691694212810
  Basis Set: 6-31G*
  Basis Set:
  Basis Set: 6-31G*
  Basis Set:
  @DF-RHF Final Energy:  -266.82757019048449
    Total Energy =                       -266.8275701904845505
  Basis Set: 6-31G*
  Basis Set:
  Charge       = 0
  Multiplicity = 1
  Basis Set: 6-31G*
  Basis Set:

    Orbital Energies (a.u.)
    -----------------------

    Doubly Occupied:

       1A    -20.612769     2A    -20.557145     3A    -11.379319
       4A    -11.293013     5A    -11.221595     6A     -1.475454
       7A     -1.374271     8A     -1.047855     9A     -0.913109
      10A     -0.795931    11A     -0.742377    12A     -0.683506
      13A     -0.654066    14A     -0.625555    15A     -0.575457
      16A     -0.541646    17A     -0.532902    18A     -0.502683
      19A     -0.458666    20A     -0.451780

  @DF-RHF Final Energy:  -266.82757021569023

   => Energetics <=

    Nuclear Repulsion Energy =            182.6898977053866986
    One-Electron Energy =                -726.1567396907748844
    Two-Electron Energy =                 276.6392717696978707
    DFT Exchange-Correlation Energy =       0.0000000000000000
    Empirical Dispersion Energy =           0.0000000000000000
    PCM Polarization Energy =               0.0000000000000000
    EFP Energy =                            0.0000000000000000
    Total Energy =                       -266.8275702156903435
    Molecular point group: c1
  Basis Set: 6-31G*
  Basis Set:

  -Total Gradient:
     Atom            X                  Y                   Z
    ------   -----------------  -----------------  -----------------
       1        0.000001263887    -0.000002258287     0.000000033404
       2       -0.000041108558     0.000071171575     0.002579762885
       3        0.000142535488    -0.000040206779    -0.003222253338
       4       -0.000008486880     0.000000211135     0.000000005559
       5       -0.000364320071    -0.000429847938    -0.002115402687
       6       -0.000044405203    -0.000027897140     0.000000790458
       7        0.000323138474     0.000403014847     0.002747178876
       8       -0.000008704861     0.000015759513     0.000001009257
       9        0.000001277549     0.000004504579     0.000001829686
      10       -0.000005649942     0.000006056126     0.000000974922
      11        0.000004460122    -0.000000507632     0.000006070977

  **** Optimization is complete! (in 7 steps) ****
    Final optimized geometry and variables:
    Molecular point group: c1

    Geometry (in Angstrom), charge = 0, multiplicity = 1:

    H           -1.469509350145     1.694453749012    -0.298591887225
    C           -0.983940580412     0.724225993544    -0.301391583654
    O            0.322330281003     0.877861078038    -0.279217176142
    O           -1.568737923672    -0.305272718619    -0.334035591163
    C            1.149200327716    -0.286655128051    -0.226995126017
    C            1.091583063132    -0.979867367969     1.123657040991
    H            2.144257883007     0.094762825950    -0.400248601321
    H            0.870547830378    -0.953670260059    -1.030075511205
    H            1.339175256842    -0.282138866235     1.916571457171
    H            1.818811187899    -1.785739879337     1.143032031825
    H            0.113098950735    -1.398028799693     1.314297098946

  Mulliken Charges: (a.u.)
   Center  Symbol    Alpha    Beta     Spin     Total
       1     H     0.41076  0.41076  0.00000  0.17849
       2     C     2.72672  2.72672  0.00000  0.54655
       3     O     4.29251  4.29251  0.00000 -0.58502
       4     O     4.26446  4.26446  0.00000 -0.52891
       5     C     3.00649  3.00649  0.00000 -0.01297
       6     C     3.26020  3.26020  0.00000 -0.52039
       7     H     0.40726  0.40726  0.00000  0.18548
       8     H     0.40523  0.40523  0.00000  0.18954
       9     H     0.41358  0.41358  0.00000  0.17285
      10     H     0.41627  0.41627  0.00000  0.16746
      11     H     0.39654  0.39654  0.00000  0.20693

   Total alpha = 20.00000, Total beta = 20.00000, Total charge = -0.00000
