  ==> Input File <==

--------------------------------------------------------------------------
set {
	reference rhf
	basis 6-31G*
}

set_num_threads( 4 )
memory 2 gb

molecule MOL {
0 1

H	 -3.261111	 -0.295142	 1.469456
C	 -3.306842	 -0.277400	 0.373456
C	 -2.660244	 0.921717	 -0.272021
O	 -3.838538	 -1.161155	 -0.216482
C	 -1.220012	 1.144545	 0.209990
H	 -2.705793	 0.797307	 -1.347733
H	 -3.263782	 1.790044	 -0.010477
C	 -0.252658	 0.041456	 -0.226725
H	 -0.873521	 2.100229	 -0.171974
H	 -1.211708	 1.231594	 1.295398
C	 1.180775	 0.282413	 0.250794
H	 -0.266029	 -0.034465	 -1.312038
H	 -0.597733	 -0.921000	 0.146291
C	 2.148627	 -0.814315	 -0.201312
H	 1.516199	 1.249228	 -0.115937
H	 1.192670	 0.346017	 1.338083
C	 3.580890	 -0.659131	 0.322722
H	 2.166869	 -0.852443	 -1.289387
H	 1.762857	 -1.776509	 0.128956
C	 3.694875	 0.099387	 1.646081
H	 4.166507	 -0.136356	 -0.429413
H	 4.033938	 -1.642633	 0.429459
H	 3.235118	 1.081555	 1.573711
H	 3.214924	 -0.431369	 2.461507
H	 4.735954	 0.242043	 1.919574

	symmetry c1
}
set optking {
	frozen_dihedral = ("
		20 17 14 18
	")
}

ee = optimize('scf')
oeprop('DIPOLE', 'QUADRUPOLE', 'MULLIKEN_CHARGES')
f=open( 'psi4out.xyz', 'w' )
f.write( "25  " )
f.write( str(ee) + "\n" )
f.write( MOL.save_string_xyz() )
f.close()
--------------------------------------------------------------------------

    Molecular point group: c1
  Charge       = 0
  Multiplicity = 1
  Basis Set: 6-31G*
  Basis Set:
  @DF-RHF Final Energy:  -387.11555818427570
    Total Energy =                       -387.1155581842756419
    Molecular point group: c1
  Basis Set: 6-31G*
  Basis Set:
  Basis Set: 6-31G*
  Basis Set:
  @DF-RHF Final Energy:  -387.11624720423447
    Total Energy =                       -387.1162472042350373
  Basis Set: 6-31G*
  Basis Set:
  Basis Set: 6-31G*
  Basis Set:
  @DF-RHF Final Energy:  -387.11651977669806
    Total Energy =                       -387.1165197766987376
  Basis Set: 6-31G*
  Basis Set:
  Basis Set: 6-31G*
  Basis Set:
  @DF-RHF Final Energy:  -387.11728455032221
    Total Energy =                       -387.1172845503224380
  Basis Set: 6-31G*
  Basis Set:
  @DF-RHF Final Energy:  -387.11740661511260
    Total Energy =                       -387.1174066151125999
  Basis Set: 6-31G*
  Basis Set:
  @DF-RHF Final Energy:  -387.11741772076181
    Total Energy =                       -387.1174177207612956
  Basis Set: 6-31G*
  Basis Set:
  Basis Set: 6-31G*
  Basis Set:
  @DF-RHF Final Energy:  -387.11742313818741
    Total Energy =                       -387.1174231381879736
  Basis Set: 6-31G*
  Basis Set:
  Basis Set: 6-31G*
  Basis Set:
  @DF-RHF Final Energy:  -387.11742420551673
    Total Energy =                       -387.1174242055166133
  Basis Set: 6-31G*
  Basis Set:
  Charge       = 0
  Multiplicity = 1
  Basis Set: 6-31G*
  Basis Set:

    Orbital Energies (a.u.)
    -----------------------

    Doubly Occupied:

       1A    -20.561971     2A    -11.326128     3A    -11.235276
       4A    -11.234615     5A    -11.223781     6A    -11.219659
       7A    -11.218325     8A    -11.217342     9A    -11.210870
      10A     -1.401912    11A     -1.103616    12A     -1.068093
      13A     -1.012372    14A     -0.942105    15A     -0.877883
      16A     -0.822629    17A     -0.787870    18A     -0.775103
      19A     -0.664452    20A     -0.663810    21A     -0.636826
      22A     -0.621324    23A     -0.607917    24A     -0.587350
      25A     -0.569259    26A     -0.560369    27A     -0.529289
      28A     -0.523246    29A     -0.515238    30A     -0.495414
      31A     -0.491234    32A     -0.480117    33A     -0.460296
      34A     -0.455092    35A     -0.441916    36A     -0.409496

  @DF-RHF Final Energy:  -387.11742422993774

   => Energetics <=

    Nuclear Repulsion Energy =            440.3653992363035172
    One-Electron Energy =               -1397.0612548476649408
    Two-Electron Energy =                 569.5784313814242523
    DFT Exchange-Correlation Energy =       0.0000000000000000
    Empirical Dispersion Energy =           0.0000000000000000
    PCM Polarization Energy =               0.0000000000000000
    EFP Energy =                            0.0000000000000000
    Total Energy =                       -387.1174242299371144
    Molecular point group: c1
  Basis Set: 6-31G*
  Basis Set:

  -Total Gradient:
     Atom            X                  Y                   Z
    ------   -----------------  -----------------  -----------------
       1        0.000000755225     0.000001635181    -0.000000325086
       2        0.000000625859    -0.000000739403    -0.000003986626
       3       -0.000010358986     0.000003259149    -0.000002247685
       4        0.000003383227    -0.000003037311     0.000000325098
       5        0.000006381868     0.000001990947    -0.000009997122
       6       -0.000001998829     0.000000990045     0.000000244054
       7        0.000000639515    -0.000001281078     0.000002451028
       8       -0.000007965283    -0.000006507661     0.000016006194
       9        0.000003715583    -0.000001003883     0.000001736753
      10        0.000000721523     0.000000677347     0.000000269789
      11        0.000005599704     0.000004508454    -0.000013720740
      12       -0.000000463289     0.000003140636     0.000004081750
      13       -0.000002790335    -0.000001390513    -0.000001183832
      14        0.001008036253    -0.005643341963    -0.000786267753
      15       -0.000000969765     0.000001006800     0.000003178682
      16        0.000001858003    -0.000003480424     0.000003519709
      17       -0.000318311998    -0.004396216004     0.003362450830
      18       -0.000792193979     0.006066403744    -0.000206314119
      19        0.000002466428    -0.000000123000    -0.000006132673
      20        0.000101323835     0.003971538480    -0.002362390455
      21       -0.000006185517     0.000001125113    -0.000000359817
      22        0.000006656554    -0.000000114329    -0.000002941232
      23        0.000003535697     0.000000432384     0.000001003623
      24       -0.000004296461     0.000001701269    -0.000001734372
      25       -0.000000164819    -0.000001173978     0.000002334004

  **** Optimization is complete! (in 9 steps) ****
    Final optimized geometry and variables:
    Molecular point group: c1

    Geometry (in Angstrom), charge = 0, multiplicity = 1:

    H           -3.271480351054    -0.261399990425     1.172329187146
    C           -3.271253109062    -0.222235691462     0.075836924496
    C           -2.592539918768     0.985626257018    -0.518460501693
    O           -3.787395144646    -1.088643817942    -0.552481706871
    C           -1.170130776252     1.187230547117     0.022611575277
    H           -2.597721452754     0.884257567355    -1.597588627917
    H           -3.199832854226     1.852641787347    -0.261593179900
    C           -0.193111579648     0.088393629016    -0.403485709920
    H           -0.803713122048     2.149685156323    -0.322549349782
    H           -1.202615171372     1.248087281663     1.109153130090
    C            1.224879529998     0.314255501249     0.125229114587
    H           -0.172556894593     0.033409143707    -1.489892525762
    H           -0.553705632726    -0.879708351326    -0.060252805788
    C            2.191978452996    -0.794274353675    -0.308319246139
    H            1.588508601564     1.276369280493    -0.231966933708
    H            1.191702065559     0.382382150345     1.209281946065
    C            3.667384527308    -0.589572099367     0.100114721902
    H            2.144894601329    -0.837129380618    -1.393452987644
    H            1.827775842200    -1.745353103466     0.071204987101
    C            3.911796291526     0.178056158475     1.401619109065
    H            4.174826505521    -0.050953134731    -0.697002247831
    H            4.153289830589    -1.559249616018     0.157159241056
    H            3.547675148123     1.197462664833     1.342545962093
    H            3.429352544477    -0.298686274262     2.250758306562
    H            4.975431722331     0.222905055626     1.614533064867

  Mulliken Charges: (a.u.)
   Center  Symbol    Alpha    Beta     Spin     Total
       1     H     0.43263  0.43263  0.00000  0.13474
       2     C     2.83082  2.83082  0.00000  0.33837
       3     C     3.20816  3.20816  0.00000 -0.41632
       4     O     4.23777  4.23777  0.00000 -0.47553
       5     C     3.16640  3.16640  0.00000 -0.33279
       6     H     0.39973  0.39973  0.00000  0.20054
       7     H     0.40664  0.40664  0.00000  0.18673
       8     C     3.15469  3.15469  0.00000 -0.30938
       9     H     0.41295  0.41295  0.00000  0.17410
      10     H     0.41964  0.41964  0.00000  0.16071
      11     C     3.15626  3.15626  0.00000 -0.31253
      12     H     0.41834  0.41834  0.00000  0.16332
      13     H     0.41852  0.41852  0.00000  0.16297
      14     C     3.15375  3.15375  0.00000 -0.30751
      15     H     0.42329  0.42329  0.00000  0.15341
      16     H     0.42062  0.42062  0.00000  0.15875
      17     C     3.15335  3.15335  0.00000 -0.30671
      18     H     0.42068  0.42068  0.00000  0.15864
      19     H     0.42086  0.42086  0.00000  0.15829
      20     C     3.24280  3.24280  0.00000 -0.48560
      21     H     0.42237  0.42237  0.00000  0.15527
      22     H     0.41919  0.41919  0.00000  0.16162
      23     H     0.41973  0.41973  0.00000  0.16053
      24     H     0.42222  0.42222  0.00000  0.15556
      25     H     0.41860  0.41860  0.00000  0.16281

   Total alpha = 36.00000, Total beta = 36.00000, Total charge = -0.00000
