  ==> Input File <==

--------------------------------------------------------------------------
set {
	reference rhf
	basis cc-pvtz
}

set_num_threads( 4 )
memory 2 gb

molecule MOL {
0 1

H	 1.227733	 -2.309373	 -0.746559
C	 0.500940	 -2.574540	 0.032615
C	 -0.788593	 -1.802360	 -0.007909
O	 0.763043	 -3.411247	 0.825620
C	 -0.554654	 -0.292621	 0.086567
H	 -1.424119	 -2.153737	 0.794261
H	 -1.276804	 -2.033496	 -0.952422
C	 -1.846385	 0.513195	 -0.016346
H	 -0.061927	 -0.066023	 1.027743
H	 0.126695	 0.019399	 -0.700885
C	 -3.089953	 -0.365049	 -0.098564
H	 -1.798267	 1.154820	 -0.891143
H	 -1.925398	 1.173265	 0.842889
H	 -3.055079	 -1.012299	 -0.968245
H	 -3.988403	 0.236438	 -0.170014
H	 -3.183055	 -0.995885	 0.779079

	symmetry c1
}
set optking {
	frozen_dihedral = ("
		9 5 8 12
	")
}

ee = optimize('scf')
oeprop('DIPOLE', 'QUADRUPOLE', 'MULLIKEN_CHARGES')
f=open( 'psi4out.xyz', 'w' )
f.write( "16  " )
f.write( str(ee) + "\n" )
f.write( MOL.save_string_xyz() )
f.close()
--------------------------------------------------------------------------

    Molecular point group: c1
  Charge       = 0
  Multiplicity = 1
  Basis Set: CC-PVTZ
  Basis Set:
  @DF-RHF Final Energy:  -270.10494955648187
    Total Energy =                       -270.1049495564819836
    Molecular point group: c1
  Basis Set: CC-PVTZ
  Basis Set:
  Basis Set: CC-PVTZ
  Basis Set:
  @DF-RHF Final Energy:  -270.10548015004349
    Total Energy =                       -270.1054801500433769
  Basis Set: CC-PVTZ
  Basis Set:
  Basis Set: CC-PVTZ
  Basis Set:
  @DF-RHF Final Energy:  -270.10891117159923
    Total Energy =                       -270.1089111715988338
  Basis Set: CC-PVTZ
  Basis Set:
  Basis Set: CC-PVTZ
  Basis Set:
  @DF-RHF Final Energy:  -270.10921408847071
    Total Energy =                       -270.1092140884707078
  Basis Set: CC-PVTZ
  Basis Set:
  @DF-RHF Final Energy:  -270.10932250583301
    Total Energy =                       -270.1093225058331200
  @DF-RHF Final Energy:  -270.10945233798816
    Total Energy =                       -270.1094523379880457
  Basis Set: CC-PVTZ
  Basis Set:
  @DF-RHF Final Energy:  -270.10939986852986
    Total Energy =                       -270.1093998685298629
  Basis Set: CC-PVTZ
  Basis Set:
  Basis Set: CC-PVTZ
  Basis Set:
  @DF-RHF Final Energy:  -270.10945801878637
    Total Energy =                       -270.1094580187863698
  Basis Set: CC-PVTZ
  Basis Set:
  Basis Set: CC-PVTZ
  Basis Set:
  @DF-RHF Final Energy:  -270.10946572604553
    Total Energy =                       -270.1094657260455278
  Basis Set: CC-PVTZ
  Basis Set:
  Charge       = 0
  Multiplicity = 1
  Basis Set: CC-PVTZ
  Basis Set:

    Orbital Energies (a.u.)
    -----------------------

    Doubly Occupied:

       1A    -20.551816     2A    -11.320916     3A    -11.234982
       4A    -11.233583     5A    -11.227890     6A    -11.217203
       7A     -1.406595     8A     -1.093449     9A     -1.015990
      10A     -0.916538    11A     -0.811438    12A     -0.785698
      13A     -0.680780    14A     -0.647142    15A     -0.640200
      16A     -0.590363    17A     -0.578636    18A     -0.565132
      19A     -0.536811    20A     -0.518622    21A     -0.486821
      22A     -0.477731    23A     -0.463602    24A     -0.411980

  @DF-RHF Final Energy:  -270.10946611298442

   => Energetics <=

    Nuclear Repulsion Energy =            232.5028671086944883
    One-Electron Energy =                -826.3968313211305485
    Two-Electron Energy =                 323.7844980994516391
    DFT Exchange-Correlation Energy =       0.0000000000000000
    Empirical Dispersion Energy =           0.0000000000000000
    PCM Polarization Energy =               0.0000000000000000
    EFP Energy =                            0.0000000000000000
    Total Energy =                       -270.1094661129843644
    Molecular point group: c1
  Basis Set: CC-PVTZ
  Basis Set:

  -Total Gradient:
     Atom            X                  Y                   Z
    ------   -----------------  -----------------  -----------------
       1        0.000007139336     0.000018126484     0.000017033707
       2       -0.000015017349    -0.000049367924    -0.000014934423
       3        0.000021503044     0.000093873812     0.000035147432
       4        0.000000568083    -0.000006633525    -0.000009669006
       5       -0.001324584594    -0.001764344708     0.001537605359
       6       -0.000011540293    -0.000008821529    -0.000001561743
       7        0.000004572970    -0.000026811533    -0.000003653415
       8       -0.000900091985    -0.001691158221    -0.001829729300
       9        0.001226362140     0.001736211901    -0.001029888067
      10        0.000004200292     0.000011515068    -0.000001722391
      11       -0.000003589759     0.000000843385    -0.000018789648
      12        0.000984935084     0.001689377022     0.001303542396
      13        0.000005896981     0.000013170916     0.000003183659
      14       -0.000015888912     0.000007776786     0.000007547651
      15       -0.000000804924    -0.000004121142     0.000005875657
      16        0.000016339889    -0.000019636791     0.000000012133

  **** Optimization is complete! (in 10 steps) ****
    Final optimized geometry and variables:
    Molecular point group: c1

    Geometry (in Angstrom), charge = 0, multiplicity = 1:

    H            2.148284231042    -0.911942114193    -0.865824861419
    C            1.425319881403    -1.224575745088    -0.100835406579
    C            0.085816938048    -0.544170563929    -0.170815220677
    O            1.727859848929    -2.038943581609     0.701015444480
    C            0.239606404963     0.975796074194    -0.049234759816
    H           -0.541717998110    -0.954761977520     0.606945491939
    H           -0.352443096601    -0.798733949187    -1.132231272919
    C           -1.055384630462     1.820180957394    -0.180100923325
    H            0.718344201437     1.201908263616     0.897047780416
    H            0.942213871596     1.304986045660    -0.808503238604
    C           -2.381748134351     1.065206952999    -0.229450288503
    H           -0.975382767802     2.450731143921    -1.058371352534
    H           -1.093293368734     2.507649702881     0.657437705864
    H           -2.446629490382     0.405641186831    -1.086405258584
    H           -3.201777232351     1.770003336151    -0.300342057265
    H           -2.540436678083     0.469735692568     0.661806692248

  Mulliken Charges: (a.u.)
   Center  Symbol    Alpha    Beta     Spin     Total
       1     H     0.46544  0.46544  0.00000  0.06911
       2     C     2.91153  2.91153  0.00000  0.17694
       3     C     3.07741  3.07741  0.00000 -0.15481
       4     O     4.16380  4.16380  0.00000 -0.32760
       5     C     3.11185  3.11185  0.00000 -0.22369
       6     H     0.44104  0.44104  0.00000  0.11791
       7     H     0.44894  0.44894  0.00000  0.10212
       8     C     3.08775  3.08775  0.00000 -0.17549
       9     H     0.44258  0.44258  0.00000  0.11484
      10     H     0.44898  0.44898  0.00000  0.10204
      11     C     3.15596  3.15596  0.00000 -0.31192
      12     H     0.44961  0.44961  0.00000  0.10079
      13     H     0.44869  0.44869  0.00000  0.10263
      14     H     0.45362  0.45362  0.00000  0.09277
      15     H     0.44246  0.44246  0.00000  0.11507
      16     H     0.45036  0.45036  0.00000  0.09929

   Total alpha = 24.00000, Total beta = 24.00000, Total charge =  0.00000
