  ==> Input File <==

--------------------------------------------------------------------------
set {
	reference rhf
	basis 6-31G*
}

set_num_threads( 1 )
memory 2 gb

molecule MOL {
0 1

O	 -2.821601	 1.309235	 -0.001213
C	 -2.668563	 0.129746	 -0.000350
C	 -3.801572	 -0.864014	 -0.000442
O	 -1.481751	 -0.454642	 0.000584
H	 -4.417280	 -0.689587	 -0.874708
H	 -3.443784	 -1.883046	 -0.000565
H	 -4.417179	 -0.689832	 0.873954
C	 -0.334255	 0.388708	 0.000906
C	 0.891947	 -0.504646	 0.000751
H	 -0.365390	 1.025305	 -0.873475
H	 -0.365484	 1.024911	 0.875569
C	 2.191998	 0.301789	 0.000897
H	 0.855148	 -1.151283	 -0.871571
H	 0.855132	 -1.151660	 0.872805
C	 3.441114	 -0.581407	 0.000108
H	 2.215074	 0.954890	 -0.869742
H	 2.215465	 0.953923	 0.872248
C	 3.843495	 -1.041979	 -1.400188
H	 3.266895	 -1.450599	 0.630369
H	 4.266623	 -0.036513	 0.452541
H	 3.050149	 -1.619359	 -1.866288
H	 4.731233	 -1.665779	 -1.368088
H	 4.057715	 -0.194690	 -2.045340

	symmetry c1
}
set optking {
	frozen_dihedral = ("
		13 9 8 10,
		2 4 8 10,
		16 12 9 13,
		1 2 4 8
	")
}

ee = energy('scf')
oeprop('DIPOLE', 'QUADRUPOLE', 'MULLIKEN_CHARGES')
f=open( 'psi4out.xyz', 'w' )
f.write( "23  " )
f.write( str(ee) + "\n" )
f.write( MOL.save_string_xyz() )
f.close()
--------------------------------------------------------------------------

    Molecular point group: c1

    Geometry (in Angstrom), charge = 0, multiplicity = 1:

       Center              X                  Y                   Z               Mass
    ------------   -----------------  -----------------  -----------------  -----------------
           O         -2.718144579465     1.455409788904     0.160317152282    15.994914619560
           C         -2.565106579465     0.275920788904     0.161180152282    12.000000000000
           C         -3.698115579465    -0.717839211096     0.161088152282    12.000000000000
           O         -1.378294579465    -0.308467211096     0.162114152282    15.994914619560
           H         -4.313823579465    -0.543412211096    -0.713177847718     1.007825032070
           H         -3.340327579465    -1.736871211096     0.160965152282     1.007825032070
           H         -4.313722579465    -0.543657211096     1.035484152282     1.007825032070
           C         -0.230798579465     0.534882788904     0.162436152282    12.000000000000
           C          0.995403420535    -0.358471211096     0.162281152282    12.000000000000
           H         -0.261933579465     1.171479788904    -0.711944847718     1.007825032070
           H         -0.262027579465     1.171085788904     1.037099152282     1.007825032070
           C          2.295454420535     0.447963788904     0.162427152282    12.000000000000
           H          0.958604420535    -1.005108211096    -0.710040847718     1.007825032070
           H          0.958588420535    -1.005485211096     1.034335152282     1.007825032070
           C          3.544570420535    -0.435232211096     0.161638152282    12.000000000000
           H          2.318530420535     1.101064788904    -0.708211847718     1.007825032070
           H          2.318921420535     1.100097788904     1.033778152282     1.007825032070
           C          3.946951420535    -0.895804211096    -1.238657847718    12.000000000000
           H          3.370351420535    -1.304424211096     0.791899152282     1.007825032070
           H          4.370079420535     0.109661788904     0.614071152282     1.007825032070
           H          3.153605420535    -1.473184211096    -1.704757847718     1.007825032070
           H          4.834689420535    -1.519604211096    -1.206557847718     1.007825032070
           H          4.161171420535    -0.048515211096    -1.883809847718     1.007825032070

  Charge       = 0
  Multiplicity = 1
  Basis Set: 6-31G*
  Basis Set:

    Orbital Energies (a.u.)
    -----------------------

    Doubly Occupied:

       1A    -20.602985     2A    -20.540526     3A    -11.374085
       4A    -11.281389     5A    -11.232414     6A    -11.224275
       7A    -11.223281     8A    -11.221072     9A    -11.213052
      10A     -1.467963    11A     -1.360732    12A     -1.095116
      13A     -1.041654    14A     -1.002160    15A     -0.930690
      16A     -0.849912    17A     -0.796696    18A     -0.772937
      19A     -0.691242    20A     -0.685375    21A     -0.669702
      22A     -0.633730    23A     -0.618657    24A     -0.597814
      25A     -0.578229    26A     -0.571555    27A     -0.546436
      28A     -0.534782    29A     -0.527247    30A     -0.506754
      31A     -0.498647    32A     -0.475562    33A     -0.466059
      34A     -0.463908    35A     -0.451186    36A     -0.435278

  @DF-RHF Final Energy:  -422.97676954958644

   => Energetics <=

    Nuclear Repulsion Energy =            453.6228983138009312
    One-Electron Energy =               -1474.8330589382419475
    Two-Electron Energy =                 598.2333910748596963
    DFT Exchange-Correlation Energy =       0.0000000000000000
    Empirical Dispersion Energy =           0.0000000000000000
    PCM Polarization Energy =               0.0000000000000000
    EFP Energy =                            0.0000000000000000
    Total Energy =                       -422.9767695495812632

  Mulliken Charges: (a.u.)
   Center  Symbol    Alpha    Beta     Spin     Total
       1     O     4.28391  4.28391  0.00000 -0.56782
       2     C     2.61535  2.61535  0.00000  0.76931
       3     C     3.28774  3.28774  0.00000 -0.57548
       4     O     4.31269  4.31269  0.00000 -0.62537
       5     H     0.39749  0.39749  0.00000  0.20501
       6     H     0.39990  0.39990  0.00000  0.20021
       7     H     0.39750  0.39750  0.00000  0.20500
       8     C     2.99556  2.99556  0.00000  0.00888
       9     C     3.16625  3.16625  0.00000 -0.33250
      10     H     0.41065  0.41065  0.00000  0.17870
      11     H     0.41063  0.41063  0.00000  0.17875
      12     C     3.16269  3.16269  0.00000 -0.32539
      13     H     0.41351  0.41351  0.00000  0.17298
      14     H     0.41394  0.41394  0.00000  0.17211
      15     C     3.15399  3.15399  0.00000 -0.30799
      16     H     0.42009  0.42009  0.00000  0.15982
      17     H     0.41851  0.41851  0.00000  0.16297
      18     C     3.24100  3.24100  0.00000 -0.48200
      19     H     0.42082  0.42082  0.00000  0.15837
      20     H     0.41841  0.41841  0.00000  0.16319
      21     H     0.42082  0.42082  0.00000  0.15836
      22     H     0.41801  0.41801  0.00000  0.16397
      23     H     0.42055  0.42055  0.00000  0.15890

   Total alpha = 36.00000, Total beta = 36.00000, Total charge = -0.00000
