                              Psi4 1.0.54 Driver

  ==> Input File <==

--------------------------------------------------------------------------
set {
	reference rhf
	basis cc-pvtz
}

set_num_threads( 4 )
memory 2 gb

molecule MOL {
0 1

O	 -2.817697	 1.304178	 0.001046
C	 -2.664672	 0.129869	 0.003507
C	 -3.797908	 -0.860100	 -0.001145
O	 -1.481217	 -0.452708	 0.001092
H	 -4.408836	 -0.679689	 -0.875387
H	 -3.443486	 -1.878443	 -0.002770
H	 -4.412123	 -0.683688	 0.871605
C	 -0.332055	 0.384012	 -0.000250
C	 0.892252	 -0.506059	 -0.000295
H	 -0.360822	 1.020205	 -0.874146
H	 -0.359817	 1.021310	 0.872861
C	 0.705537	 -1.739997	 0.877712
H	 1.745313	 0.068983	 0.345080
H	 1.109030	 -0.806282	 -1.020363
C	 1.928077	 -2.653393	 0.892817
H	 0.478686	 -1.430284	 1.894862
H	 -0.157177	 -2.303924	 0.531754
C	 1.741469	 -3.887179	 1.769149
H	 2.790476	 -2.091463	 1.240033
H	 2.155642	 -2.963666	 -0.123073
H	 1.546155	 -3.609566	 2.799503
H	 2.625852	 -4.513473	 1.757788
H	 0.906185	 -4.488359	 1.426020

	symmetry c1
}
set optking {
	frozen_dihedral = ("
		13 9 8 10
	")
}

ee,wfn = optimize('scf', return_wfn=True)
oeprop( wfn, 'DIPOLE', 'QUADRUPOLE', 'MULLIKEN_CHARGES')
f=open( 'psi4out.xyz', 'w' )
f.write( "23  " )
f.write( str(ee) + "\n" )
f.write( MOL.save_string_xyz() )
f.close()
--------------------------------------------------------------------------

    Molecular point group: c1
  Charge       = 0
  Multiplicity = 1
  Basis Set: CC-PVTZ
  Basis Set:
  @DF-RHF Final Energy:  -423.13019341706166
    Total Energy =                       -423.1301934170619461
    Molecular point group: c1
  Basis Set: CC-PVTZ
  Basis Set:
  Basis Set: CC-PVTZ
  Basis Set:
  @DF-RHF Final Energy:  -423.13054046909912
    Total Energy =                       -423.1305404690995147
  Basis Set: CC-PVTZ
  Basis Set:
  Basis Set: CC-PVTZ
  Basis Set:
  @DF-RHF Final Energy:  -423.13167576296632
    Total Energy =                       -423.1316757629654148
  Basis Set: CC-PVTZ
  Basis Set:
  Basis Set: CC-PVTZ
  Basis Set:
  @DF-RHF Final Energy:  -423.13097949960809
    Total Energy =                       -423.1309794996077471
  Basis Set: CC-PVTZ
  Basis Set:
  Basis Set: CC-PVTZ
  Basis Set:
  @DF-RHF Final Energy:  -423.13178006531029
    Total Energy =                       -423.1317800653104086
  Basis Set: CC-PVTZ
  Basis Set:
  Basis Set: CC-PVTZ
  Basis Set:
  @DF-RHF Final Energy:  -423.13179838866967
    Total Energy =                       -423.1317983886694947
  Basis Set: CC-PVTZ
  Basis Set:
  Basis Set: CC-PVTZ
  Basis Set:
  @DF-RHF Final Energy:  -423.13180073515775
    Total Energy =                       -423.1318007351576398
  Basis Set: CC-PVTZ
  Basis Set:
  Charge       = 0
  Multiplicity = 1
  Basis Set: CC-PVTZ
  Basis Set:

    Orbital Energies (a.u.)
    -----------------------

    Doubly Occupied:

       1A    -20.595153     2A    -20.529475     3A    -11.366416
       4A    -11.280935     5A    -11.230948     6A    -11.224131
       7A    -11.216959     8A    -11.215438     9A    -11.209230
      10A     -1.470828    11A     -1.363719    12A     -1.091994
      13A     -1.041713    14A     -1.003009    15A     -0.931791
      16A     -0.843849    17A     -0.805594    18A     -0.768868
      19A     -0.691751    20A     -0.689809    21A     -0.668898
      22A     -0.645363    23A     -0.608089    24A     -0.588487
      25A     -0.580413    26A     -0.570053    27A     -0.560362
      28A     -0.531225    29A     -0.528424    30A     -0.513633
      31A     -0.493507    32A     -0.473820    33A     -0.468046
      34A     -0.460001    35A     -0.450948    36A     -0.440677

  @DF-RHF Final Energy:  -423.13180130312048

   => Energetics <=

    Nuclear Repulsion Energy =            460.5691029847527034
    One-Electron Energy =               -1489.0946943538888263
    Two-Electron Energy =                 605.3937900660157538
    DFT Exchange-Correlation Energy =       0.0000000000000000
    Empirical Dispersion Energy =           0.0000000000000000
    PCM Polarization Energy =               0.0000000000000000
    EFP Energy =                            0.0000000000000000
    Total Energy =                       -423.1318013031204828
    Molecular point group: c1
  Basis Set: CC-PVTZ
  Basis Set:

  -Total Gradient:
     Atom            X                  Y                   Z
    ------   -----------------  -----------------  -----------------
       1       -0.000005755943    -0.000104781072    -0.000006110997
       2        0.000033038571     0.000057825337     0.000041393349
       3       -0.000014872957     0.000025765358     0.000021350746
       4       -0.000047121452     0.000021488742    -0.000021095962
       5        0.000008784999    -0.000019782354     0.000006686468
       6       -0.000005925028     0.000011771265    -0.000003329036
       7        0.000008970391     0.000001668694    -0.000036375972
       8        0.003830062716     0.004814120358     0.004554861855
       9        0.000432750785     0.000656613837    -0.007238763363
      10       -0.003213319699    -0.004071554328    -0.002734831633
      11        0.000008838842     0.000003465226    -0.000010711164
      12       -0.000004285373     0.000002802670    -0.000003190933
      13       -0.001036629848    -0.001416310182     0.005423358587
      14        0.000001231309     0.000006486110    -0.000010074024
      15        0.000004305707     0.000007159050     0.000009568235
      16        0.000010565600    -0.000008272698    -0.000007283225
      17        0.000022568190     0.000003895383     0.000010569254
      18       -0.000010719153    -0.000005678901    -0.000000618547
      19       -0.000020790997    -0.000008141329    -0.000004829073
      20       -0.000007632250     0.000017406645     0.000023967000
      21        0.000008476741    -0.000007933122    -0.000022799367
      22       -0.000013185401     0.000002490542    -0.000002441470
      23        0.000010644245     0.000009494762     0.000010699272

  **** Optimization is complete! (in 8 steps) ****
    Final optimized geometry and variables:
    Molecular point group: c1

    Geometry (in Angstrom), charge = 0, multiplicity = 1:

    O           -2.126131940526     2.277719329000    -0.424193603954
    C           -2.037244140397     1.096666383511    -0.430496603165
    C           -3.224505366692     0.171659571542    -0.436983295870
    O           -0.888286798401     0.450221364182    -0.431790830667
    H           -3.829251155451     0.394195165711    -1.305796500187
    H           -2.928734873270    -0.865232985654    -0.449488628463
    H           -3.822897030813     0.374334076908     0.441097013512
    C            0.307004006422     1.227744735673    -0.430278373356
    C            1.505105852050     0.291499837156    -0.445791686439
    H            0.284870275863     1.841479209111    -1.318918445263
    H            0.305823471037     1.865066720242     0.441755136110
    C            1.393540835592    -0.897978270324     0.508467482260
    H            2.363201836135     0.878587805591    -0.131459774366
    H            1.690500912917    -0.060940684937    -1.454189895376
    C            2.676451912626    -1.722437404992     0.568199641338
    H            1.151537147175    -0.537495629980     1.505700757445
    H            0.570572765456    -1.533987670875     0.206401640946
    C            2.571014417253    -2.922217987729     1.503521608617
    H            3.499763369410    -1.089108660196     0.887342217509
    H            2.928111107321    -2.067119796985    -0.431243497577
    H            2.352813347523    -2.608659591865     2.518953283215
    H            3.495950268425    -3.486911115407     1.523745606602
    H            1.779685164931    -3.594540497096     1.189480691091

  Mulliken Charges: (a.u.)
   Center  Symbol    Alpha    Beta     Spin     Total
       1     O     4.20338  4.20338  0.00000 -0.40676
       2     C     2.81201  2.81201  0.00000  0.37598
       3     C     3.13962  3.13962  0.00000 -0.27924
       4     O     4.14737  4.14737  0.00000 -0.29475
       5     H     0.44176  0.44176  0.00000  0.11648
       6     H     0.44233  0.44233  0.00000  0.11534
       7     H     0.44209  0.44209  0.00000  0.11581
       8     C     2.99298  2.99298  0.00000  0.01403
       9     C     3.09248  3.09248  0.00000 -0.18496
      10     H     0.44519  0.44519  0.00000  0.10961
      11     H     0.44891  0.44891  0.00000  0.10219
      12     C     3.08507  3.08507  0.00000 -0.17014
      13     H     0.45280  0.45280  0.00000  0.09440
      14     H     0.44979  0.44979  0.00000  0.10043
      15     C     3.08640  3.08640  0.00000 -0.17280
      16     H     0.45555  0.45555  0.00000  0.08891
      17     H     0.44569  0.44569  0.00000  0.10861
      18     C     3.14950  3.14950  0.00000 -0.29900
      19     H     0.45474  0.45474  0.00000  0.09051
      20     H     0.45436  0.45436  0.00000  0.09128
      21     H     0.45490  0.45490  0.00000  0.09021
      22     H     0.44811  0.44811  0.00000  0.10378
      23     H     0.45496  0.45496  0.00000  0.09008

   Total alpha = 36.00000, Total beta = 36.00000, Total charge = -0.00000

*** Psi4 exiting successfully. Buy a developer a beer!
