  ==> Input File <==

--------------------------------------------------------------------------
set {
	reference rhf
	basis 6-31G*
}

set_num_threads( 1 )
memory 2 gb

molecule MOL {
0 1

H	 -3.420663	 1.227371	 -1.044276
O	 -3.452007	 0.283848	 -0.965577
C	 -3.181085	 -0.079926	 0.364119
C	 -1.765924	 0.277073	 0.805136
H	 -3.327791	 -1.152017	 0.410903
H	 -3.905698	 0.375695	 1.036898
C	 -0.677594	 -0.417312	 -0.014550
H	 -1.637766	 1.358238	 0.744969
H	 -1.659588	 0.017670	 1.857098
C	 0.738335	 -0.034840	 0.421385
H	 -0.814977	 -0.178223	 -1.064632
H	 -0.802730	 -1.495410	 0.071702
C	 1.822265	 -0.738362	 -0.399735
H	 0.853533	 1.043532	 0.342250
H	 0.871597	 -0.279636	 1.474438
C	 1.294316	 -1.622943	 -1.535051
H	 2.442814	 -1.338946	 0.263524
H	 2.479179	 0.016143	 -0.827524
C	 0.498914	 -2.844872	 -1.071769
H	 2.139848	 -1.962598	 -2.128347
H	 0.678414	 -1.022743	 -2.201854
H	 1.085924	 -3.457840	 -0.392926
H	 0.218703	 -3.465671	 -1.917303
H	 -0.414711	 -2.564398	 -0.558165

	symmetry c1
}
set optking {
	frozen_dihedral = ("
		20 16 13 17,
		13 10 7 11,
		11 7 4 3,
		1 2 3 5,
		7 4 3 2
	")
}

ee = energy('scf')
oeprop('DIPOLE', 'QUADRUPOLE', 'MULLIKEN_CHARGES')
f=open( 'psi4out.xyz', 'w' )
f.write( "24  " )
f.write( str(ee) + "\n" )
f.write( MOL.save_string_xyz() )
f.close()
--------------------------------------------------------------------------

    Molecular point group: c1

    Geometry (in Angstrom), charge = 0, multiplicity = 1:

       Center              X                  Y                   Z               Mass
    ------------   -----------------  -----------------  -----------------  -----------------
           H         -2.768592132061     1.864415405888    -0.729309687746     1.007825032070
           O         -2.799936132061     0.920892405888    -0.650610687746    15.994914619560
           C         -2.529014132061     0.557118405888     0.679085312254    12.000000000000
           C         -1.113853132061     0.914117405888     1.120102312254    12.000000000000
           H         -2.675720132061    -0.514972594112     0.725869312254     1.007825032070
           H         -3.253627132061     1.012739405888     1.351864312254     1.007825032070
           C         -0.025523132061     0.219732405888     0.300416312254    12.000000000000
           H         -0.985695132061     1.995282405888     1.059935312254     1.007825032070
           H         -1.007517132061     0.654714405888     2.172064312254     1.007825032070
           C          1.390405867939     0.602204405888     0.736351312254    12.000000000000
           H         -0.162906132061     0.458821405888    -0.749665687746     1.007825032070
           H         -0.150659132061    -0.858365594112     0.386668312254     1.007825032070
           C          2.474335867939    -0.101317594112    -0.084768687746    12.000000000000
           H          1.505603867939     1.680576405888     0.657216312254     1.007825032070
           H          1.523667867939     0.357408405888     1.789404312254     1.007825032070
           C          1.946386867939    -0.985898594112    -1.220084687746    12.000000000000
           H          3.094884867939    -0.701901594112     0.578490312254     1.007825032070
           H          3.131249867939     0.653187405888    -0.512557687746     1.007825032070
           C          1.150984867939    -2.207827594112    -0.756802687746    12.000000000000
           H          2.791918867939    -1.325553594112    -1.813380687746     1.007825032070
           H          1.330484867939    -0.385698594112    -1.886887687746     1.007825032070
           H          1.737994867939    -2.820795594112    -0.077959687746     1.007825032070
           H          0.870773867939    -2.828626594112    -1.602336687746     1.007825032070
           H          0.237359867939    -1.927353594112    -0.243198687746     1.007825032070

  Charge       = 0
  Multiplicity = 1
  Basis Set: 6-31G*
  Basis Set:

    Orbital Energies (a.u.)
    -----------------------

    Doubly Occupied:

       1A    -20.553314     2A    -11.267056     3A    -11.214737
       4A    -11.211906     5A    -11.211037     6A    -11.210086
       7A    -11.204216     8A    -11.199740     9A     -1.359843
      10A     -1.094798    11A     -1.040937    12A     -0.981680
      13A     -0.925250    14A     -0.849646    15A     -0.807804
      16A     -0.766667    17A     -0.682788    18A     -0.654301
      19A     -0.624917    20A     -0.618599    21A     -0.608549
      22A     -0.584794    23A     -0.559409    24A     -0.539034
      25A     -0.517004    26A     -0.511040    27A     -0.497506
      28A     -0.479663    29A     -0.469805    30A     -0.457652
      31A     -0.440562    32A     -0.421787    33A     -0.419522

  @DF-RHF Final Energy:  -349.20893431948917

   => Energetics <=

    Nuclear Repulsion Energy =            403.2809335750816331
    One-Electron Energy =               -1273.0083659852548408
    Two-Electron Energy =                 520.5184980906848295
    DFT Exchange-Correlation Energy =       0.0000000000000000
    Empirical Dispersion Energy =           0.0000000000000000
    PCM Polarization Energy =               0.0000000000000000
    EFP Energy =                            0.0000000000000000
    Total Energy =                       -349.2089343194883213

  Mulliken Charges: (a.u.)
   Center  Symbol    Alpha    Beta     Spin     Total
       1     H     0.28332  0.28332  0.00000  0.43335
       2     O     4.36850  4.36850  0.00000 -0.73699
       3     C     2.99618  2.99618  0.00000  0.00765
       4     C     3.16438  3.16438  0.00000 -0.32876
       5     H     0.41770  0.41770  0.00000  0.16461
       6     H     0.42821  0.42821  0.00000  0.14358
       7     C     3.16022  3.16022  0.00000 -0.32044
       8     H     0.42997  0.42997  0.00000  0.14006
       9     H     0.42368  0.42368  0.00000  0.15264
      10     C     3.15324  3.15324  0.00000 -0.30648
      11     H     0.41009  0.41009  0.00000  0.17982
      12     H     0.42489  0.42489  0.00000  0.15023
      13     C     3.15607  3.15607  0.00000 -0.31214
      14     H     0.42158  0.42158  0.00000  0.15684
      15     H     0.42232  0.42232  0.00000  0.15537
      16     C     3.16082  3.16082  0.00000 -0.32164
      17     H     0.42193  0.42193  0.00000  0.15613
      18     H     0.42015  0.42015  0.00000  0.15970
      19     C     3.24041  3.24041  0.00000 -0.48082
      20     H     0.41851  0.41851  0.00000  0.16298
      21     H     0.41922  0.41922  0.00000  0.16156
      22     H     0.42381  0.42381  0.00000  0.15238
      23     H     0.41935  0.41935  0.00000  0.16130
      24     H     0.41546  0.41546  0.00000  0.16908

   Total alpha = 33.00000, Total beta = 33.00000, Total charge =  0.00000
