  ==> Input File <==

--------------------------------------------------------------------------
set {
	reference rhf
	basis 6-31G*
}

set_num_threads( 4 )
memory 2 gb

molecule MOL {
0 1

H	 -3.261111	 -0.295142	 1.469456
C	 -3.306842	 -0.277400	 0.373456
C	 -2.660244	 0.921717	 -0.272021
O	 -3.838538	 -1.161155	 -0.216482
C	 -1.127879	 0.831888	 -0.278547
H	 -3.057659	 1.026227	 -1.274941
H	 -2.965230	 1.796632	 0.300833
C	 -0.585872	 -0.287303	 -1.171261
H	 -0.728947	 1.785029	 -0.612704
H	 -0.769705	 0.694599	 0.740580
C	 0.942470	 -0.357682	 -1.177043
H	 -0.946472	 -0.138525	 -2.186977
H	 -0.987604	 -1.245390	 -0.846882
C	 1.481511	 -1.467659	 -2.083318
H	 1.338037	 0.604742	 -1.491684
H	 1.299805	 -0.518577	 -0.160771
C	 3.005631	 -1.630383	 -2.057853
H	 1.157128	 -1.286278	 -3.106827
H	 1.028880	 -2.410941	 -1.784894
C	 3.781305	 -0.443299	 -2.631247
H	 3.264896	 -2.521509	 -2.624090
H	 3.331099	 -1.815521	 -1.036229
H	 3.464706	 -0.224653	 -3.647725
H	 3.642780	 0.456231	 -2.040798
H	 4.846019	 -0.654897	 -2.655871

	symmetry c1
}
set optking {
	frozen_dihedral = ("
		6 3 2 4
	")
}

ee = optimize('scf')
oeprop('DIPOLE', 'QUADRUPOLE', 'MULLIKEN_CHARGES')
f=open( 'psi4out.xyz', 'w' )
f.write( "25  " )
f.write( str(ee) + "\n" )
f.write( MOL.save_string_xyz() )
f.close()
--------------------------------------------------------------------------

    Molecular point group: c1
  Charge       = 0
  Multiplicity = 1
  Basis Set: 6-31G*
  Basis Set:
  @DF-RHF Final Energy:  -387.12136435435815
    Total Energy =                       -387.1213643543575245
    Molecular point group: c1
  Basis Set: 6-31G*
  Basis Set:
  Basis Set: 6-31G*
  Basis Set:
  @DF-RHF Final Energy:  -387.11994743978136
    Total Energy =                       -387.1199474397808444
  Basis Set: 6-31G*
  Basis Set:
  Basis Set: 6-31G*
  Basis Set:
  @DF-RHF Final Energy:  -387.12146191211411
    Total Energy =                       -387.1214619121143414
  Basis Set: 6-31G*
  Basis Set:
  Basis Set: 6-31G*
  Basis Set:
  @DF-RHF Final Energy:  -387.12149323659833
    Total Energy =                       -387.1214932365980985
  Basis Set: 6-31G*
  Basis Set:
  Basis Set: 6-31G*
  Basis Set:
  @DF-RHF Final Energy:  -387.12149466793790
    Total Energy =                       -387.1214946679373270
  Basis Set: 6-31G*
  Basis Set:
  Basis Set: 6-31G*
  Basis Set:
  @DF-RHF Final Energy:  -387.12149759414484
    Total Energy =                       -387.1214975941450120
  Basis Set: 6-31G*
  Basis Set:
  Charge       = 0
  Multiplicity = 1
  Basis Set: 6-31G*
  Basis Set:

    Orbital Energies (a.u.)
    -----------------------

    Doubly Occupied:

       1A    -20.562669     2A    -11.326341     3A    -11.235673
       4A    -11.234602     5A    -11.219782     6A    -11.217441
       7A    -11.216371     8A    -11.214840     9A    -11.209390
      10A     -1.402357    11A     -1.101472    12A     -1.067845
      13A     -1.011893    14A     -0.941651    15A     -0.874504
      16A     -0.817685    17A     -0.786383    18A     -0.778678
      19A     -0.670593    20A     -0.661422    21A     -0.631668
      22A     -0.620608    23A     -0.597064    24A     -0.588798
      25A     -0.579073    26A     -0.550123    27A     -0.536208
      28A     -0.519449    29A     -0.509197    30A     -0.494354
      31A     -0.489275    32A     -0.477087    33A     -0.462506
      34A     -0.456952    35A     -0.439569    36A     -0.409199

  @DF-RHF Final Energy:  -387.12149790061392

   => Energetics <=

    Nuclear Repulsion Energy =            441.0723031403721279
    One-Electron Energy =               -1398.5621561893767648
    Two-Electron Energy =                 570.3683551483910605
    DFT Exchange-Correlation Energy =       0.0000000000000000
    Empirical Dispersion Energy =           0.0000000000000000
    PCM Polarization Energy =               0.0000000000000000
    EFP Energy =                            0.0000000000000000
    Total Energy =                       -387.1214979006135763
    Molecular point group: c1
  Basis Set: 6-31G*
  Basis Set:

  -Total Gradient:
     Atom            X                  Y                   Z
    ------   -----------------  -----------------  -----------------
       1       -0.000005879038     0.000018515828     0.000001405653
       2       -0.002020081721     0.001140101346     0.000149016873
       3        0.001818945423    -0.001306910237    -0.000568268994
       4        0.001246560123    -0.000646751225    -0.000037408539
       5       -0.000015009427     0.000009273675    -0.000010827977
       6       -0.001001357556     0.000779433795     0.000449955205
       7       -0.000000485210     0.000006313636     0.000013958711
       8        0.000000203103     0.000032625838    -0.000008026832
       9       -0.000010801054     0.000011460850    -0.000000091489
      10       -0.000006705316    -0.000009255838    -0.000006338519
      11       -0.000006248949    -0.000015461912     0.000027956502
      12        0.000001908326    -0.000004683127     0.000003555361
      13        0.000000842888    -0.000017115340     0.000000245682
      14        0.000005276931     0.000011182418    -0.000024337466
      15       -0.000012058172    -0.000009961092     0.000000702185
      16        0.000000520904     0.000004002745     0.000008779626
      17       -0.000000692241     0.000002959828     0.000009091561
      18       -0.000001888870    -0.000003660108    -0.000006000540
      19        0.000004143780     0.000003193949     0.000000854780
      20       -0.000000254517    -0.000002914315    -0.000004761700
      21       -0.000000265377     0.000000836454     0.000001512771
      22        0.000001313096     0.000001461726     0.000001979577
      23       -0.000000889232     0.000002293241    -0.000001946866
      24        0.000002312367    -0.000005602346    -0.000000468846
      25        0.000000589759    -0.000001339790    -0.000000536719

  **** Optimization is complete! (in 7 steps) ****
    Final optimized geometry and variables:
    Molecular point group: c1

    Geometry (in Angstrom), charge = 0, multiplicity = 1:

    H           -2.970883170421     0.172402368176     2.560166086353
    C           -3.046553349899     0.172301879243     1.466041485796
    C           -2.419989700322     1.358335459908     0.778525727149
    O           -3.563232325042    -0.739311768050     0.904653596039
    C           -0.883769890796     1.262117940075     0.766115818501
    H           -2.816869756623     1.424437494470    -0.228070392057
    H           -2.714944317816     2.256027938321     1.317448944429
    C           -0.341765947569     0.148395125540    -0.132813737138
    H           -0.488096646700     2.218055113869     0.435259486458
    H           -0.523209127145     1.122127614624     1.783988276227
    C            1.186820346802     0.078207594255    -0.130913466112
    H           -0.695608751771     0.310023661806    -1.148883989743
    H           -0.748506493628    -0.810021342265     0.178534237521
    C            1.729575894902    -1.024148330545    -1.044379582968
    H            1.586447124662     1.042931945985    -0.433448368907
    H            1.538304982144    -0.093802848795     0.885574521079
    C            3.252444934147    -1.195337009968    -1.005714034043
    H            1.416957688668    -0.828734314564    -2.068880620131
    H            1.268556118484    -1.968190505637    -0.762130249239
    C            4.040478689739    -0.004652958696    -1.554894476569
    H            3.513130584936    -2.080462623461    -1.580611357010
    H            3.565942848804    -1.395572518832     0.016905252747
    H            3.738585973002     0.226817707319    -2.572906805849
    H            3.897583790379     0.888805353258    -0.956109871498
    H            5.104506172964    -0.219975511546    -1.567901021459

  Mulliken Charges: (a.u.)
   Center  Symbol    Alpha    Beta     Spin     Total
       1     H     0.43116  0.43116  0.00000  0.13768
       2     C     2.83538  2.83538  0.00000  0.32923
       3     C     3.20401  3.20401  0.00000 -0.40801
       4     O     4.23643  4.23643  0.00000 -0.47286
       5     C     3.16637  3.16637  0.00000 -0.33274
       6     H     0.40031  0.40031  0.00000  0.19939
       7     H     0.41175  0.41175  0.00000  0.17651
       8     C     3.15463  3.15463  0.00000 -0.30927
       9     H     0.41291  0.41291  0.00000  0.17419
      10     H     0.41925  0.41925  0.00000  0.16150
      11     C     3.15468  3.15468  0.00000 -0.30935
      12     H     0.41904  0.41904  0.00000  0.16192
      13     H     0.41252  0.41252  0.00000  0.17496
      14     C     3.15298  3.15298  0.00000 -0.30596
      15     H     0.42174  0.42174  0.00000  0.15652
      16     H     0.42425  0.42425  0.00000  0.15149
      17     C     3.15267  3.15267  0.00000 -0.30533
      18     H     0.42327  0.42327  0.00000  0.15347
      19     H     0.42007  0.42007  0.00000  0.15987
      20     C     3.24124  3.24124  0.00000 -0.48249
      21     H     0.42018  0.42018  0.00000  0.15965
      22     H     0.42341  0.42341  0.00000  0.15318
      23     H     0.42206  0.42206  0.00000  0.15589
      24     H     0.42077  0.42077  0.00000  0.15846
      25     H     0.41895  0.41895  0.00000  0.16210

   Total alpha = 36.00000, Total beta = 36.00000, Total charge = -0.00000
