  ==> Input File <==

--------------------------------------------------------------------------
set {
	reference rhf
	basis 6-31G*
}

set_num_threads( 4 )
memory 2 gb

molecule MOL {
0 1

H	 -4.101154	 0.485471	 -0.619971
C	 -3.323610	 0.089065	 0.003686
C	 -2.181916	 -0.280443	 -0.529229
H	 -3.504371	 0.005226	 1.058773
O	 -1.180634	 -0.819263	 0.215062
H	 -1.978426	 -0.197968	 -1.582312
C	 0.051604	 -1.018856	 -0.387932
C	 1.043764	 0.054862	 -0.001873
H	 -0.017620	 -1.041351	 -1.469781
H	 0.437898	 -1.966374	 -0.042284
F	 2.212596	 -0.199467	 -0.571921
F	 0.652529	 1.252447	 -0.405055
F	 1.230877	 0.110694	 1.300533

	symmetry c1
}
set optking {
	frozen_dihedral = ("
		3 5 7 9
	")
}

ee = optimize('scf')
oeprop('DIPOLE', 'QUADRUPOLE', 'MULLIKEN_CHARGES')
f=open( 'psi4out.xyz', 'w' )
f.write( "13  " )
f.write( str(ee) + "\n" )
f.write( MOL.save_string_xyz() )
f.close()
--------------------------------------------------------------------------

    Molecular point group: c1
  Charge       = 0
  Multiplicity = 1
  Basis Set: 6-31G*
  Basis Set:
  @DF-RHF Final Energy:  -527.53524858899027
    Total Energy =                       -527.5352485889900436
    Molecular point group: c1
  Basis Set: 6-31G*
  Basis Set:
  Basis Set: 6-31G*
  Basis Set:
  @DF-RHF Final Energy:  -527.53538836944017
    Total Energy =                       -527.5353883694399428
  Basis Set: 6-31G*
  Basis Set:
  Basis Set: 6-31G*
  Basis Set:
  @DF-RHF Final Energy:  -527.53543338516022
    Total Energy =                       -527.5354333851604451
  Basis Set: 6-31G*
  Basis Set:
  Basis Set: 6-31G*
  Basis Set:
  @DF-RHF Final Energy:  -527.53544959667943
    Total Energy =                       -527.5354495966790864
  Basis Set: 6-31G*
  Basis Set:
  @DF-RHF Final Energy:  -527.53545568126560
    Total Energy =                       -527.5354556812653755
  Basis Set: 6-31G*
  Basis Set:
  @DF-RHF Final Energy:  -527.53546862460428
    Total Energy =                       -527.5354686246040501
  Basis Set: 6-31G*
  Basis Set:
  Basis Set: 6-31G*
  Basis Set:
  @DF-RHF Final Energy:  -527.53548617018328
    Total Energy =                       -527.5354861701827076
  Basis Set: 6-31G*
  Basis Set:
  Basis Set: 6-31G*
  Basis Set:
  @DF-RHF Final Energy:  -527.53549257268401
    Total Energy =                       -527.5354925726840065
  Basis Set: 6-31G*
  Basis Set:
  Charge       = 0
  Multiplicity = 1
  Basis Set: 6-31G*
  Basis Set:

    Orbital Energies (a.u.)
    -----------------------

    Doubly Occupied:

       1A    -26.344137     2A    -26.342552     3A    -26.339895
       4A    -20.607885     5A    -11.502383     6A    -11.318929
       7A    -11.300432     8A    -11.216703     9A     -1.740954
      10A     -1.639173    11A     -1.637475    12A     -1.438080
      13A     -1.085311    14A     -1.015989    15A     -0.924710
      16A     -0.836450    17A     -0.830555    18A     -0.818232
      19A     -0.793279    20A     -0.723684    21A     -0.711198
      22A     -0.698413    23A     -0.676119    24A     -0.658772
      25A     -0.653987    26A     -0.642394    27A     -0.629083
      28A     -0.588231    29A     -0.563786    30A     -0.527803
      31A     -0.510037    32A     -0.352239

  @DF-RHF Final Energy:  -527.53549342469660

   => Energetics <=

    Nuclear Repulsion Energy =            411.3671053305906185
    One-Electron Energy =               -1546.4674550866805021
    Two-Electron Energy =                 607.5648563313936847
    DFT Exchange-Correlation Energy =       0.0000000000000000
    Empirical Dispersion Energy =           0.0000000000000000
    PCM Polarization Energy =               0.0000000000000000
    EFP Energy =                            0.0000000000000000
    Total Energy =                       -527.5354934246961420
    Molecular point group: c1
  Basis Set: 6-31G*
  Basis Set:

  -Total Gradient:
     Atom            X                  Y                   Z
    ------   -----------------  -----------------  -----------------
       1       -0.000004377699     0.000006134806    -0.000003304052
       2        0.000002862420    -0.000007319155     0.000005752495
       3       -0.000375111481    -0.001110470077    -0.000201580989
       4        0.000001005794     0.000002325609    -0.000001673495
       5        0.000716136505     0.001975559724     0.000308092413
       6        0.000021827576     0.000001580798    -0.000024022205
       7       -0.000667533806    -0.002239706585     0.000091222174
       8        0.000130109708    -0.000157306057     0.000021579895
       9        0.000308674439     0.001364454163    -0.000166068352
      10       -0.000004297779    -0.000012602512     0.000002924692
      11       -0.000096827506     0.000027809138     0.000074510549
      12       -0.000033096799     0.000156504132    -0.000051595322
      13        0.000000628631    -0.000006963983    -0.000055837802

  **** Optimization is complete! (in 9 steps) ****
    Final optimized geometry and variables:
    Molecular point group: c1

    Geometry (in Angstrom), charge = 0, multiplicity = 1:

    H           -4.112679997589     0.513406875856    -0.585122550064
    C           -3.367279003523     0.057149987634     0.036935326671
    C           -2.142148669308    -0.091099950782    -0.412043540334
    H           -3.645875467112    -0.258592350021     1.024751174280
    O           -1.159934374848    -0.644162191490     0.345132748265
    H           -1.841954405384     0.226216845140    -1.395047728319
    C            0.039943863783    -0.973731014377    -0.269039325531
    C            1.079475909049     0.088612063689     0.003135988486
    H           -0.056761759321    -1.069732119329    -1.343774405941
    H            0.393689572129    -1.908721305171     0.141100261009
    F            2.221806237143    -0.247763841841    -0.577829328269
    F            0.709485528421     1.261572057529    -0.484023304697
    F            1.309549689584     0.241513634260     1.290648185637

  Mulliken Charges: (a.u.)
   Center  Symbol    Alpha    Beta     Spin     Total
       1     H     0.40704  0.40704  0.00000  0.18592
       2     C     3.23545  3.23545  0.00000 -0.47090
       3     C     2.89630  2.89630  0.00000  0.20740
       4     H     0.40174  0.40174  0.00000  0.19651
       5     O     4.30251  4.30251  0.00000 -0.60503
       6     H     0.40581  0.40581  0.00000  0.18837
       7     C     3.06253  3.06253  0.00000 -0.12506
       8     C     2.45399  2.45399  0.00000  1.09202
       9     H     0.40536  0.40536  0.00000  0.18927
      10     H     0.39111  0.39111  0.00000  0.21779
      11     F     4.68309  4.68309  0.00000 -0.36617
      12     F     4.68030  4.68030  0.00000 -0.36059
      13     F     4.67477  4.67477  0.00000 -0.34954

   Total alpha = 32.00000, Total beta = 32.00000, Total charge =  0.00000
