  ==> Input File <==

--------------------------------------------------------------------------
set {
	reference rhf
	basis 6-31G*
}

set_num_threads( 1 )
memory 2 gb

molecule MOL {
0 1

H	 1.064606	 2.242914	 0.975434
O	 1.327608	 1.333265	 1.010392
C	 0.709265	 0.639550	 -0.033818
C	 -0.793441	 0.596080	 0.058728
H	 1.105312	 -0.369114	 -0.003041
H	 0.995716	 1.056749	 -0.998658
C	 -1.530462	 -0.493172	 -0.025500
H	 -1.268471	 1.554324	 0.202247
H	 -1.092586	 -1.461565	 -0.186463
H	 -2.602122	 -0.450675	 0.050101

	symmetry c1
}
set optking {
	frozen_dihedral = ("
		5 3 2 1,
		3 4 7 9
	")
}

ee = energy('scf')
oeprop('DIPOLE', 'QUADRUPOLE', 'MULLIKEN_CHARGES')
f=open( 'psi4out.xyz', 'w' )
f.write( "10  " )
f.write( str(ee) + "\n" )
f.write( MOL.save_string_xyz() )
f.close()
--------------------------------------------------------------------------

    Molecular point group: c1

    Geometry (in Angstrom), charge = 0, multiplicity = 1:

       Center              X                  Y                   Z               Mass
    ------------   -----------------  -----------------  -----------------  -----------------
           H          1.063784011232     1.677327076108     0.696428770714     1.007825032070
           O          1.326786011232     0.767678076108     0.731386770714    15.994914619560
           C          0.708443011232     0.073963076108    -0.312823229286    12.000000000000
           C         -0.794262988768     0.030493076108    -0.220277229286    12.000000000000
           H          1.104490011232    -0.934700923892    -0.282046229286     1.007825032070
           H          0.994894011232     0.491162076108    -1.277663229286     1.007825032070
           C         -1.531283988768    -1.058758923892    -0.304505229286    12.000000000000
           H         -1.269292988768     0.988737076108    -0.076758229286     1.007825032070
           H         -1.093407988768    -2.027151923892    -0.465468229286     1.007825032070
           H         -2.602943988768    -1.016261923892    -0.228904229286     1.007825032070

  Charge       = 0
  Multiplicity = 1
  Basis Set: 6-31G*
  Basis Set:

    Orbital Energies (a.u.)
    -----------------------

    Doubly Occupied:

       1A    -20.559842     2A    -11.276361     3A    -11.232469
       4A    -11.224901     5A     -1.368351     6A     -1.062964
       7A     -0.920467     8A     -0.781187     9A     -0.688806
      10A     -0.653849    11A     -0.619801    12A     -0.570202
      13A     -0.541386    14A     -0.492643    15A     -0.441941
      16A     -0.370214

  @DF-RHF Final Energy:  -191.91447988233773

   => Energetics <=

    Nuclear Repulsion Energy =            117.1834998471218938
    One-Electron Energy =                -492.5851847572251927
    Two-Electron Energy =                 183.4872050277657536
    DFT Exchange-Correlation Energy =       0.0000000000000000
    Empirical Dispersion Energy =           0.0000000000000000
    PCM Polarization Energy =               0.0000000000000000
    EFP Energy =                            0.0000000000000000
    Total Energy =                       -191.9144798823375595

  Mulliken Charges: (a.u.)
   Center  Symbol    Alpha    Beta     Spin     Total
       1     H     0.28257  0.28257  0.00000  0.43486
       2     O     4.36331  4.36331  0.00000 -0.72662
       3     C     3.01146  3.01146  0.00000 -0.02292
       4     C     3.07500  3.07500  0.00000 -0.15000
       5     H     0.41054  0.41054  0.00000  0.17893
       6     H     0.42537  0.42537  0.00000  0.14926
       7     C     3.19682  3.19682  0.00000 -0.39364
       8     H     0.41439  0.41439  0.00000  0.17121
       9     H     0.41112  0.41112  0.00000  0.17776
      10     H     0.40942  0.40942  0.00000  0.18116

   Total alpha = 16.00000, Total beta = 16.00000, Total charge =  0.00000
