  ==> Input File <==

--------------------------------------------------------------------------
set {
	reference rhf
	basis cc-pvtz
}

set_num_threads( 4 )
memory 2 gb

molecule MOL {
0 1

H	 3.083659	 -1.378387	 0.000000
O	 2.179005	 -1.633391	 0.000000
C	 1.366950	 -0.558201	 0.000000
C	 1.388351	 0.386011	 1.015227
C	 0.492472	 -0.413426	 -1.057521
H	 2.070206	 0.271672	 1.838288
C	 0.536654	 1.471184	 0.970857
H	 0.473536	 -1.140947	 -1.843140
C	 -0.357646	 0.677137	 -1.094082
H	 0.562094	 2.195321	 1.761934
C	 -0.341144	 1.623358	 -0.083530
C	 -1.304379	 0.844725	 -2.227657
H	 -1.004616	 2.466155	 -0.120760
O	 -1.401659	 0.098866	 -3.140701
H	 -1.935316	 1.736914	 -2.168358

	symmetry c1
}
set optking {
	frozen_dihedral = ("
		4 3 2 1
	")
}

ee = optimize('scf')
oeprop('DIPOLE', 'QUADRUPOLE', 'MULLIKEN_CHARGES')
f=open( 'psi4out.xyz', 'w' )
f.write( "15  " )
f.write( str(ee) + "\n" )
f.write( MOL.save_string_xyz() )
f.close()
--------------------------------------------------------------------------

    Molecular point group: c1
  Charge       = 0
  Multiplicity = 1
  Basis Set: CC-PVTZ
  Basis Set:
  @DF-RHF Final Energy:  -418.43556721655494
    Total Energy =                       -418.4355672165548867
    Molecular point group: c1
  Basis Set: CC-PVTZ
  Basis Set:
  Basis Set: CC-PVTZ
  Basis Set:
  @DF-RHF Final Energy:  -418.43596239731949
    Total Energy =                       -418.4359623973197131
  Basis Set: CC-PVTZ
  Basis Set:
  Basis Set: CC-PVTZ
  Basis Set:
  @DF-RHF Final Energy:  -418.43580494472570
    Total Energy =                       -418.4358049447257599
  Basis Set: CC-PVTZ
  Basis Set:
  Basis Set: CC-PVTZ
  Basis Set:
  @DF-RHF Final Energy:  -418.43607999120928
    Total Energy =                       -418.4360799912092261
  Basis Set: CC-PVTZ
  Basis Set:
  Basis Set: CC-PVTZ
  Basis Set:
  @DF-RHF Final Energy:  -418.43609054029184
    Total Energy =                       -418.4360905402920707
  Basis Set: CC-PVTZ
  Basis Set:
  Charge       = 0
  Multiplicity = 1
  Basis Set: CC-PVTZ
  Basis Set:

    Orbital Energies (a.u.)
    -----------------------

    Doubly Occupied:

       1A    -20.585406     2A    -20.554640     3A    -11.328233
       4A    -11.305253     5A    -11.250632     6A    -11.250091
       7A    -11.248278     8A    -11.247814     9A    -11.240377
      10A     -1.414263    11A     -1.410442    12A     -1.175005
      13A     -1.052434    14A     -1.030625    15A     -0.900722
      16A     -0.849488    17A     -0.809880    18A     -0.742895
      19A     -0.702982    20A     -0.688848    21A     -0.650178
      22A     -0.640931    23A     -0.622454    24A     -0.610797
      25A     -0.562173    26A     -0.550527    27A     -0.540158
      28A     -0.508014    29A     -0.492637    30A     -0.427050
      31A     -0.357426    32A     -0.342204

  @DF-RHF Final Energy:  -418.43609208121143

   => Energetics <=

    Nuclear Repulsion Energy =            403.6537602224873353
    One-Electron Energy =               -1369.9939894599156105
    Two-Electron Energy =                 547.9041371562167342
    DFT Exchange-Correlation Energy =       0.0000000000000000
    Empirical Dispersion Energy =           0.0000000000000000
    PCM Polarization Energy =               0.0000000000000000
    EFP Energy =                            0.0000000000000000
    Total Energy =                       -418.4360920812115410
    Molecular point group: c1
  Basis Set: CC-PVTZ
  Basis Set:

  -Total Gradient:
     Atom            X                  Y                   Z
    ------   -----------------  -----------------  -----------------
       1        0.000077916431    -0.000002188760    -0.001817946281
       2       -0.000604277096    -0.000427066276     0.002594452871
       3        0.001600780200     0.001242222277    -0.001245068481
       4       -0.000906510770    -0.000907852753     0.000570862842
       5       -0.000135602149     0.000069408141    -0.000086494989
       6       -0.000003579384    -0.000000302650     0.000012558056
       7       -0.000133710450     0.000141111516    -0.000147522151
       8       -0.000000536552    -0.000006401180     0.000015193577
       9        0.000069502432    -0.000146530882    -0.000091117203
      10        0.000006364135    -0.000015226194     0.000000418764
      11        0.000056651669     0.000035884338     0.000203472263
      12       -0.000023638367     0.000006500509     0.000022887946
      13       -0.000013454760    -0.000004075122    -0.000018105876
      14        0.000008138806     0.000008001820    -0.000001055422
      15        0.000001955856     0.000006515215    -0.000012535913

  **** Optimization is complete! (in 6 steps) ****
    Final optimized geometry and variables:
    Molecular point group: c1

    Geometry (in Angstrom), charge = 0, multiplicity = 1:

    H            2.784955012263    -1.629137647771     0.722677776909
    O            1.877588997238    -1.875077350662     0.683609160889
    C            1.076008529150    -0.776469834697     0.639520255789
    C            1.090612933970     0.157223408283     1.665895227311
    C            0.196090327790    -0.636543706903    -0.408384828066
    H            1.764798487864     0.021459235029     2.490371722300
    C            0.239810066342     1.241324811346     1.628053088507
    H            0.175139655610    -1.363479234117    -1.194692108539
    C           -0.667574968464     0.448984440874    -0.436881959406
    H            0.259304395337     1.961615845267     2.422679921243
    C           -0.644985855092     1.389597034251     0.575401150532
    C           -1.622354635247     0.614405626436    -1.562171352292
    H           -1.314299706039     2.228609628611     0.545935614687
    O           -1.716909138801    -0.125709214372    -2.480371521403
    H           -2.262250131709     1.499805824069    -1.492436228786

  Mulliken Charges: (a.u.)
   Center  Symbol    Alpha    Beta     Spin     Total
       1     H     0.38580  0.38580  0.00000  0.22840
       2     O     4.18374  4.18374  0.00000 -0.36748
       3     C     2.86016  2.86016  0.00000  0.27968
       4     C     3.11183  3.11183  0.00000 -0.22367
       5     C     3.11728  3.11728  0.00000 -0.23457
       6     H     0.41856  0.41856  0.00000  0.16289
       7     C     3.06626  3.06626  0.00000 -0.13252
       8     H     0.40208  0.40208  0.00000  0.19584
       9     C     2.97681  2.97681  0.00000  0.04637
      10     H     0.41902  0.41902  0.00000  0.16197
      11     C     3.10050  3.10050  0.00000 -0.20099
      12     C     2.90904  2.90904  0.00000  0.18191
      13     H     0.42253  0.42253  0.00000  0.15495
      14     O     4.16977  4.16977  0.00000 -0.33954
      15     H     0.45662  0.45662  0.00000  0.08676

   Total alpha = 32.00000, Total beta = 32.00000, Total charge =  0.00000
