  ==> Input File <==

--------------------------------------------------------------------------
set {
	reference rhf
	basis cc-pvtz
}

set_num_threads( 4 )
memory 2 gb

molecule MOL {
0 1

H	 -1.752232	 -2.214755	 -0.011938
C	 -1.343852	 -1.221619	 -0.018179
N	 -0.058800	 -1.097635	 -0.261688
C	 -2.148159	 -0.124236	 0.219734
C	 0.449026	 0.119242	 -0.273393
H	 -3.196988	 -0.237571	 0.417076
N	 -1.655094	 1.094230	 0.209506
C	 -0.370318	 1.215445	 -0.035100
C	 1.924033	 0.265863	 -0.538106
H	 0.033214	 2.210441	 -0.046812
C	 2.479924	 -0.857408	 -1.414859
H	 2.086104	 1.218408	 -1.028160
H	 2.457259	 0.294554	 0.404795
H	 3.533700	 -0.699186	 -1.610962
H	 1.959066	 -0.894064	 -2.362668
H	 2.369252	 -1.821317	 -0.930941

	symmetry c1
}
set optking {
	frozen_dihedral = ("
		12 9 5 3
	")
}

ee = optimize('scf')
oeprop('DIPOLE', 'QUADRUPOLE', 'MULLIKEN_CHARGES')
f=open( 'psi4out.xyz', 'w' )
f.write( "16  " )
f.write( str(ee) + "\n" )
f.write( MOL.save_string_xyz() )
f.close()
--------------------------------------------------------------------------

    Molecular point group: c1
  Charge       = 0
  Multiplicity = 1
  Basis Set: CC-PVTZ
  Basis Set:
  @DF-RHF Final Energy:  -340.87076266351477
    Total Energy =                       -340.8707626635147108
    Molecular point group: c1
  Basis Set: CC-PVTZ
  Basis Set:
  Basis Set: CC-PVTZ
  Basis Set:
  @DF-RHF Final Energy:  -340.87114310766322
    Total Energy =                       -340.8711431076633289
  Basis Set: CC-PVTZ
  Basis Set:
  Basis Set: CC-PVTZ
  Basis Set:
  @DF-RHF Final Energy:  -340.87121191892595
    Total Energy =                       -340.8712119189259511
  Basis Set: CC-PVTZ
  Basis Set:
  Basis Set: CC-PVTZ
  Basis Set:
  @DF-RHF Final Energy:  -340.87122892943006
    Total Energy =                       -340.8712289294298898
  Basis Set: CC-PVTZ
  Basis Set:
  Basis Set: CC-PVTZ
  Basis Set:
  @DF-RHF Final Energy:  -340.87123782595421
    Total Energy =                       -340.8712378259542675
  Basis Set: CC-PVTZ
  Basis Set:
  Basis Set: CC-PVTZ
  Basis Set:
  @DF-RHF Final Energy:  -340.87123968270123
    Total Energy =                       -340.8712396827012299
  Basis Set: CC-PVTZ
  Basis Set:
  Charge       = 0
  Multiplicity = 1
  Basis Set: CC-PVTZ
  Basis Set:

    Orbital Energies (a.u.)
    -----------------------

    Doubly Occupied:

       1A    -15.580461     2A    -15.575239     3A    -11.279997
       4A    -11.271438     5A    -11.268875     6A    -11.266701
       7A    -11.233203     8A    -11.211531     9A     -1.315994
      10A     -1.224052    11A     -1.084923    12A     -1.015052
      13A     -0.911342    14A     -0.891255    15A     -0.825891
      16A     -0.720394    17A     -0.709353    18A     -0.658584
      19A     -0.627195    20A     -0.603951    21A     -0.572072
      22A     -0.561155    23A     -0.523080    24A     -0.504257
      25A     -0.502185    26A     -0.487642    27A     -0.434475
      28A     -0.397217    29A     -0.346081

  @DF-RHF Final Energy:  -340.87124011476305

   => Energetics <=

    Nuclear Repulsion Energy =            350.4111484807641546
    One-Electron Energy =               -1155.3575831567559362
    Two-Electron Energy =                 464.0751945612288978
    DFT Exchange-Correlation Energy =       0.0000000000000000
    Empirical Dispersion Energy =           0.0000000000000000
    PCM Polarization Energy =               0.0000000000000000
    EFP Energy =                            0.0000000000000000
    Total Energy =                       -340.8712401147628839
    Molecular point group: c1
  Basis Set: CC-PVTZ
  Basis Set:

  -Total Gradient:
     Atom            X                  Y                   Z
    ------   -----------------  -----------------  -----------------
       1        0.000021041468    -0.000004624799     0.000029671380
       2       -0.000039593946     0.000016066325    -0.000089226463
       3       -0.000133976064     0.000017226936    -0.000546384409
       4        0.000042304539    -0.000019454902    -0.000015687819
       5        0.000151769201    -0.000144739117     0.000764971095
       6        0.000004583060     0.000007890433     0.000015079654
       7        0.000056598148     0.000028218936    -0.000015586964
       8       -0.000058167774    -0.000021141681     0.000033977489
       9        0.000068467816     0.000364056819     0.000432930821
      10       -0.000009191908     0.000012497419    -0.000017379430
      11       -0.000023946674    -0.000008013079     0.000000554169
      12       -0.000066389075    -0.000239896649    -0.000582721908
      13       -0.000024189898     0.000007941545    -0.000007846174
      14       -0.000007910744    -0.000002914449     0.000012086228
      15        0.000007082047    -0.000004045090     0.000002496168
      16        0.000011519803    -0.000009068646    -0.000016933838

  **** Optimization is complete! (in 7 steps) ****
    Final optimized geometry and variables:
    Molecular point group: c1

    Geometry (in Angstrom), charge = 0, multiplicity = 1:

    H           -1.753286866294    -2.113004851893     0.271579864770
    C           -1.331842284709    -1.125636530563     0.267813019454
    N           -0.044515268184    -1.019610469897     0.001230770045
    C           -2.111371205169    -0.022897321130     0.529953430359
    C            0.482177773834     0.183031245259    -0.006846805383
    H           -3.157865836477    -0.119119264258     0.746221288572
    N           -1.597090501190     1.192194578465     0.519844565258
    C           -0.320333103239     1.293738351187     0.253458616341
    C            1.958746181311     0.345988869164    -0.280216866417
    H            0.100234036510     2.282140310057     0.238673192691
    C            2.569798811213    -0.761454665146    -1.130968915235
    H            2.115212391478     1.305260461608    -0.760928588984
    H            2.476552927027     0.396734334764     0.673777357498
    H            3.621721615559    -0.561778255531    -1.296827374649
    H            2.081538905291    -0.825951223366    -2.096059038970
    H            2.475025355943    -1.723592290518    -0.648925614781

  Mulliken Charges: (a.u.)
   Center  Symbol    Alpha    Beta     Spin     Total
       1     H     0.41459  0.41459  0.00000  0.17081
       2     C     3.04525  3.04525  0.00000 -0.09049
       3     N     3.59058  3.59058  0.00000 -0.18116
       4     C     3.04742  3.04742  0.00000 -0.09484
       5     C     2.94474  2.94474  0.00000  0.11052
       6     H     0.41367  0.41367  0.00000  0.17267
       7     N     3.58677  3.58677  0.00000 -0.17355
       8     C     3.07584  3.07584  0.00000 -0.15167
       9     C     3.07822  3.07822  0.00000 -0.15645
      10     H     0.41660  0.41660  0.00000  0.16679
      11     C     3.14446  3.14446  0.00000 -0.28892
      12     H     0.44838  0.44838  0.00000  0.10324
      13     H     0.44661  0.44661  0.00000  0.10678
      14     H     0.45027  0.45027  0.00000  0.09945
      15     H     0.45246  0.45246  0.00000  0.09508
      16     H     0.44413  0.44413  0.00000  0.11174

   Total alpha = 29.00000, Total beta = 29.00000, Total charge = -0.00000
