  ==> Input File <==

--------------------------------------------------------------------------
set {
	reference rhf
	basis 6-31G*
}

set_num_threads( 1 )
memory 2 gb

molecule MOL {
0 1

O	 1.826760	 1.330797	 0.197500
C	 1.643958	 0.221336	 0.583246
C	 0.321721	 -0.506264	 0.570821
O	 2.607557	 -0.541337	 1.084187
C	 -0.823008	 0.326187	 0.001381
H	 0.461112	 -1.423345	 0.004917
H	 0.112826	 -0.817495	 1.590732
C	 -2.149452	 -0.435131	 -0.000098
H	 -0.573101	 0.633966	 -1.009068
H	 -0.922536	 1.239858	 0.578970
C	 -3.368779	 0.488503	 -0.000883
H	 -2.193746	 -1.087250	 -0.871175
H	 -2.195311	 -1.087803	 0.870418
C	 -4.693822	 -0.272754	 -0.001129
H	 -3.325798	 1.139422	 -0.871284
H	 -3.326423	 1.139959	 0.869145
H	 -4.781274	 -0.907928	 -0.878124
H	 -5.538651	 0.408946	 -0.001420
H	 -4.781694	 -0.907783	 0.875984
C	 3.904497	 0.022961	 1.151038
H	 4.254685	 0.288625	 0.163962
H	 4.536316	 -0.739391	 1.579407
H	 3.903899	 0.903944	 1.776638

	symmetry c1
}
set optking {
	frozen_dihedral = ("
		15 11 8 12,
		1 2 3 6,
		9 5 3 6,
		1 2 4 20
	")
}

ee = energy('scf')
oeprop('DIPOLE', 'QUADRUPOLE', 'MULLIKEN_CHARGES')
f=open( 'psi4out.xyz', 'w' )
f.write( "23  " )
f.write( str(ee) + "\n" )
f.write( MOL.save_string_xyz() )
f.close()
--------------------------------------------------------------------------

    Molecular point group: c1

    Geometry (in Angstrom), charge = 0, multiplicity = 1:

       Center              X                  Y                   Z               Mass
    ------------   -----------------  -----------------  -----------------  -----------------
           O          1.869298538879     1.257471447430    -0.208871670518    15.994914619560
           C          1.686496538879     0.148010447430     0.176874329482    12.000000000000
           C          0.364259538879    -0.579589552570     0.164449329482    12.000000000000
           O          2.650095538879    -0.614662552570     0.677815329482    15.994914619560
           C         -0.780469461121     0.252861447430    -0.404990670518    12.000000000000
           H          0.503650538879    -1.496670552570    -0.401454670518     1.007825032070
           H          0.155364538879    -0.890820552570     1.184360329482     1.007825032070
           C         -2.106913461121    -0.508456552570    -0.406469670518    12.000000000000
           H         -0.530562461121     0.560640447430    -1.415439670518     1.007825032070
           H         -0.879997461121     1.166532447430     0.172598329482     1.007825032070
           C         -3.326240461121     0.415177447430    -0.407254670518    12.000000000000
           H         -2.151207461121    -1.160575552570    -1.277546670518     1.007825032070
           H         -2.152772461121    -1.161128552570     0.464046329482     1.007825032070
           C         -4.651283461121    -0.346079552570    -0.407500670518    12.000000000000
           H         -3.283259461121     1.066096447430    -1.277655670518     1.007825032070
           H         -3.283884461121     1.066633447430     0.462773329482     1.007825032070
           H         -4.738735461121    -0.981253552570    -1.284495670518     1.007825032070
           H         -5.496112461121     0.335620447430    -0.407791670518     1.007825032070
           H         -4.739155461121    -0.981108552570     0.469612329482     1.007825032070
           C          3.947035538879    -0.050364552570     0.744666329482    12.000000000000
           H          4.297223538879     0.215299447430    -0.242409670518     1.007825032070
           H          4.578854538879    -0.812716552570     1.173035329482     1.007825032070
           H          3.946437538879     0.830618447430     1.370266329482     1.007825032070

  Charge       = 0
  Multiplicity = 1
  Basis Set: 6-31G*
  Basis Set:

    Orbital Energies (a.u.)
    -----------------------

    Doubly Occupied:

       1A    -20.603560     2A    -20.545357     3A    -11.372063
       4A    -11.280812     5A    -11.235652     6A    -11.218684
       7A    -11.217366     8A    -11.216597     9A    -11.209540
      10A     -1.469254    11A     -1.362684    12A     -1.093270
      13A     -1.043543    14A     -0.986971    15A     -0.932029
      16A     -0.843673    17A     -0.795171    18A     -0.767356
      19A     -0.697632    20A     -0.683418    21A     -0.671688
      22A     -0.649338    23A     -0.610787    24A     -0.599239
      25A     -0.572595    26A     -0.558834    27A     -0.556762
      28A     -0.525034    29A     -0.521037    30A     -0.506070
      31A     -0.486029    32A     -0.470202    33A     -0.465081
      34A     -0.460345    35A     -0.454988    36A     -0.435161

  @DF-RHF Final Energy:  -422.97437904627515

   => Energetics <=

    Nuclear Repulsion Energy =            452.4583112835752559
    One-Electron Energy =               -1472.6297114287608565
    Two-Electron Energy =                 597.1970210989113639
    DFT Exchange-Correlation Energy =       0.0000000000000000
    Empirical Dispersion Energy =           0.0000000000000000
    PCM Polarization Energy =               0.0000000000000000
    EFP Energy =                            0.0000000000000000
    Total Energy =                       -422.9743790462741799

  Mulliken Charges: (a.u.)
   Center  Symbol    Alpha    Beta     Spin     Total
       1     O     4.28605  4.28605  0.00000 -0.57211
       2     C     2.60511  2.60511  0.00000  0.78977
       3     C     3.20923  3.20923  0.00000 -0.41847
       4     O     4.30740  4.30740  0.00000 -0.61480
       5     C     3.15314  3.15314  0.00000 -0.30628
       6     H     0.40044  0.40044  0.00000  0.19911
       7     H     0.40060  0.40060  0.00000  0.19880
       8     C     3.15405  3.15405  0.00000 -0.30811
       9     H     0.41050  0.41050  0.00000  0.17901
      10     H     0.41131  0.41131  0.00000  0.17738
      11     C     3.15246  3.15246  0.00000 -0.30492
      12     H     0.42164  0.42164  0.00000  0.15673
      13     H     0.42450  0.42450  0.00000  0.15100
      14     C     3.23983  3.23983  0.00000 -0.47966
      15     H     0.42081  0.42081  0.00000  0.15839
      16     H     0.42172  0.42172  0.00000  0.15656
      17     H     0.42165  0.42165  0.00000  0.15669
      18     H     0.41855  0.41855  0.00000  0.16290
      19     H     0.42193  0.42193  0.00000  0.15614
      20     C     3.09244  3.09244  0.00000 -0.18489
      21     H     0.40906  0.40906  0.00000  0.18188
      22     H     0.40845  0.40845  0.00000  0.18310
      23     H     0.40911  0.40911  0.00000  0.18178

   Total alpha = 36.00000, Total beta = 36.00000, Total charge = -0.00000
