                              Psi4 1.0.54 Driver

  ==> Input File <==

--------------------------------------------------------------------------
set {
	reference rhf
	basis cc-pvtz
}

set_num_threads( 4 )
memory 2 gb

molecule MOL {
0 1

H	 -2.149496	 -2.244167	 0.000000
O	 -2.454378	 -1.354528	 0.000000
C	 -1.430628	 -0.482077	 0.000000
C	 -0.157520	 -0.990171	 0.213794
C	 -1.607477	 0.870420	 -0.201737
H	 -0.041010	 -2.044442	 0.368606
C	 0.927354	 -0.143561	 0.224252
H	 -2.586755	 1.276896	 -0.368287
C	 -0.502499	 1.710937	 -0.188161
H	 1.908212	 -0.544441	 0.390233
C	 0.768859	 1.216710	 0.023572
C	 -0.696702	 3.124681	 -0.400102
H	 1.611353	 1.877861	 0.031199
N	 -0.852156	 4.229643	 -0.566171

	symmetry c1
}
set optking {
	frozen_dihedral = ("
		5 3 2 1
	")
}

ee,wfn = optimize('scf', return_wfn=True)
oeprop( wfn, 'DIPOLE', 'QUADRUPOLE', 'MULLIKEN_CHARGES')
f=open( 'psi4out.xyz', 'w' )
f.write( "14  " )
f.write( str(ee) + "\n" )
f.write( MOL.save_string_xyz() )
f.close()
--------------------------------------------------------------------------

    Molecular point group: c1
  Charge       = 0
  Multiplicity = 1
  Basis Set: CC-PVTZ
  Basis Set:
  @DF-RHF Final Energy:  -397.43023653720866
    Total Energy =                       -397.4302365372093391
    Molecular point group: c1
  Basis Set: CC-PVTZ
  Basis Set:
  Basis Set: CC-PVTZ
  Basis Set:
  @DF-RHF Final Energy:  -397.43230454095533
    Total Energy =                       -397.4323045409551014
  Basis Set: CC-PVTZ
  Basis Set:
  Basis Set: CC-PVTZ
  Basis Set:
  @DF-RHF Final Energy:  -397.43249292669520
    Total Energy =                       -397.4324929266954314
  Basis Set: CC-PVTZ
  Basis Set:
  Basis Set: CC-PVTZ
  Basis Set:
  @DF-RHF Final Energy:  -397.43252372031344
    Total Energy =                       -397.4325237203133838
  Basis Set: CC-PVTZ
  Basis Set:
  Basis Set: CC-PVTZ
  Basis Set:
  @DF-RHF Final Energy:  -397.43252894717284
    Total Energy =                       -397.4325289471731821
  Basis Set: CC-PVTZ
  Basis Set:
  Charge       = 0
  Multiplicity = 1
  Basis Set: CC-PVTZ
  Basis Set:

    Orbital Energies (a.u.)
    -----------------------

    Doubly Occupied:

       1A    -20.606738     2A    -15.563569     3A    -11.324888
       4A    -11.291592     5A    -11.266833     6A    -11.262058
       7A    -11.256826     8A    -11.256573     9A    -11.255092
      10A     -1.439191    11A     -1.236512    12A     -1.186679
      13A     -1.066332    14A     -1.043494    15A     -0.902832
      16A     -0.861696    17A     -0.799211    18A     -0.718157
      19A     -0.695801    20A     -0.675639    21A     -0.631776
      22A     -0.621911    23A     -0.598068    24A     -0.567594
      25A     -0.551082    26A     -0.544013    27A     -0.528564
      28A     -0.479776    29A     -0.477574    30A     -0.367457
      31A     -0.342114

  @DF-RHF Final Energy:  -397.43252917974155

   => Energetics <=

    Nuclear Repulsion Energy =            380.5054306659277472
    One-Electron Energy =               -1293.0366383664163550
    Two-Electron Energy =                 515.0986785207473986
    DFT Exchange-Correlation Energy =       0.0000000000000000
    Empirical Dispersion Energy =           0.0000000000000000
    PCM Polarization Energy =               0.0000000000000000
    EFP Energy =                            0.0000000000000000
    Total Energy =                       -397.4325291797412092
    Molecular point group: c1
  Basis Set: CC-PVTZ
  Basis Set:

  -Total Gradient:
     Atom            X                  Y                   Z
    ------   -----------------  -----------------  -----------------
       1        0.000013868331     0.000010864665    -0.000965131925
       2        0.000043796562    -0.000027051110     0.000918040748
       3       -0.000156953715     0.000077389465     0.000684817858
       4        0.000014820340    -0.000003076277     0.000022773780
       5        0.000111189553    -0.000046941005    -0.000683057404
       6       -0.000000768479    -0.000001961551    -0.000000787968
       7       -0.000003327516    -0.000010824374     0.000011143905
       8       -0.000005899046    -0.000006543934    -0.000001109027
       9       -0.000006262998    -0.000000000017     0.000050374301
      10        0.000001115604     0.000007186629     0.000001390592
      11       -0.000016624232     0.000005070733    -0.000037468737
      12        0.000014970217     0.000004046392     0.000007735647
      13        0.000005621672    -0.000004558850     0.000001967134
      14       -0.000015546295    -0.000003600769    -0.000010688902

  **** Optimization is complete! (in 6 steps) ****
    Final optimized geometry and variables:
    Molecular point group: c1

    Geometry (in Angstrom), charge = 0, multiplicity = 1:

    H           -1.547733177900    -3.038965748617     0.080614716118
    O           -1.783123251336    -2.128590138978     0.084926633308
    C           -0.693080106435    -1.340204208338     0.100159515259
    C            0.581820758497    -1.832343144190     0.312740526962
    C           -0.885468295417     0.013836108187    -0.105359004740
    H            0.730157957541    -2.884198316309     0.474441176155
    C            1.663418315594    -0.971718302105     0.320814146618
    H           -1.874822794578     0.388386630440    -0.272697792312
    C            0.205794067861     0.861282482096    -0.089347475985
    H            2.647903699159    -1.363847996335     0.486135125924
    C            1.489215848212     0.380278088682     0.121961049756
    C            0.002330666277     2.274113149106    -0.302376852355
    H            2.323217580905     1.052106245844     0.128902439140
    N           -0.153111041250     3.378969204952    -0.468890968334

  Mulliken Charges: (a.u.)
   Center  Symbol    Alpha    Beta     Spin     Total
       1     H     0.38544  0.38544  0.00000  0.22911
       2     O     4.16898  4.16898  0.00000 -0.33797
       3     C     2.84103  2.84103  0.00000  0.31794
       4     C     3.13070  3.13070  0.00000 -0.26140
       5     C     3.12239  3.12239  0.00000 -0.24478
       6     H     0.42900  0.42900  0.00000  0.14200
       7     C     3.05654  3.05654  0.00000 -0.11309
       8     H     0.40962  0.40962  0.00000  0.18075
       9     C     2.92058  2.92058  0.00000  0.15885
      10     H     0.41669  0.41669  0.00000  0.16663
      11     C     3.10610  3.10610  0.00000 -0.21220
      12     C     3.02417  3.02417  0.00000 -0.04833
      13     H     0.41453  0.41453  0.00000  0.17093
      14     N     3.57422  3.57422  0.00000 -0.14845

   Total alpha = 31.00000, Total beta = 31.00000, Total charge =  0.00000

*** Psi4 exiting successfully. Buy a developer a beer!
