  ==> Input File <==

--------------------------------------------------------------------------
set {
	reference rhf
	basis cc-pvtz
}

set_num_threads( 4 )
memory 2 gb

molecule MOL {
0 1

H	 -3.144994	 -1.202467	 -0.018751
O	 -2.321472	 -0.864941	 -0.318626
C	 -2.021813	 0.336996	 0.342658
C	 -0.669613	 0.837286	 -0.127252
H	 -2.780861	 1.084746	 0.127159
H	 -2.006390	 0.184138	 1.420053
C	 0.490865	 -0.082543	 0.241244
H	 -0.708709	 0.967192	 -1.204587
H	 -0.507562	 1.822272	 0.303070
C	 1.382985	 0.491635	 1.338080
H	 1.084898	 -0.278856	 -0.643992
H	 0.096128	 -1.042801	 0.567141
C	 2.538585	 -0.430452	 1.712420
H	 1.778942	 1.449629	 1.012243
H	 0.784320	 0.695040	 2.222340
H	 3.176107	 -0.624415	 0.856347
H	 3.153847	 0.005737	 2.491198
H	 2.175013	 -1.386377	 2.075003

	symmetry c1
}
set optking {
	frozen_dihedral = ("
		10 7 4 8
	")
}

ee = optimize('scf')
oeprop('DIPOLE', 'QUADRUPOLE', 'MULLIKEN_CHARGES')
f=open( 'psi4out.xyz', 'w' )
f.write( "18  " )
f.write( str(ee) + "\n" )
f.write( MOL.save_string_xyz() )
f.close()
--------------------------------------------------------------------------

    Molecular point group: c1
  Charge       = 0
  Multiplicity = 1
  Basis Set: CC-PVTZ
  Basis Set:
  @DF-RHF Final Energy:  -271.28205050603236
    Total Energy =                       -271.2820505060321921
    Molecular point group: c1
  Basis Set: CC-PVTZ
  Basis Set:
  Basis Set: CC-PVTZ
  Basis Set:
  @DF-RHF Final Energy:  -271.28229940674362
    Total Energy =                       -271.2822994067438458
  Basis Set: CC-PVTZ
  Basis Set:
  Basis Set: CC-PVTZ
  Basis Set:
  @DF-RHF Final Energy:  -271.28235159402715
    Total Energy =                       -271.2823515940272046
  Basis Set: CC-PVTZ
  Basis Set:
  Charge       = 0
  Multiplicity = 1
  Basis Set: CC-PVTZ
  Basis Set:

    Orbital Energies (a.u.)
    -----------------------

    Doubly Occupied:

       1A    -20.546392     2A    -11.266301     3A    -11.210772
       4A    -11.210127     5A    -11.205271     6A    -11.203653
       7A     -1.364405     8A     -1.075607     9A     -1.009589
      10A     -0.914495    11A     -0.824013    12A     -0.782314
      13A     -0.705499    14A     -0.652576    15A     -0.619428
      16A     -0.581656    17A     -0.571738    18A     -0.559495
      19A     -0.527551    20A     -0.506675    21A     -0.485166
      22A     -0.470199    23A     -0.455689    24A     -0.450570
      25A     -0.430953

  @DF-RHF Final Energy:  -271.28235190676173

   => Energetics <=

    Nuclear Repulsion Energy =            250.3229150966488987
    One-Electron Energy =                -863.9502662012243945
    Two-Electron Energy =                 342.3449991978135927
    DFT Exchange-Correlation Energy =       0.0000000000000000
    Empirical Dispersion Energy =           0.0000000000000000
    PCM Polarization Energy =               0.0000000000000000
    EFP Energy =                            0.0000000000000000
    Total Energy =                       -271.2823519067619031
    Molecular point group: c1
  Basis Set: CC-PVTZ
  Basis Set:

  -Total Gradient:
     Atom            X                  Y                   Z
    ------   -----------------  -----------------  -----------------
       1       -0.000002998288     0.000017695303     0.000000533992
       2        0.000046574194     0.000008564051     0.000018975074
       3       -0.000050632363    -0.000012987354    -0.000000265625
       4       -0.001323764114    -0.001939187988    -0.000616986597
       5        0.000000101552     0.000003325669    -0.000003520952
       6        0.000001775388    -0.000009428540    -0.000006220158
       7       -0.000918147911    -0.000553040523     0.001574077867
       8        0.001324628464     0.001728905753     0.000194938769
       9        0.000016705820    -0.000014575374     0.000008702625
      10        0.000945798852     0.000774629729    -0.001147765106
      11        0.000016929316     0.000020237092    -0.000030232970
      12       -0.000009341375     0.000020192984    -0.000023126478
      13       -0.000057804482    -0.000050517951     0.000041380322
      14        0.000008841501    -0.000014570765    -0.000021676060
      15        0.000004358926     0.000024970184     0.000000417385
      16       -0.000013952410     0.000022916641     0.000002413913
      17       -0.000013387935    -0.000004638425     0.000012877322
      18        0.000024314868    -0.000022490487    -0.000004523321

  **** Optimization is complete! (in 4 steps) ****
    Final optimized geometry and variables:
    Molecular point group: c1

    Geometry (in Angstrom), charge = 0, multiplicity = 1:

    H           -2.987914406865    -1.232766961731    -0.522167680854
    O           -2.179179133021    -0.880612930690    -0.844528743286
    C           -1.872731087242     0.316342562165    -0.178027056370
    C           -0.526604322000     0.818018505004    -0.661772397071
    H           -2.635216204771     1.065102640672    -0.377278177528
    H           -1.843250129875     0.154485188498     0.898074395529
    C            0.654379254756    -0.097456273889    -0.290766956758
    H           -0.576314321555     0.959476744173    -1.735091203074
    H           -0.371163283706     1.806112115580    -0.237611382007
    C            1.545008190166     0.474106125623     0.810429498699
    H            1.265706367742    -0.275253225560    -1.169491940745
    H            0.278898632541    -1.069471217525     0.008123667703
    C            2.687470859954    -0.457362413558     1.199735991388
    H            1.951728219604     1.426507408688     0.481355069828
    H            0.942147058707     0.689798341463     1.689535410749
    H            3.328183554543    -0.665564829330     0.349208580776
    H            3.303133265464    -0.021836754475     1.978601696681
    H            2.310706515443    -1.406235441309     1.566790023745

  Mulliken Charges: (a.u.)
   Center  Symbol    Alpha    Beta     Spin     Total
       1     H     0.39560  0.39560  0.00000  0.20881
       2     O     4.19891  4.19891  0.00000 -0.39781
       3     C     2.97293  2.97293  0.00000  0.05414
       4     C     3.09735  3.09735  0.00000 -0.19469
       5     H     0.46424  0.46424  0.00000  0.07152
       6     H     0.47329  0.47329  0.00000  0.05342
       7     C     3.09541  3.09541  0.00000 -0.19082
       8     H     0.44642  0.44642  0.00000  0.10715
       9     H     0.45533  0.45533  0.00000  0.08933
      10     C     3.08279  3.08279  0.00000 -0.16558
      11     H     0.44947  0.44947  0.00000  0.10106
      12     H     0.44680  0.44680  0.00000  0.10639
      13     C     3.14992  3.14992  0.00000 -0.29983
      14     H     0.45505  0.45505  0.00000  0.08990
      15     H     0.45719  0.45719  0.00000  0.08561
      16     H     0.45484  0.45484  0.00000  0.09033
      17     H     0.44949  0.44949  0.00000  0.10103
      18     H     0.45497  0.45497  0.00000  0.09006

   Total alpha = 25.00000, Total beta = 25.00000, Total charge = -0.00000
