  ==> Input File <==

--------------------------------------------------------------------------
set {
	reference rhf
	basis cc-pvtz
}

set_num_threads( 4 )
memory 2 gb

molecule MOL {
0 1

H	 -2.698799	 -0.000846	 0.036018
C	 -1.694291	 -0.000483	 0.434279
O	 -0.828718	 -0.000608	 -0.655022
H	 -1.576855	 0.881100	 1.056504
H	 -1.576401	 -0.881658	 1.057001
C	 0.557892	 0.000078	 -0.420099
C	 1.039808	 -1.284258	 0.245116
C	 1.363205	 0.342890	 -1.668378
H	 0.688329	 0.808033	 0.288994
H	 0.423382	 -1.517923	 1.104464
H	 2.062326	 -1.161738	 0.583038
H	 1.019316	 -2.129639	 -0.432744
H	 0.971115	 1.237680	 -2.135990
H	 2.397520	 0.524458	 -1.400051
H	 1.351199	 -0.459264	 -2.397039

	symmetry c1
}
set optking {
	frozen_dihedral = ("
		9 6 3 2
	")
}

ee = optimize('scf')
oeprop('DIPOLE', 'QUADRUPOLE', 'MULLIKEN_CHARGES')
f=open( 'psi4out.xyz', 'w' )
f.write( "15  " )
f.write( str(ee) + "\n" )
f.write( MOL.save_string_xyz() )
f.close()
--------------------------------------------------------------------------

    Molecular point group: c1
  Charge       = 0
  Multiplicity = 1
  Basis Set: CC-PVTZ
  Basis Set:
  @DF-RHF Final Energy:  -232.22540300705788
    Total Energy =                       -232.2254030070578779
    Molecular point group: c1
  Basis Set: CC-PVTZ
  Basis Set:
  Basis Set: CC-PVTZ
  Basis Set:
  @DF-RHF Final Energy:  -232.22914747081083
    Total Energy =                       -232.2291474708105170
  Basis Set: CC-PVTZ
  Basis Set:
  Basis Set: CC-PVTZ
  Basis Set:
  @DF-RHF Final Energy:  -232.22991890288566
    Total Energy =                       -232.2299189028856290
  Basis Set: CC-PVTZ
  Basis Set:
  Basis Set: CC-PVTZ
  Basis Set:
  @DF-RHF Final Energy:  -232.22994893275614
    Total Energy =                       -232.2299489327563720
  Basis Set: CC-PVTZ
  Basis Set:
  Basis Set: CC-PVTZ
  Basis Set:
  @DF-RHF Final Energy:  -232.22995619483055
    Total Energy =                       -232.2299561948305495
  Basis Set: CC-PVTZ
  Basis Set:
  Charge       = 0
  Multiplicity = 1
  Basis Set: CC-PVTZ
  Basis Set:

    Orbital Energies (a.u.)
    -----------------------

    Doubly Occupied:

       1A    -20.544387     2A    -11.272892     3A    -11.260489
       4A    -11.208040     5A    -11.204367     6A     -1.378420
       7A     -1.053778     8A     -0.943489     9A     -0.915461
      10A     -0.792992    11A     -0.675412    12A     -0.639787
      13A     -0.638367    14A     -0.590595    15A     -0.550644
      16A     -0.542430    17A     -0.528934    18A     -0.498616
      19A     -0.492084    20A     -0.455128    21A     -0.411678

  @DF-RHF Final Energy:  -232.22995668249740

   => Energetics <=

    Nuclear Repulsion Energy =            197.7831198336606917
    One-Electron Energy =                -706.8301693124720941
    Two-Electron Energy =                 276.8170927963141139
    DFT Exchange-Correlation Energy =       0.0000000000000000
    Empirical Dispersion Energy =           0.0000000000000000
    PCM Polarization Energy =               0.0000000000000000
    EFP Energy =                            0.0000000000000000
    Total Energy =                       -232.2299566824972885
    Molecular point group: c1
  Basis Set: CC-PVTZ
  Basis Set:

  -Total Gradient:
     Atom            X                  Y                   Z
    ------   -----------------  -----------------  -----------------
       1       -0.000005142936     0.000001814625     0.000004332306
       2       -0.000018195292    -0.000503831460     0.000018914160
       3       -0.000028827040     0.000803886200    -0.000129762997
       4        0.000011760774    -0.000005870827    -0.000009725819
       5        0.000028336296    -0.000012432370    -0.000006588349
       6       -0.000115414732    -0.000641770443     0.000563987433
       7        0.000023813847     0.000022695731     0.000019276137
       8        0.000072432685     0.000003476056    -0.000014630389
       9        0.000119282750     0.000357739717    -0.000450837494
      10       -0.000018777638    -0.000009702905     0.000023658539
      11       -0.000014612762    -0.000008860560     0.000003361360
      12       -0.000003712227     0.000019096570    -0.000018093039
      13       -0.000005830636     0.000002610841     0.000010844348
      14       -0.000038105832    -0.000014119966    -0.000003608725
      15       -0.000007007255    -0.000014731210    -0.000011127472

  **** Optimization is complete! (in 6 steps) ****
    Final optimized geometry and variables:
    Molecular point group: c1

    Geometry (in Angstrom), charge = 0, multiplicity = 1:

    H           -2.758491747254     0.275196193053     0.336414121388
    C           -1.770529040645     0.160123941981     0.758995653770
    O           -0.864216953866     0.156919934443    -0.294106759533
    H           -1.586721453003     0.988697270152     1.440024939665
    H           -1.748178351248    -0.764161019113     1.327835860268
    C            0.495793184421     0.222791795195     0.042357831325
    C            0.995208125779    -1.064534576637     0.687566328366
    C            1.245106251090     0.537524185029    -1.239864883160
    H            0.642203925218     1.046873189248     0.740983879308
    H            0.498251299334    -1.266548472046     1.627908547339
    H            2.058017515404    -0.994088417631     0.888124569082
    H            0.826165684415    -1.905788917003     0.024842678652
    H            0.875090632987     1.456829817631    -1.674926270576
    H            2.305930396082     0.647357895183    -1.047451907623
    H            1.106504276728    -0.259090408512    -1.961523103619

  Mulliken Charges: (a.u.)
   Center  Symbol    Alpha    Beta     Spin     Total
       1     H     0.44443  0.44443  0.00000  0.11114
       2     C     3.03837  3.03837  0.00000 -0.07674
       3     O     4.18197  4.18197  0.00000 -0.36394
       4     H     0.47212  0.47212  0.00000  0.05576
       5     H     0.46913  0.46913  0.00000  0.06174
       6     C     2.92150  2.92150  0.00000  0.15700
       7     C     3.15310  3.15310  0.00000 -0.30621
       8     C     3.14083  3.14083  0.00000 -0.28167
       9     H     0.46662  0.46662  0.00000  0.06676
      10     H     0.45154  0.45154  0.00000  0.09693
      11     H     0.45080  0.45080  0.00000  0.09840
      12     H     0.45087  0.45087  0.00000  0.09826
      13     H     0.44721  0.44721  0.00000  0.10559
      14     H     0.45866  0.45866  0.00000  0.08268
      15     H     0.45285  0.45285  0.00000  0.09430

   Total alpha = 21.00000, Total beta = 21.00000, Total charge =  0.00000
