  ==> Input File <==

--------------------------------------------------------------------------
set {
	reference rhf
	basis 6-31G*
}

set_num_threads( 4 )
memory 2 gb

molecule MOL {
0 1

H	 0.051673	 -6.043589	 -0.972378
C	 0.364975	 -5.053227	 -0.658091
C	 -0.792071	 -4.058462	 -0.739640
H	 0.742418	 -5.133879	 0.357418
H	 1.191891	 -4.751345	 -1.294741
C	 -0.393148	 -2.651387	 -0.306746
H	 -1.616833	 -4.390924	 -0.117045
H	 -1.167968	 -4.026561	 -1.760951
N	 -1.521934	 -1.743951	 -0.368879
H	 -0.042381	 -2.678624	 0.721449
H	 0.451827	 -2.307500	 -0.912664
C	 -1.217365	 -0.386708	 0.039277
H	 -1.891964	 -1.736274	 -1.300577
C	 -2.452633	 0.504241	 -0.042481
H	 -0.865264	 -0.417753	 1.066905
H	 -0.407763	 0.054483	 -0.551720
C	 -3.758029	 -0.289423	 -0.010781
H	 -2.394220	 1.093569	 -0.952170
H	 -2.440793	 1.210787	 0.785871
H	 -3.816659	 -0.981993	 -0.845726
H	 -4.617837	 0.370165	 -0.069296
H	 -3.847478	 -0.867502	 0.904682

	symmetry c1
}
set optking {
	frozen_dihedral = ("
		15 12 14 18
	")
}

ee = optimize('scf')
oeprop('DIPOLE', 'QUADRUPOLE', 'MULLIKEN_CHARGES')
f=open( 'psi4out.xyz', 'w' )
f.write( "22  " )
f.write( str(ee) + "\n" )
f.write( MOL.save_string_xyz() )
f.close()
--------------------------------------------------------------------------

    Molecular point group: c1
  Charge       = 0
  Multiplicity = 1
  Basis Set: 6-31G*
  Basis Set:
  @DF-RHF Final Energy:  -290.37450112258733
    Total Energy =                       -290.3745011225878443
    Molecular point group: c1
  Basis Set: 6-31G*
  Basis Set:
  Basis Set: 6-31G*
  Basis Set:
  @DF-RHF Final Energy:  -290.37557723616919
    Total Energy =                       -290.3755772361692493
  Basis Set: 6-31G*
  Basis Set:
  Basis Set: 6-31G*
  Basis Set:
  @DF-RHF Final Energy:  -290.37709829357300
    Total Energy =                       -290.3770982935729421
  Basis Set: 6-31G*
  Basis Set:
  Basis Set: 6-31G*
  Basis Set:
  @DF-RHF Final Energy:  -290.37721775730910
    Total Energy =                       -290.3772177573090403
  Basis Set: 6-31G*
  Basis Set:
  Basis Set: 6-31G*
  Basis Set:
  @DF-RHF Final Energy:  -290.37722817521660
    Total Energy =                       -290.3772281752164304
  Basis Set: 6-31G*
  Basis Set:
  Charge       = 0
  Multiplicity = 1
  Basis Set: 6-31G*
  Basis Set:

    Orbital Energies (a.u.)
    -----------------------

    Doubly Occupied:

       1A    -15.534735     2A    -11.238692     3A    -11.238629
       4A    -11.213986     5A    -11.213819     6A    -11.210073
       7A    -11.201896     8A     -1.206343     9A     -1.056535
      10A     -1.020831    11A     -0.926405    12A     -0.879550
      13A     -0.805444    14A     -0.787659    15A     -0.663739
      16A     -0.629699    17A     -0.617016    18A     -0.605316
      19A     -0.573481    20A     -0.566043    21A     -0.531885
      22A     -0.529424    23A     -0.503867    24A     -0.487613
      25A     -0.483994    26A     -0.470233    27A     -0.459280
      28A     -0.449857    29A     -0.358090

  @DF-RHF Final Energy:  -290.37722892076874

   => Energetics <=

    Nuclear Repulsion Energy =            318.0713504733379295
    One-Electron Energy =               -1021.9688888026404356
    Two-Electron Energy =                 413.5203094085334214
    DFT Exchange-Correlation Energy =       0.0000000000000000
    Empirical Dispersion Energy =           0.0000000000000000
    PCM Polarization Energy =               0.0000000000000000
    EFP Energy =                            0.0000000000000000
    Total Energy =                       -290.3772289207690847
    Molecular point group: c1
  Basis Set: 6-31G*
  Basis Set:

  -Total Gradient:
     Atom            X                  Y                   Z
    ------   -----------------  -----------------  -----------------
       1        0.000004037723    -0.000008063176     0.000005942735
       2       -0.000006454897    -0.000015211954     0.000010679927
       3        0.000007079794     0.000008783985     0.000001053709
       4        0.000005026451     0.000003302795    -0.000002671209
       5       -0.000006708374    -0.000000552397    -0.000002836869
       6        0.000014540167     0.000011575844    -0.000012213141
       7       -0.000002937551    -0.000007904210    -0.000011133916
       8        0.000004898765     0.000006883465     0.000003823557
       9       -0.000026751481     0.000017674706     0.000045430377
      10        0.000001384066    -0.000005902896    -0.000008029215
      11        0.000003347644    -0.000002923237     0.000001719560
      12       -0.004168564906    -0.005049647672     0.002306112452
      13        0.000005958480     0.000014235279     0.000003638594
      14       -0.003169336192    -0.004615777651    -0.004239338765
      15        0.003998297477     0.004985452736    -0.001236119771
      16       -0.000012613050     0.000002648408    -0.000012972212
      17        0.000021800724     0.000010892095    -0.000073239612
      18        0.003315463949     0.004642818917     0.003140290183
      19       -0.000006147382    -0.000001488616     0.000013860072
      20        0.000008852750     0.000019154685     0.000008374064
      21        0.000008188219     0.000003783898     0.000038346542
      22        0.000000637620    -0.000019735000     0.000019282938

  **** Optimization is complete! (in 6 steps) ****
    Final optimized geometry and variables:
    Molecular point group: c1

    Geometry (in Angstrom), charge = 0, multiplicity = 1:

    H            1.554385751257    -4.087843719715    -0.674908571024
    C            1.831572848280    -3.096096886185    -0.332315198206
    C            0.662627251439    -2.121140829813    -0.466525994010
    H            2.153705328588    -3.182722530759     0.701551047883
    H            2.686688662682    -2.771608258185    -0.918592868244
    C            1.010610758991    -0.713511577633     0.006500144397
    H           -0.189514902634    -2.476904025380     0.104084419628
    H            0.344424029282    -2.081772601342    -1.507045739323
    N           -0.130394779845     0.173998956165    -0.104820139756
    H            1.305013178047    -0.748564094476     1.051916308553
    H            1.880384665575    -0.344993647386    -0.547564564650
    C            0.138055758235     1.528094837847     0.333593832269
    H           -0.446017735436     0.188053206306    -1.056349248668
    C           -1.077203789775     2.469191353766     0.227453320992
    H            0.489013372636     1.503202578747     1.360953906030
    H            0.965421563835     1.977159155882    -0.225968502449
    C           -2.444163942991     1.802355541764     0.367606574016
    H           -1.016365584632     3.049351767161    -0.690393759318
    H           -0.975974151333     3.212669079957     1.015167736370
    H           -2.648963096396     1.115127076524    -0.444692879718
    H           -3.228090876662     2.553923873877     0.373596175296
    H           -2.509025859657     1.238394954593     1.291602554861

  Mulliken Charges: (a.u.)
   Center  Symbol    Alpha    Beta     Spin     Total
       1     H     0.41764  0.41764  0.00000  0.16472
       2     C     3.24333  3.24333  0.00000 -0.48666
       3     C     3.15559  3.15559  0.00000 -0.31118
       4     H     0.42064  0.42064  0.00000  0.15872
       5     H     0.42161  0.42161  0.00000  0.15679
       6     C     3.04642  3.04642  0.00000 -0.09284
       7     H     0.41291  0.41291  0.00000  0.17418
       8     H     0.42669  0.42669  0.00000  0.14662
       9     N     3.85659  3.85659  0.00000 -0.71317
      10     H     0.42132  0.42132  0.00000  0.15736
      11     H     0.43617  0.43617  0.00000  0.12766
      12     C     3.04981  3.04981  0.00000 -0.09963
      13     H     0.33458  0.33458  0.00000  0.33083
      14     C     3.16747  3.16747  0.00000 -0.33495
      15     H     0.42084  0.42084  0.00000  0.15831
      16     H     0.43466  0.43466  0.00000  0.13069
      17     C     3.22895  3.22895  0.00000 -0.45790
      18     H     0.42278  0.42278  0.00000  0.15445
      19     H     0.42022  0.42022  0.00000  0.15955
      20     H     0.42141  0.42141  0.00000  0.15718
      21     H     0.42417  0.42417  0.00000  0.15165
      22     H     0.41619  0.41619  0.00000  0.16761

   Total alpha = 29.00000, Total beta = 29.00000, Total charge = -0.00000
