  ==> Input File <==

--------------------------------------------------------------------------
set {
	reference rhf
	basis 6-31G*
}

set_num_threads( 4 )
memory 2 gb

molecule MOL {
0 1

H	 2.465915	 -1.403495	 -1.014452
N	 1.481870	 -1.223157	 -1.036688
C	 1.224368	 0.201193	 -0.928836
C	 0.806026	 -1.965611	 0.011505
H	 1.731935	 0.712955	 -1.739542
H	 1.585005	 0.620822	 0.013232
C	 -0.273766	 0.445785	 -1.029827
H	 1.010639	 -3.023000	 -0.118226
H	 1.141325	 -1.677217	 1.010526
C	 -0.691849	 -1.719676	 -0.090069
H	 -0.614349	 0.165873	 -2.031202
H	 -0.479102	 1.502650	 -0.894103
N	 -0.975995	 -0.298722	 0.000000
H	 -1.199111	 -2.226634	 0.724318
H	 -1.060441	 -2.144666	 -1.028483
C	 -2.393863	 -0.024976	 0.000000
H	 -2.854032	 -0.467193	 -0.876721
H	 -2.854032	 -0.467193	 0.876721
H	 -2.623281	 1.044943	 0.000000

	symmetry c1
}
set optking {
	frozen_dihedral = ("
		7 13 16 19
	")
}

ee = optimize('scf')
oeprop('DIPOLE', 'QUADRUPOLE', 'MULLIKEN_CHARGES')
f=open( 'psi4out.xyz', 'w' )
f.write( "19  " )
f.write( str(ee) + "\n" )
f.write( MOL.save_string_xyz() )
f.close()
--------------------------------------------------------------------------

    Molecular point group: c1
  Charge       = 0
  Multiplicity = 1
  Basis Set: 6-31G*
  Basis Set:
  @DF-RHF Final Energy:  -305.19863699895683
    Total Energy =                       -305.1986369989569994
    Molecular point group: c1
  Basis Set: 6-31G*
  Basis Set:
  Basis Set: 6-31G*
  Basis Set:
  @DF-RHF Final Energy:  -305.19936634917303
    Total Energy =                       -305.1993663491733173
  Basis Set: 6-31G*
  Basis Set:
  Basis Set: 6-31G*
  Basis Set:
  @DF-RHF Final Energy:  -305.19947563842339
    Total Energy =                       -305.1994756384236211
  Basis Set: 6-31G*
  Basis Set:
  Basis Set: 6-31G*
  Basis Set:
  @DF-RHF Final Energy:  -305.19947686763015
    Total Energy =                       -305.1994768676302101
  Basis Set: 6-31G*
  Basis Set:
  Charge       = 0
  Multiplicity = 1
  Basis Set: 6-31G*
  Basis Set:

    Orbital Energies (a.u.)
    -----------------------

    Doubly Occupied:

       1A    -15.540494     2A    -15.536662     3A    -11.238616
       4A    -11.238594     5A    -11.237289     6A    -11.237162
       7A    -11.235041     8A     -1.247292     9A     -1.185563
      10A     -1.023114    11A     -0.964609    12A     -0.861039
      13A     -0.857132    14A     -0.756804    15A     -0.691216
      16A     -0.633745    17A     -0.626822    18A     -0.607323
      19A     -0.603697    20A     -0.579873    21A     -0.543811
      22A     -0.528606    23A     -0.512180    24A     -0.490336
      25A     -0.466912    26A     -0.457148    27A     -0.363439
      28A     -0.343957

  @DF-RHF Final Energy:  -305.19947712702299

   => Energetics <=

    Nuclear Repulsion Energy =            339.8264672122992351
    One-Electron Energy =               -1086.8349364795947167
    Two-Electron Energy =                 441.8089921402720961
    DFT Exchange-Correlation Energy =       0.0000000000000000
    Empirical Dispersion Energy =           0.0000000000000000
    PCM Polarization Energy =               0.0000000000000000
    EFP Energy =                            0.0000000000000000
    Total Energy =                       -305.1994771270233855
    Molecular point group: c1
  Basis Set: 6-31G*
  Basis Set:

  -Total Gradient:
     Atom            X                  Y                   Z
    ------   -----------------  -----------------  -----------------
       1        0.000000437494     0.000004726144    -0.000001243227
       2       -0.000001533527    -0.000000469051    -0.000002125248
       3        0.000003407824     0.000004659741     0.000010857874
       4       -0.000006955723    -0.000000352482    -0.000006982884
       5        0.000001626738     0.000000432235    -0.000001577404
       6        0.000001179358     0.000000184893     0.000000285407
       7        0.000191712798     0.000984120367     0.000832812950
       8        0.000003430892    -0.000003091020    -0.000000011390
       9       -0.000004445068     0.000000372932    -0.000004349538
      10       -0.000003159346    -0.000016440796     0.000004757709
      11       -0.000006512169    -0.000004207353     0.000008826880
      12        0.000002296724    -0.000001453161     0.000000651219
      13       -0.000260371558    -0.001358385292    -0.001600580117
      14       -0.000004055408     0.000002334416     0.000000494756
      15        0.000006385115     0.000007071458     0.000006084868
      16        0.000063024014     0.000364490308     0.002475628995
      17        0.000002951262    -0.000002035372     0.000007463824
      18        0.000016451619    -0.000002118554    -0.000007612029
      19       -0.000005871037     0.000020160584    -0.001723382644

  **** Optimization is complete! (in 5 steps) ****
    Final optimized geometry and variables:
    Molecular point group: c1

    Geometry (in Angstrom), charge = 0, multiplicity = 1:

    H            2.595372439871    -0.742652508018    -0.567148028451
    N            1.610925327508    -0.564855178665    -0.591107860452
    C            1.349812297451     0.859014442438    -0.485097502486
    C            0.935149399988    -1.308430794761     0.456373847178
    H            1.860867973740     1.371812840006    -1.292997593044
    H            1.704595418924     1.279208558501     0.458964867952
    C           -0.148240776044     1.101568509784    -0.593580528475
    H            1.144180040646    -2.365277369559     0.329004094137
    H            1.266751577134    -1.017097738684     1.455758987313
    C           -0.563185703287    -1.067853570477     0.349916940774
    H           -0.481642711083     0.826175915772    -1.598761981917
    H           -0.355445418014     2.157312053663    -0.453782143864
    N           -0.852844353271     0.351482507287     0.429840717238
    H           -1.071660828779    -1.571609053320     1.165776722948
    H           -0.928300095075    -1.499534705885    -0.586824187817
    C           -2.271638170445     0.619948193932     0.439437740269
    H           -2.788013343002     0.211482057148    -0.434919570906
    H           -2.724296554088     0.192659923979     1.327498486022
    H           -2.443258831031     1.690263230654     0.449090869826

  Mulliken Charges: (a.u.)
   Center  Symbol    Alpha    Beta     Spin     Total
       1     H     0.32944  0.32944  0.00000  0.34111
       2     N     3.85427  3.85427  0.00000 -0.70854
       3     C     3.06369  3.06369  0.00000 -0.12738
       4     C     3.06353  3.06353  0.00000 -0.12705
       5     H     0.41762  0.41762  0.00000  0.16476
       6     H     0.42773  0.42773  0.00000  0.14454
       7     C     3.05398  3.05398  0.00000 -0.10796
       8     H     0.41760  0.41760  0.00000  0.16479
       9     H     0.42774  0.42774  0.00000  0.14453
      10     C     3.05406  3.05406  0.00000 -0.10812
      11     H     0.42830  0.42830  0.00000  0.14339
      12     H     0.41878  0.41878  0.00000  0.16245
      13     N     3.78906  3.78906  0.00000 -0.57812
      14     H     0.41883  0.41883  0.00000  0.16233
      15     H     0.42800  0.42800  0.00000  0.14400
      16     C     3.13933  3.13933  0.00000 -0.27865
      17     H     0.43362  0.43362  0.00000  0.13276
      18     H     0.41660  0.41660  0.00000  0.16681
      19     H     0.41783  0.41783  0.00000  0.16435

   Total alpha = 28.00000, Total beta = 28.00000, Total charge = -0.00000
