                              Psi4 1.0.54 Driver

  ==> Input File <==

--------------------------------------------------------------------------
set {
	reference rhf
	basis cc-pvtz
}

set_num_threads( 4 )
memory 2 gb

molecule MOL {
0 1

H	 3.733943	 -0.901000	 0.086380
O	 2.824271	 -1.154299	 0.131461
C	 2.076458	 -0.067370	 -0.038225
C	 0.626018	 -0.337582	 0.258241
O	 2.538288	 0.965419	 -0.381593
C	 -0.267326	 0.883135	 0.076490
H	 0.325620	 -1.161483	 -0.378003
H	 0.574537	 -0.713685	 1.275261
C	 -1.726822	 0.642622	 0.463839
H	 -0.210803	 1.217591	 -0.953497
H	 0.129920	 1.693110	 0.675679
C	 -2.480891	 -0.340606	 -0.429852
H	 -2.243098	 1.597649	 0.438609
H	 -1.776542	 0.301208	 1.495542
C	 -3.955933	 -0.460128	 -0.060472
H	 -2.393755	 -0.020485	 -1.464726
H	 -2.024244	 -1.323637	 -0.374360
H	 -4.467673	 -1.160944	 -0.709827
H	 -4.458917	 0.497287	 -0.144505
H	 -4.076458	 -0.806900	 0.960497

	symmetry c1
}
set optking {
	frozen_dihedral = ("
		1 2 3 5
	")
}

ee,wfn = optimize('scf', return_wfn=True)
oeprop( wfn, 'DIPOLE', 'QUADRUPOLE', 'MULLIKEN_CHARGES')
f=open( 'psi4out.xyz', 'w' )
f.write( "20  " )
f.write( str(ee) + "\n" )
f.write( MOL.save_string_xyz() )
f.close()
--------------------------------------------------------------------------

    Molecular point group: c1
  Charge       = 0
  Multiplicity = 1
  Basis Set: CC-PVTZ
  Basis Set:
  @DF-RHF Final Energy:  -384.09442296891598
    Total Energy =                       -384.0944229689163762
    Molecular point group: c1
  Basis Set: CC-PVTZ
  Basis Set:
  Basis Set: CC-PVTZ
  Basis Set:
  @DF-RHF Final Energy:  -384.09308527037467
    Total Energy =                       -384.0930852703743881
  Basis Set: CC-PVTZ
  Basis Set:
  Basis Set: CC-PVTZ
  Basis Set:
  @DF-RHF Final Energy:  -384.09442550901673
    Total Energy =                       -384.0944255090167303
  Basis Set: CC-PVTZ
  Basis Set:
  Basis Set: CC-PVTZ
  Basis Set:
  @DF-RHF Final Energy:  -384.09447997743627
    Total Energy =                       -384.0944799774362082
  Basis Set: CC-PVTZ
  Basis Set:
  @DF-RHF Final Energy:  -384.09448204727317
    Total Energy =                       -384.0944820472731180
  Basis Set: CC-PVTZ
  Basis Set:
  @DF-RHF Final Energy:  -384.09448206974298
    Total Energy =                       -384.0944820697430941
  Basis Set: CC-PVTZ
  Basis Set:
  Basis Set: CC-PVTZ
  Basis Set:
  @DF-RHF Final Energy:  -384.09442195971587
    Total Energy =                       -384.0944219597154188
  Basis Set: CC-PVTZ
  Basis Set:
  Basis Set: CC-PVTZ
  Basis Set:
  @DF-RHF Final Energy:  -384.09448111440355
    Total Energy =                       -384.0944811144037203
  Basis Set: CC-PVTZ
  Basis Set:
  Charge       = 0
  Multiplicity = 1
  Basis Set: CC-PVTZ
  Basis Set:

    Orbital Energies (a.u.)
    -----------------------

    Doubly Occupied:

       1A    -20.603421     2A    -20.540707     3A    -11.373424
       4A    -11.238616     5A    -11.220983     6A    -11.218747
       7A    -11.218134     8A    -11.210517     9A     -1.477014
      10A     -1.369086    11A     -1.097519    12A     -1.042191
      13A     -0.962456    14A     -0.870293    15A     -0.817661
      16A     -0.778269    17A     -0.704005    18A     -0.692810
      19A     -0.665540    20A     -0.638468    21A     -0.603929
      22A     -0.596036    23A     -0.578180    24A     -0.557001
      25A     -0.539920    26A     -0.514030    27A     -0.495770
      28A     -0.485029    29A     -0.471640    30A     -0.468126
      31A     -0.458153    32A     -0.446455

  @DF-RHF Final Energy:  -384.09448384689739

   => Energetics <=

    Nuclear Repulsion Energy =            376.5709589273065490
    One-Electron Energy =               -1269.4226299695160378
    Two-Electron Energy =                 508.7571871953124401
    DFT Exchange-Correlation Energy =       0.0000000000000000
    Empirical Dispersion Energy =           0.0000000000000000
    PCM Polarization Energy =               0.0000000000000000
    EFP Energy =                            0.0000000000000000
    Total Energy =                       -384.0944838468971056
    Molecular point group: c1
  Basis Set: CC-PVTZ
  Basis Set:

  -Total Gradient:
     Atom            X                  Y                   Z
    ------   -----------------  -----------------  -----------------
       1       -0.000054092298     0.000389699100     0.003609830786
       2       -0.000279848595    -0.000783625103    -0.005986877631
       3        0.000931227797     0.001208713392     0.005697904856
       4       -0.000020481357    -0.000027171531    -0.000086382616
       5       -0.000591017009    -0.000786444682    -0.003236388325
       6        0.000001512923    -0.000004274654     0.000000973417
       7        0.000002430395     0.000013603147    -0.000001010147
       8        0.000007472657    -0.000010382259     0.000004243119
       9       -0.000001428149     0.000002990322    -0.000004741202
      10       -0.000000563716     0.000006753794    -0.000003554093
      11        0.000001323447    -0.000005087533     0.000001250244
      12        0.000001650111    -0.000004996259     0.000003975498
      13        0.000001828600    -0.000000222596     0.000000157956
      14       -0.000001362077    -0.000001047472    -0.000001605340
      15       -0.000000949056     0.000003186959    -0.000000775451
      16        0.000000633854    -0.000000421990     0.000003194954
      17        0.000001495873    -0.000000728488     0.000000182813
      18        0.000000112191     0.000001045569     0.000000419325
      19       -0.000000369279    -0.000000879795     0.000001469926
      20        0.000000423692    -0.000000709921    -0.000002268088

  **** Optimization is complete! (in 9 steps) ****
    Final optimized geometry and variables:
    Molecular point group: c1

    Geometry (in Angstrom), charge = 0, multiplicity = 1:

    H            3.728211526393    -0.918768305045     0.051092895990
    O            2.816152378607    -1.162293017061     0.097521530398
    C            2.078105537849    -0.059445733270    -0.006091541833
    C            0.624128467604    -0.335883550452     0.266502725703
    O            2.545939481364     0.984255382122    -0.304597145302
    C           -0.270235621114     0.883478041981     0.081030995433
    H            0.335267100515    -1.157060262408    -0.378291414370
    H            0.559614578094    -0.718154538062     1.280741773021
    C           -1.733930749234     0.636759103154     0.448235483464
    H           -0.201676480647     1.224374316356    -0.946244453417
    H            0.117296994669     1.690756885842     0.689999172156
    C           -2.474217021762    -0.342578823181    -0.461218486492
    H           -2.252289548160     1.590654960446     0.422713378011
    H           -1.795776851194     0.288601190724     1.477062663458
    C           -3.952106873228    -0.473234648647    -0.107003782598
    H           -2.378880414656    -0.013049222340    -1.492426664560
    H           -2.012766191766    -1.323592747390    -0.409942233602
    H           -4.453237500245    -1.173081151661    -0.765608764916
    H           -4.460113934806     0.481618305930    -0.190080486358
    H           -4.080572327369    -0.827046911042     0.910592980584

  Mulliken Charges: (a.u.)
   Center  Symbol    Alpha    Beta     Spin     Total
       1     H     0.38204  0.38204  0.00000  0.23591
       2     O     4.16107  4.16107  0.00000 -0.32214
       3     C     2.80359  2.80359  0.00000  0.39281
       4     C     3.11181  3.11181  0.00000 -0.22362
       5     O     4.19038  4.19038  0.00000 -0.38077
       6     C     3.09301  3.09301  0.00000 -0.18602
       7     H     0.43666  0.43666  0.00000  0.12667
       8     H     0.43856  0.43856  0.00000  0.12287
       9     C     3.09927  3.09927  0.00000 -0.19854
      10     H     0.44581  0.44581  0.00000  0.10837
      11     H     0.43901  0.43901  0.00000  0.12198
      12     C     3.08681  3.08681  0.00000 -0.17361
      13     H     0.44548  0.44548  0.00000  0.10903
      14     H     0.45407  0.45407  0.00000  0.09187
      15     C     3.14957  3.14957  0.00000 -0.29914
      16     H     0.45250  0.45250  0.00000  0.09501
      17     H     0.45417  0.45417  0.00000  0.09165
      18     H     0.44769  0.44769  0.00000  0.10462
      19     H     0.45362  0.45362  0.00000  0.09276
      20     H     0.45486  0.45486  0.00000  0.09028

   Total alpha = 32.00000, Total beta = 32.00000, Total charge =  0.00000

*** Psi4 exiting successfully. Buy a developer a beer!
