  ==> Input File <==

--------------------------------------------------------------------------
set {
	reference rhf
	basis 6-31G*
}

set_num_threads( 4 )
memory 2 gb

molecule MOL {
0 1

H	 1.872121	 1.720216	 0.136046
O	 0.983903	 1.376989	 0.143112
C	 1.050492	 0.053836	 0.000068
C	 -0.318135	 -0.576402	 0.000164
O	 2.085214	 -0.518905	 -0.110904
C	 -1.454360	 0.441875	 -0.000474
H	 -0.374042	 -1.230163	 -0.866135
H	 -0.374274	 -1.229227	 0.867154
C	 -2.826123	 -0.230780	 0.000056
H	 -1.357605	 1.085198	 -0.868380
H	 -1.357504	 1.086451	 0.866496
H	 -2.959731	 -0.858053	 -0.876869
H	 -3.619374	 0.509403	 -0.000080
H	 -2.959371	 -0.857318	 0.877556

	symmetry c1
}
set optking {
	frozen_dihedral = ("
		2 3 4 7
	")
}

ee = optimize('scf')
oeprop('DIPOLE', 'QUADRUPOLE', 'MULLIKEN_CHARGES')
f=open( 'psi4out.xyz', 'w' )
f.write( "14  " )
f.write( str(ee) + "\n" )
f.write( MOL.save_string_xyz() )
f.close()
--------------------------------------------------------------------------

    Molecular point group: c1
  Charge       = 0
  Multiplicity = 1
  Basis Set: 6-31G*
  Basis Set:
  @DF-RHF Final Energy:  -305.87682263681432
    Total Energy =                       -305.8768226368142678
    Molecular point group: c1
  Basis Set: 6-31G*
  Basis Set:
  Basis Set: 6-31G*
  Basis Set:
  @DF-RHF Final Energy:  -305.87774343678075
    Total Energy =                       -305.8777434367808041
  Basis Set: 6-31G*
  Basis Set:
  Basis Set: 6-31G*
  Basis Set:
  @DF-RHF Final Energy:  -305.87807177557426
    Total Energy =                       -305.8780717755743126
  Basis Set: 6-31G*
  Basis Set:
  Basis Set: 6-31G*
  Basis Set:
  @DF-RHF Final Energy:  -305.87807856598522
    Total Energy =                       -305.8780785659851063
  Basis Set: 6-31G*
  Basis Set:
  Basis Set: 6-31G*
  Basis Set:
  @DF-RHF Final Energy:  -305.87803115044471
    Total Energy =                       -305.8780311504445990
  Basis Set: 6-31G*
  Basis Set:
  Basis Set: 6-31G*
  Basis Set:
  @DF-RHF Final Energy:  -305.87809317900309
    Total Energy =                       -305.8780931790031445
  Basis Set: 6-31G*
  Basis Set:
  Charge       = 0
  Multiplicity = 1
  Basis Set: 6-31G*
  Basis Set:

    Orbital Energies (a.u.)
    -----------------------

    Doubly Occupied:

       1A    -20.615966     2A    -20.546988     3A    -11.382144
       4A    -11.241738     5A    -11.229455     6A    -11.219338
       7A     -1.476153     8A     -1.364500     9A     -1.084912
      10A     -0.977844    11A     -0.846202    12A     -0.819203
      13A     -0.699250    14A     -0.678031    15A     -0.667676
      16A     -0.616161    17A     -0.589849    18A     -0.563955
      19A     -0.549229    20A     -0.525629    21A     -0.495336
      22A     -0.493618    23A     -0.466662    24A     -0.436634

  @DF-RHF Final Energy:  -305.87809324142142

   => Energetics <=

    Nuclear Repulsion Energy =            240.3833781094496373
    One-Electron Energy =                -893.3499975560349640
    Two-Electron Energy =                 347.0885262051638733
    DFT Exchange-Correlation Energy =       0.0000000000000000
    Empirical Dispersion Energy =           0.0000000000000000
    PCM Polarization Energy =               0.0000000000000000
    EFP Energy =                            0.0000000000000000
    Total Energy =                       -305.8780932414214817
    Molecular point group: c1
  Basis Set: 6-31G*
  Basis Set:

  -Total Gradient:
     Atom            X                  Y                   Z
    ------   -----------------  -----------------  -----------------
       1       -0.000000705880    -0.000002933495    -0.000000894412
       2       -0.000008339385     0.000056561471    -0.000217472397
       3        0.000018291434    -0.000029205102     0.000295673626
       4        0.000094109242    -0.000223975213     0.000099161974
       5       -0.000020313091     0.000005494474    -0.000008478430
       6       -0.000009875894     0.000009895189    -0.000047365027
       7       -0.000083975739     0.000196519098    -0.000144901795
       8        0.000003737073    -0.000006036724    -0.000001446557
       9        0.000005548882    -0.000006869229     0.000022539853
      10       -0.000001910001    -0.000001635490     0.000001372209
      11       -0.000000383598     0.000002925921    -0.000000352381
      12        0.000000531967     0.000006932803    -0.000003860077
      13        0.000006694775     0.000001088905     0.000006305782
      14       -0.000003409781    -0.000008762610    -0.000000282367

  **** Optimization is complete! (in 7 steps) ****
    Final optimized geometry and variables:
    Molecular point group: c1

    Geometry (in Angstrom), charge = 0, multiplicity = 1:

    H            2.050017009792     1.550788170892     0.114471207776
    O            1.137578434166     1.277220428688     0.120084187541
    C            1.109659385416    -0.046290759526    -0.006403220020
    C           -0.280157324331    -0.639520937156    -0.005303748503
    O            2.103992227551    -0.690404393743    -0.104131720030
    C           -1.449174848117     0.344992277016    -0.002512836660
    H           -0.326966509950    -1.293789345390    -0.870112337623
    H           -0.326210907939    -1.292404124248     0.862076776154
    C           -2.794957848454    -0.378968747825    -0.012483641534
    H           -1.378180561149     0.997077861961    -0.866990326017
    H           -1.384091755862     0.985918147485     0.869964568880
    H           -2.901224666592    -1.003376400776    -0.894961949007
    H           -3.615854822511     0.330458985811    -0.008987353560
    H           -2.906144542274    -1.017475213354     0.859315542892

  Mulliken Charges: (a.u.)
   Center  Symbol    Alpha    Beta     Spin     Total
       1     H     0.26715  0.26715  0.00000  0.46570
       2     O     4.34835  4.34835  0.00000 -0.69671
       3     C     2.62207  2.62207  0.00000  0.75585
       4     C     3.21279  3.21279  0.00000 -0.42558
       5     O     4.28269  4.28269  0.00000 -0.56538
       6     C     3.15286  3.15286  0.00000 -0.30572
       7     H     0.39610  0.39610  0.00000  0.20781
       8     H     0.39659  0.39659  0.00000  0.20682
       9     C     3.24330  3.24330  0.00000 -0.48661
      10     H     0.41286  0.41286  0.00000  0.17427
      11     H     0.41100  0.41100  0.00000  0.17800
      12     H     0.41974  0.41974  0.00000  0.16052
      13     H     0.41456  0.41456  0.00000  0.17088
      14     H     0.41993  0.41993  0.00000  0.16014

   Total alpha = 24.00000, Total beta = 24.00000, Total charge =  0.00000
