  ==> Input File <==

--------------------------------------------------------------------------
set {
	reference rhf
	basis 6-31G*
}

set_num_threads( 4 )
memory 2 gb

molecule MOL {
0 1

H	 -3.161837	 0.500524	 -0.000234
C	 -2.367097	 -0.232926	 -0.000000
O	 -1.158440	 0.455814	 -0.000122
H	 -2.468853	 -0.861886	 -0.882833
H	 -2.468942	 -0.861421	 0.883154
C	 -0.029776	 -0.365156	 0.000148
C	 1.212217	 0.508981	 0.000007
H	 -0.036772	 -1.013236	 -0.877259
H	 -0.036869	 -1.012778	 0.877897
C	 1.096818	 1.688170	 -0.964917
H	 1.381326	 0.866935	 1.010914
H	 2.066983	 -0.107325	 -0.261220
H	 0.260775	 2.331929	 -0.706012
H	 1.996319	 2.294260	 -0.944980
H	 0.950572	 1.350750	 -1.987249

	symmetry c1
}
set optking {
	frozen_dihedral = ("
		11 7 6 8
	")
}

ee = optimize('scf')
oeprop('DIPOLE', 'QUADRUPOLE', 'MULLIKEN_CHARGES')
f=open( 'psi4out.xyz', 'w' )
f.write( "15  " )
f.write( str(ee) + "\n" )
f.write( MOL.save_string_xyz() )
f.close()
--------------------------------------------------------------------------

    Molecular point group: c1
  Charge       = 0
  Multiplicity = 1
  Basis Set: 6-31G*
  Basis Set:
  @DF-RHF Final Energy:  -232.13743836437791
    Total Energy =                       -232.1374383643780561
    Molecular point group: c1
  Basis Set: 6-31G*
  Basis Set:
  Basis Set: 6-31G*
  Basis Set:
  @DF-RHF Final Energy:  -232.13788926060880
    Total Energy =                       -232.1378892606088016
  Basis Set: 6-31G*
  Basis Set:
  Basis Set: 6-31G*
  Basis Set:
  @DF-RHF Final Energy:  -232.13812940478491
    Total Energy =                       -232.1381294047847064
  Basis Set: 6-31G*
  Basis Set:
  Basis Set: 6-31G*
  Basis Set:
  @DF-RHF Final Energy:  -232.13813691450309
    Total Energy =                       -232.1381369145032068
  Basis Set: 6-31G*
  Basis Set:
  Charge       = 0
  Multiplicity = 1
  Basis Set: 6-31G*
  Basis Set:

    Orbital Energies (a.u.)
    -----------------------

    Doubly Occupied:

       1A    -20.554962     2A    -11.266899     3A    -11.265029
       4A    -11.215309     5A    -11.202203     6A     -1.380002
       7A     -1.052686     8A     -0.949882     9A     -0.889112
      10A     -0.796337    11A     -0.670659    12A     -0.660434
      13A     -0.634559    14A     -0.596174    15A     -0.558899
      16A     -0.544657    17A     -0.503344    18A     -0.484572
      19A     -0.474467    20A     -0.458827    21A     -0.412791

  @DF-RHF Final Energy:  -232.13813745472766

   => Energetics <=

    Nuclear Repulsion Energy =            193.1348783447238588
    One-Electron Energy =                -697.4024194238933205
    Two-Electron Energy =                 272.1294036244418066
    DFT Exchange-Correlation Energy =       0.0000000000000000
    Empirical Dispersion Energy =           0.0000000000000000
    PCM Polarization Energy =               0.0000000000000000
    EFP Energy =                            0.0000000000000000
    Total Energy =                       -232.1381374547276550
    Molecular point group: c1
  Basis Set: 6-31G*
  Basis Set:

  -Total Gradient:
     Atom            X                  Y                   Z
    ------   -----------------  -----------------  -----------------
       1       -0.000001458971     0.000000537607    -0.000000519969
       2       -0.000005025942    -0.000004284724     0.000005826299
       3        0.000036710549    -0.000022078346    -0.000008128444
       4       -0.000002332028     0.000000733738    -0.000004167119
       5       -0.000005977219     0.000001249261     0.000000579422
       6       -0.002058828543     0.003115529951    -0.002648863721
       7       -0.002603028554     0.003636086538    -0.000487781356
       8        0.002157541126    -0.003143460064     0.002266121971
       9       -0.000031068345     0.000019623166     0.000018172518
      10        0.000027393307    -0.000055566491     0.000016844791
      11        0.002484156210    -0.003581661876     0.000835441958
      12        0.000042681042     0.000011242271    -0.000001302049
      13       -0.000009027365     0.000031212415     0.000034185196
      14       -0.000024302187    -0.000009424432    -0.000011995299
      15       -0.000007433077     0.000000260987    -0.000014414199

  **** Optimization is complete! (in 5 steps) ****
    Final optimized geometry and variables:
    Molecular point group: c1

    Geometry (in Angstrom), charge = 0, multiplicity = 1:

    H           -2.909640013895     0.032675758892     0.243698879729
    C           -2.095382436794    -0.678395602107     0.213459410210
    O           -0.905607100752     0.042551208930     0.215179409431
    H           -2.191745551607    -1.286199816094    -0.684498958576
    H           -2.166738160137    -1.332433016785     1.080791283223
    C            0.242511350589    -0.747432979642     0.173922134985
    C            1.486835244928     0.130363241171     0.197866949001
    H            0.246433949053    -1.384445553439    -0.711869436631
    H            0.258624507723    -1.421850251623     1.031126123807
    C            1.443985202942     1.293969096107    -0.789115043931
    H            1.658236548657     0.484455310490     1.210377686331
    H            2.335548380636    -0.511154164060    -0.032336233734
    H            0.638800119388     1.977062869130    -0.551557895129
    H            2.378157809165     1.846585843764    -0.769373303475
    H            1.290005903790     0.937799981936    -1.804007443040

  Mulliken Charges: (a.u.)
   Center  Symbol    Alpha    Beta     Spin     Total
       1     H     0.41205  0.41205  0.00000  0.17589
       2     C     3.07921  3.07921  0.00000 -0.15841
       3     O     4.30286  4.30286  0.00000 -0.60571
       4     H     0.42982  0.42982  0.00000  0.14035
       5     H     0.43009  0.43009  0.00000  0.13982
       6     C     2.98751  2.98751  0.00000  0.02498
       7     C     3.16288  3.16288  0.00000 -0.32577
       8     H     0.43312  0.43312  0.00000  0.13377
       9     H     0.43108  0.43108  0.00000  0.13784
      10     C     3.23779  3.23779  0.00000 -0.47557
      11     H     0.41716  0.41716  0.00000  0.16567
      12     H     0.42338  0.42338  0.00000  0.15324
      13     H     0.40687  0.40687  0.00000  0.18625
      14     H     0.42239  0.42239  0.00000  0.15522
      15     H     0.42379  0.42379  0.00000  0.15242

   Total alpha = 21.00000, Total beta = 21.00000, Total charge = -0.00000
