                              Psi4 1.0.54 Driver

  ==> Input File <==

--------------------------------------------------------------------------
set {
	reference rhf
	basis cc-pvtz
}

set_num_threads( 4 )
memory 2 gb

molecule MOL {
0 1

H	 -3.436473	 1.252944	 -1.023892
O	 -3.458596	 0.315260	 -0.960865
C	 -3.176635	 -0.080824	 0.355601
C	 -1.763371	 0.265266	 0.799691
H	 -3.321825	 -1.153438	 0.379502
H	 -3.895468	 0.357385	 1.043382
C	 -0.673390	 -0.426948	 -0.013392
H	 -1.631049	 1.344913	 0.747560
H	 -1.664587	 -0.001624	 1.849167
C	 0.737842	 -0.043159	 0.423759
H	 -0.806103	 -0.190518	 -1.063345
H	 -0.797221	 -1.503753	 0.074146
C	 1.302511	 1.139817	 -0.360311
H	 0.727582	 0.186314	 1.484950
H	 1.398625	 -0.899118	 0.303109
C	 2.745366	 1.511682	 -0.014284
H	 0.663880	 2.007182	 -0.209719
H	 1.252006	 0.908578	 -1.420781
C	 2.944291	 2.048659	 1.401071
H	 3.084807	 2.262579	 -0.721186
H	 3.384507	 0.645332	 -0.163803
H	 2.312746	 2.912720	 1.581698
H	 3.972800	 2.354776	 1.555030
H	 2.710682	 1.305408	 2.153805

	symmetry c1
}
set optking {
	frozen_dihedral = ("
		13 10 7 11
	")
}

ee,wfn = optimize('scf', return_wfn=True)
oeprop( wfn, 'DIPOLE', 'QUADRUPOLE', 'MULLIKEN_CHARGES')
f=open( 'psi4out.xyz', 'w' )
f.write( "24  " )
f.write( str(ee) + "\n" )
f.write( MOL.save_string_xyz() )
f.close()
--------------------------------------------------------------------------

    Molecular point group: c1
  Charge       = 0
  Multiplicity = 1
  Basis Set: CC-PVTZ
  Basis Set:
  @DF-RHF Final Energy:  -349.37678846380493
    Total Energy =                       -349.3767884638049281
    Molecular point group: c1
  Basis Set: CC-PVTZ
  Basis Set:
  Basis Set: CC-PVTZ
  Basis Set:
  @DF-RHF Final Energy:  -349.37705282036057
    Total Energy =                       -349.3770528203607455
  Basis Set: CC-PVTZ
  Basis Set:
  Basis Set: CC-PVTZ
  Basis Set:
  @DF-RHF Final Energy:  -349.37709038415130
    Total Energy =                       -349.3770903841511313
  Basis Set: CC-PVTZ
  Basis Set:
  Basis Set: CC-PVTZ
  Basis Set:
  @DF-RHF Final Energy:  -349.37709781965009
    Total Energy =                       -349.3770978196499186
  Basis Set: CC-PVTZ
  Basis Set:
  Basis Set: CC-PVTZ
  Basis Set:
  @DF-RHF Final Energy:  -349.37710745681062
    Total Energy =                       -349.3771074568103359
  Basis Set: CC-PVTZ
  Basis Set:
  Charge       = 0
  Multiplicity = 1
  Basis Set: CC-PVTZ
  Basis Set:

    Orbital Energies (a.u.)
    -----------------------

    Doubly Occupied:

       1A    -20.546317     2A    -11.265308     3A    -11.214929
       4A    -11.212788     5A    -11.210910     6A    -11.209997
       7A    -11.208940     8A    -11.206164     9A     -1.364084
      10A     -1.089620    11A     -1.048634    12A     -0.985882
      13A     -0.916491    14A     -0.852615    15A     -0.805210
      16A     -0.774567    17A     -0.682369    18A     -0.644017
      19A     -0.633267    20A     -0.616047    21A     -0.603089
      22A     -0.587226    23A     -0.564388    24A     -0.535836
      25A     -0.522415    26A     -0.510861    27A     -0.495378
      28A     -0.482333    29A     -0.467386    30A     -0.460601
      31A     -0.452798    32A     -0.445228    33A     -0.422849

  @DF-RHF Final Energy:  -349.37710754724935

   => Energetics <=

    Nuclear Repulsion Energy =            389.5783949564593058
    One-Electron Energy =               -1245.8339143111802514
    Two-Electron Energy =                 506.8784118074715366
    DFT Exchange-Correlation Energy =       0.0000000000000000
    Empirical Dispersion Energy =           0.0000000000000000
    PCM Polarization Energy =               0.0000000000000000
    EFP Energy =                            0.0000000000000000
    Total Energy =                       -349.3771075472494090
    Molecular point group: c1
  Basis Set: CC-PVTZ
  Basis Set:

  -Total Gradient:
     Atom            X                  Y                   Z
    ------   -----------------  -----------------  -----------------
       1       -0.000002650117     0.000005970224    -0.000011998023
       2       -0.000016324153     0.000037603662     0.000022608492
       3        0.000009020395    -0.000068201160    -0.000011298936
       4        0.000001541834     0.000022420622    -0.000026290088
       5       -0.000000111473    -0.000004938457     0.000014679734
       6        0.000005049908     0.000005405081    -0.000009910426
       7        0.001534719587    -0.003969402165    -0.001632304926
       8        0.000008679517     0.000007873958     0.000001542760
       9       -0.000001106875     0.000002409837    -0.000009105899
      10       -0.001363873417     0.002575917466     0.002368958544
      11       -0.000998822668     0.002764205257     0.000856152197
      12       -0.000002261108    -0.000006689195    -0.000011890451
      13        0.000823371399    -0.001372878987    -0.001554770527
      14        0.000006078785     0.000007005125    -0.000000250682
      15        0.000003312505    -0.000001437214     0.000002038670
      16        0.000006109484     0.000003335014    -0.000005596588
      17        0.000004199971    -0.000009268244     0.000002174164
      18        0.000008734124     0.000003174070     0.000006612825
      19       -0.000008271968     0.000002171438     0.000003468586
      20       -0.000002804154    -0.000009660605     0.000013388753
      21       -0.000013608894     0.000008828122    -0.000003540875
      22        0.000002931417    -0.000008897274     0.000002198362
      23       -0.000008222542    -0.000004334806    -0.000003719611
      24        0.000004308438     0.000009388230    -0.000013146057

  **** Optimization is complete! (in 6 steps) ****
    Final optimized geometry and variables:
    Molecular point group: c1

    Geometry (in Angstrom), charge = 0, multiplicity = 1:

    H           -3.191571530909     0.696199059203    -1.127822812732
    O           -3.226642405180    -0.242750439807    -1.099272381622
    C           -2.938265936082    -0.691358329927     0.198872006411
    C           -1.515669314666    -0.383408130270     0.641299073963
    H           -3.099710354853    -1.761925620687     0.184492133159
    H           -3.644068392042    -0.268375615639     0.909321340728
    C           -0.444131681536    -1.075630242359    -0.201153951536
    H           -1.366495172365     0.694785311378     0.621029367943
    H           -1.413000912440    -0.683770827545     1.681123280206
    C            0.986693044777    -0.679398425073     0.191389023348
    H           -0.619466640406    -0.827131452645    -1.241266844582
    H           -0.570455610967    -2.149312636740    -0.105796952912
    C            1.521839198631     0.521146448283    -0.590190245683
    H            1.028436088548    -0.488946599239     1.258698772112
    H            1.652162686666    -1.518766019586     0.009970465922
    C            2.949550571847     0.935948023012    -0.230490385614
    H            0.860973056384     1.374835756900    -0.455688215646
    H            1.488688751898     0.277921928687    -1.648008957008
    C            3.111706387869     1.518379546137     1.171571778814
    H            3.284798449812     1.673891668026    -0.952876065697
    H            3.610169802446     0.080377398357    -0.344172348872
    H            2.460937461188     2.375263831617     1.314424300049
    H            4.131108737595     1.848968768751     1.334966148343
    H            2.878082013347     0.794037104824     1.942352235564

  Mulliken Charges: (a.u.)
   Center  Symbol    Alpha    Beta     Spin     Total
       1     H     0.39520  0.39520  0.00000  0.20960
       2     O     4.20332  4.20332  0.00000 -0.40665
       3     C     2.97622  2.97622  0.00000  0.04755
       4     C     3.10080  3.10080  0.00000 -0.20160
       5     H     0.45900  0.45900  0.00000  0.08201
       6     H     0.46024  0.46024  0.00000  0.07953
       7     C     3.09591  3.09591  0.00000 -0.19182
       8     H     0.45941  0.45941  0.00000  0.08119
       9     H     0.45327  0.45327  0.00000  0.09346
      10     C     3.10170  3.10170  0.00000 -0.20341
      11     H     0.44765  0.44765  0.00000  0.10470
      12     H     0.44780  0.44780  0.00000  0.10440
      13     C     3.09293  3.09293  0.00000 -0.18586
      14     H     0.45346  0.45346  0.00000  0.09308
      15     H     0.44741  0.44741  0.00000  0.10519
      16     C     3.09025  3.09025  0.00000 -0.18051
      17     H     0.45654  0.45654  0.00000  0.08691
      18     H     0.44757  0.44757  0.00000  0.10486
      19     C     3.15225  3.15225  0.00000 -0.30451
      20     H     0.44859  0.44859  0.00000  0.10282
      21     H     0.45463  0.45463  0.00000  0.09074
      22     H     0.45551  0.45551  0.00000  0.08898
      23     H     0.44640  0.44640  0.00000  0.10719
      24     H     0.45393  0.45393  0.00000  0.09214

   Total alpha = 33.00000, Total beta = 33.00000, Total charge = -0.00000

*** Psi4 exiting successfully. Buy a developer a beer!
