  ==> Input File <==

--------------------------------------------------------------------------
set {
	reference rhf
	basis 6-31G*
}

set_num_threads( 4 )
memory 2 gb

molecule MOL {
0 1

H	 -2.046888	 0.703853	 0.747378
N	 -1.852125	 0.165761	 -0.074816
C	 -0.563778	 -0.502042	 0.037919
H	 -1.849697	 0.805953	 -0.846116
C	 0.575259	 0.508231	 -0.048326
H	 -0.482092	 -1.204004	 -0.786564
H	 -0.460411	 -1.085169	 0.956626
C	 1.954651	 -0.143624	 0.035137
H	 0.475158	 1.060484	 -0.977307
H	 0.469181	 1.234488	 0.755973
H	 2.103292	 -0.853109	 -0.774172
H	 2.742821	 0.599562	 -0.030094
H	 2.083613	 -0.679371	 0.971560

	symmetry c1
}
set optking {
	frozen_dihedral = ("
		1 2 3 6
	")
}

ee = optimize('scf')
oeprop('DIPOLE', 'QUADRUPOLE', 'MULLIKEN_CHARGES')
f=open( 'psi4out.xyz', 'w' )
f.write( "13  " )
f.write( str(ee) + "\n" )
f.write( MOL.save_string_xyz() )
f.close()
--------------------------------------------------------------------------

    Molecular point group: c1
  Charge       = 0
  Multiplicity = 1
  Basis Set: 6-31G*
  Basis Set:
  @DF-RHF Final Energy:  -173.27981302134853
    Total Energy =                       -173.2798130213485024
    Molecular point group: c1
  Basis Set: 6-31G*
  Basis Set:
  Basis Set: 6-31G*
  Basis Set:
  @DF-RHF Final Energy:  -173.28199104543879
    Total Energy =                       -173.2819910454387866
  Basis Set: 6-31G*
  Basis Set:
  Basis Set: 6-31G*
  Basis Set:
  @DF-RHF Final Energy:  -173.28225711371039
    Total Energy =                       -173.2822571137104717
  Basis Set: 6-31G*
  Basis Set:
  Basis Set: 6-31G*
  Basis Set:
  @DF-RHF Final Energy:  -173.28226199350740
    Total Energy =                       -173.2822619935073476
  Basis Set: 6-31G*
  Basis Set:
  Basis Set: 6-31G*
  Basis Set:
  @DF-RHF Final Energy:  -173.28226316442220
    Total Energy =                       -173.2822631644222895
  Basis Set: 6-31G*
  Basis Set:
  Charge       = 0
  Multiplicity = 1
  Basis Set: 6-31G*
  Basis Set:

    Orbital Energies (a.u.)
    -----------------------

    Doubly Occupied:

       1A    -15.532661     2A    -11.240082     3A    -11.216423
       4A    -11.212365     5A     -1.177178     6A     -1.037194
       7A     -0.899484     8A     -0.807507     9A     -0.677394
      10A     -0.607785    11A     -0.605957    12A     -0.561995
      13A     -0.523051    14A     -0.516346    15A     -0.487253
      16A     -0.471146    17A     -0.376581

  @DF-RHF Final Energy:  -173.28226334495031

   => Energetics <=

    Nuclear Repulsion Energy =            131.5811569809849857
    One-Electron Energy =                -493.8260402207176867
    Two-Electron Energy =                 188.9626198947823639
    DFT Exchange-Correlation Energy =       0.0000000000000000
    Empirical Dispersion Energy =           0.0000000000000000
    PCM Polarization Energy =               0.0000000000000000
    EFP Energy =                            0.0000000000000000
    Total Energy =                       -173.2822633449503371
    Molecular point group: c1
  Basis Set: 6-31G*
  Basis Set:

  -Total Gradient:
     Atom            X                  Y                   Z
    ------   -----------------  -----------------  -----------------
       1       -0.000484146341    -0.001013227348     0.000588393220
       2        0.000489465297     0.001084092067    -0.000571381287
       3        0.000399867152     0.000750122072    -0.000721169017
       4        0.000000328459     0.000004006470    -0.000000790612
       5       -0.000014892440    -0.000007112006     0.000005266489
       6       -0.000401927553    -0.000822269610     0.000699677565
       7        0.000004440937    -0.000000829775    -0.000000780836
       8        0.000002519778     0.000005441325    -0.000001008599
       9        0.000001150923    -0.000002533865     0.000001963469
      10        0.000002399901     0.000004709383    -0.000000246519
      11       -0.000000970186    -0.000000535989    -0.000001796694
      12        0.000001621247    -0.000002672961     0.000000248616
      13        0.000000142826     0.000000810238     0.000001624205

  **** Optimization is complete! (in 6 steps) ****
    Final optimized geometry and variables:
    Molecular point group: c1

    Geometry (in Angstrom), charge = 0, multiplicity = 1:

    H           -2.091170392116     0.662126762618     0.767839133424
    N           -1.901731295042     0.105296666447    -0.042995917314
    C           -0.573175343207    -0.480707465166     0.029590517797
    H           -1.989395159169     0.702604996101    -0.842752986373
    C            0.593975229728     0.507063613607    -0.036110482324
    H           -0.483638302323    -1.208710923008    -0.771837737999
    H           -0.516160364220    -1.047217094496     0.954710626067
    C            1.957620391298    -0.178270498459     0.046397576678
    H            0.527499748614     1.075613236553    -0.962284813887
    H            0.496630738815     1.227834538383     0.773852848432
    H            2.092193763328    -0.883252495666    -0.769128482009
    H            2.765637356975     0.544321245680    -0.005381278407
    H            2.065012027314    -0.727530891608     0.977567129821

  Mulliken Charges: (a.u.)
   Center  Symbol    Alpha    Beta     Spin     Total
       1     H     0.33470  0.33470  0.00000  0.33061
       2     N     3.91875  3.91875  0.00000 -0.83749
       3     C     3.06007  3.06007  0.00000 -0.12013
       4     H     0.33498  0.33498  0.00000  0.33005
       5     C     3.15765  3.15765  0.00000 -0.31529
       6     H     0.41920  0.41920  0.00000  0.16161
       7     H     0.42027  0.42027  0.00000  0.15946
       8     C     3.24374  3.24374  0.00000 -0.48747
       9     H     0.42611  0.42611  0.00000  0.14777
      10     H     0.42595  0.42595  0.00000  0.14809
      11     H     0.42028  0.42028  0.00000  0.15943
      12     H     0.41766  0.41766  0.00000  0.16468
      13     H     0.42066  0.42066  0.00000  0.15869

   Total alpha = 17.00000, Total beta = 17.00000, Total charge =  0.00000
