                              Psi4 1.0.54 Driver

  ==> Input File <==

--------------------------------------------------------------------------
set {
	reference rhf
	basis cc-pvtz
}

set_num_threads( 4 )
memory 2 gb

molecule MOL {
0 1

H	 3.273419	 0.176595	 -0.102789
N	 2.433987	 -0.362316	 -0.080024
C	 1.263552	 0.494993	 0.021953
H	 2.497638	 -0.973615	 0.707122
C	 -0.016533	 -0.325589	 -0.026925
H	 1.280915	 1.180773	 -0.818522
H	 1.263064	 1.106893	 0.925038
C	 -1.280353	 0.525521	 0.047747
H	 -0.016686	 -0.912532	 -0.939714
H	 -0.014099	 -1.037598	 0.796369
C	 -2.101751	 0.487972	 -1.236732
H	 -1.007803	 1.553974	 0.269032
H	 -1.896175	 0.188925	 0.877410
H	 -1.524403	 0.850737	 -2.080414
H	 -2.989553	 1.104303	 -1.153706
H	 -2.421358	 -0.522928	 -1.467199

	symmetry c1
}
set optking {
	frozen_dihedral = ("
		12 8 5 9
	")
}

ee,wfn = optimize('scf', return_wfn=True)
oeprop( wfn, 'DIPOLE', 'QUADRUPOLE', 'MULLIKEN_CHARGES')
f=open( 'psi4out.xyz', 'w' )
f.write( "16  " )
f.write( str(ee) + "\n" )
f.write( MOL.save_string_xyz() )
f.close()
--------------------------------------------------------------------------

    Molecular point group: c1
  Charge       = 0
  Multiplicity = 1
  Basis Set: CC-PVTZ
  Basis Set:
  @DF-RHF Final Energy:  -212.39491627593870
    Total Energy =                       -212.3949162759390674
    Molecular point group: c1
  Basis Set: CC-PVTZ
  Basis Set:
  Basis Set: CC-PVTZ
  Basis Set:
  @DF-RHF Final Energy:  -212.39517327587797
    Total Energy =                       -212.3951732758777098
  Basis Set: CC-PVTZ
  Basis Set:
  Basis Set: CC-PVTZ
  Basis Set:
  @DF-RHF Final Energy:  -212.39523585621041
    Total Energy =                       -212.3952358562104337
  Basis Set: CC-PVTZ
  Basis Set:
  Charge       = 0
  Multiplicity = 1
  Basis Set: CC-PVTZ
  Basis Set:

    Orbital Energies (a.u.)
    -----------------------

    Doubly Occupied:

       1A    -15.526617     2A    -11.238656     3A    -11.212802
       4A    -11.207699     5A    -11.205572     6A     -1.178580
       7A     -1.058013     8A     -0.958397     9A     -0.847377
      10A     -0.790521    11A     -0.663501    12A     -0.624421
      13A     -0.622119    14A     -0.584349    15A     -0.554069
      16A     -0.526519    17A     -0.504691    18A     -0.470523
      19A     -0.463445    20A     -0.455870    21A     -0.384217

  @DF-RHF Final Energy:  -212.39523668514624

   => Energetics <=

    Nuclear Repulsion Energy =            187.3235577722923040
    One-Electron Energy =                -657.2816721465956107
    Two-Electron Energy =                 257.5628776891571761
    DFT Exchange-Correlation Energy =       0.0000000000000000
    Empirical Dispersion Energy =           0.0000000000000000
    PCM Polarization Energy =               0.0000000000000000
    EFP Energy =                            0.0000000000000000
    Total Energy =                       -212.3952366851461306
    Molecular point group: c1
  Basis Set: CC-PVTZ
  Basis Set:

  -Total Gradient:
     Atom            X                  Y                   Z
    ------   -----------------  -----------------  -----------------
       1        0.000039250385    -0.000013885719    -0.000004001839
       2        0.000075199787    -0.000007846622    -0.000024164794
       3       -0.000078371880    -0.000064270011     0.000041002064
       4       -0.000000197712     0.000011560598     0.000001130569
       5       -0.000738609523    -0.001074161433     0.000495167680
       6        0.000000658518    -0.000010494092     0.000010481833
       7       -0.000009332316     0.000021198736    -0.000004603900
       8        0.000004555161    -0.000084777387     0.001367923455
       9        0.000609814576     0.000957304950    -0.000646468251
      10        0.000019388149     0.000000857691    -0.000006907974
      11       -0.000000115336     0.000008564337     0.000042245418
      12        0.000091256742     0.000241166790    -0.001273266936
      13       -0.000014247956     0.000015826881    -0.000005462690
      14        0.000002792649    -0.000003471851     0.000011585009
      15       -0.000012574657     0.000003640962    -0.000000213066
      16        0.000010533414    -0.000001213829    -0.000004446579

  **** Optimization is complete! (in 4 steps) ****
    Final optimized geometry and variables:
    Molecular point group: c1

    Geometry (in Angstrom), charge = 0, multiplicity = 1:

    H            3.179541693326     0.043409051228     0.072796315654
    N            2.346684956356    -0.504386597907     0.117245641098
    C            1.170850094522     0.337807352458     0.261216264070
    H            2.440930649833    -1.121457671874     0.896860795215
    C           -0.102787459815    -0.497423922198     0.255711494690
    H            1.149121955286     1.025511691281    -0.578179116012
    H            1.192483361278     0.948766960470     1.164682475404
    C           -1.383515294550     0.356861693120     0.323798543543
    H           -0.098661389212    -1.099692752589    -0.645531154816
    H           -0.067753965535    -1.191291840126     1.090504816962
    C           -2.206573070191     0.313026015869    -0.961277243981
    H           -1.119886875981     1.390392794999     0.528092620148
    H           -2.004641056326     0.035118426709     1.152018692251
    H           -1.621795465695     0.650708919189    -1.810691837391
    H           -3.083341412569     0.946948896695    -0.889387614484
    H           -2.542331944059    -0.696001451290    -1.174838587576

  Mulliken Charges: (a.u.)
   Center  Symbol    Alpha    Beta     Spin     Total
       1     H     0.43020  0.43020  0.00000  0.13961
       2     N     3.69006  3.69006  0.00000 -0.38012
       3     C     3.02447  3.02447  0.00000 -0.04893
       4     H     0.43080  0.43080  0.00000  0.13840
       5     C     3.08846  3.08846  0.00000 -0.17693
       6     H     0.45691  0.45691  0.00000  0.08617
       7     H     0.46816  0.46816  0.00000  0.06368
       8     C     3.09479  3.09479  0.00000 -0.18957
       9     H     0.44967  0.44967  0.00000  0.10065
      10     H     0.45479  0.45479  0.00000  0.09042
      11     C     3.14625  3.14625  0.00000 -0.29250
      12     H     0.45637  0.45637  0.00000  0.08726
      13     H     0.44967  0.44967  0.00000  0.10066
      14     H     0.45469  0.45469  0.00000  0.09061
      15     H     0.45047  0.45047  0.00000  0.09907
      16     H     0.45424  0.45424  0.00000  0.09152

   Total alpha = 21.00000, Total beta = 21.00000, Total charge = -0.00000

*** Psi4 exiting successfully. Buy a developer a beer!
