  ==> Input File <==

--------------------------------------------------------------------------
set {
	reference rhf
	basis 6-31G*
}

set_num_threads( 1 )
memory 2 gb

molecule MOL {
0 1

O	 -0.672478	 -0.090880	 0.058361
C	 0.486307	 0.169203	 0.000779
C	 1.608116	 -0.841643	 0.000302
O	 0.954107	 1.407656	 -0.069975
C	 2.990107	 -0.200498	 -0.000684
H	 1.468623	 -1.481519	 -0.865924
H	 1.469683	 -1.481289	 0.866878
H	 3.129736	 0.423364	 -0.875135
H	 3.757882	 -0.966877	 -0.001197
H	 3.130964	 0.423383	 0.873533
C	 0.005717	 2.469684	 -0.077387
C	 0.779402	 3.768436	 -0.160840
H	 -0.590087	 2.416530	 0.823600
H	 -0.657459	 2.344326	 -0.922417
H	 1.442831	 3.876388	 0.689670
H	 0.091966	 4.608087	 -0.168982
H	 1.375088	 3.803919	 -1.065912

	symmetry c1
}
set optking {
	frozen_dihedral = ("
		2 4 11 13,
		11 4 2 3
	")
}

ee = energy('scf')
oeprop('DIPOLE', 'QUADRUPOLE', 'MULLIKEN_CHARGES')
f=open( 'psi4out.xyz', 'w' )
f.write( "17  " )
f.write( str(ee) + "\n" )
f.write( MOL.save_string_xyz() )
f.close()
--------------------------------------------------------------------------

    Molecular point group: c1

    Geometry (in Angstrom), charge = 0, multiplicity = 1:

       Center              X                  Y                   Z               Mass
    ------------   -----------------  -----------------  -----------------  -----------------
           O         -1.551048882456    -1.065910616443     0.094519856255    15.994914619560
           C         -0.392263882456    -0.805827616443     0.036937856255    12.000000000000
           C          0.729545117544    -1.816673616443     0.036460856255    12.000000000000
           O          0.075536117544     0.432625383557    -0.033816143745    15.994914619560
           C          2.111536117544    -1.175528616443     0.035474856255    12.000000000000
           H          0.590052117544    -2.456549616443    -0.829765143745     1.007825032070
           H          0.591112117544    -2.456319616443     0.903036856255     1.007825032070
           H          2.251165117544    -0.551666616443    -0.838976143745     1.007825032070
           H          2.879311117544    -1.941907616443     0.034961856255     1.007825032070
           H          2.252393117544    -0.551647616443     0.909691856255     1.007825032070
           C         -0.872853882456     1.494653383557    -0.041228143745    12.000000000000
           C         -0.099168882456     2.793405383557    -0.124681143745    12.000000000000
           H         -1.468657882456     1.441499383557     0.859758856255     1.007825032070
           H         -1.536029882456     1.369295383557    -0.886258143745     1.007825032070
           H          0.564260117544     2.901357383557     0.725828856255     1.007825032070
           H         -0.786604882456     3.633056383557    -0.132823143745     1.007825032070
           H          0.496517117544     2.828888383557    -1.029753143745     1.007825032070

  Charge       = 0
  Multiplicity = 1
  Basis Set: 6-31G*
  Basis Set:

    Orbital Energies (a.u.)
    -----------------------

    Doubly Occupied:

       1A    -20.602736     2A    -20.540903     3A    -11.371672
       4A    -11.285272     5A    -11.237545     6A    -11.223118
       7A    -11.217624     8A     -1.468232     9A     -1.360890
      10A     -1.075289    11A     -1.028895    12A     -0.902502
      13A     -0.861259    14A     -0.777951    15A     -0.690653
      16A     -0.681599    17A     -0.671540    18A     -0.630039
      19A     -0.571972    20A     -0.569602    21A     -0.552154
      22A     -0.548543    23A     -0.521543    24A     -0.519104
      25A     -0.505481    26A     -0.491842    27A     -0.449719
      28A     -0.430416

  @DF-RHF Final Energy:  -344.90802050254797

   => Energetics <=

    Nuclear Repulsion Energy =            319.4530993228004263
    One-Electron Energy =               -1103.1460555428820953
    Two-Electron Energy =                 438.7849357175331306
    DFT Exchange-Correlation Energy =       0.0000000000000000
    Empirical Dispersion Energy =           0.0000000000000000
    PCM Polarization Energy =               0.0000000000000000
    EFP Energy =                            0.0000000000000000
    Total Energy =                       -344.9080205025485384

  Mulliken Charges: (a.u.)
   Center  Symbol    Alpha    Beta     Spin     Total
       1     O     4.28855  4.28855  0.00000 -0.57710
       2     C     2.60156  2.60156  0.00000  0.79688
       3     C     3.21249  3.21249  0.00000 -0.42498
       4     O     4.31233  4.31233  0.00000 -0.62465
       5     C     3.23638  3.23638  0.00000 -0.47276
       6     H     0.39788  0.39788  0.00000  0.20424
       7     H     0.39770  0.39770  0.00000  0.20460
       8     H     0.41158  0.41158  0.00000  0.17685
       9     H     0.41830  0.41830  0.00000  0.16340
      10     H     0.41290  0.41290  0.00000  0.17420
      11     C     3.00186  3.00186  0.00000 -0.00372
      12     C     3.24876  3.24876  0.00000 -0.49752
      13     H     0.40976  0.40976  0.00000  0.18047
      14     H     0.40986  0.40986  0.00000  0.18028
      15     H     0.41203  0.41203  0.00000  0.17594
      16     H     0.41596  0.41596  0.00000  0.16808
      17     H     0.41210  0.41210  0.00000  0.17581

   Total alpha = 28.00000, Total beta = 28.00000, Total charge =  0.00000
