  ==> Input File <==

--------------------------------------------------------------------------
set {
	reference rhf
	basis cc-pvtz
}

set_num_threads( 4 )
memory 2 gb

molecule MOL {
0 1

H	 -1.132267	 0.598804	 0.585162
N	 -0.712187	 0.000026	 -0.093397
C	 0.734067	 -0.000020	 0.038424
H	 -0.988541	 0.334508	 -0.991838
H	 1.140372	 -0.872115	 -0.458226
H	 1.140363	 0.872301	 -0.457869
H	 1.095085	 -0.000244	 1.065614

	symmetry c1
}
set optking {
	frozen_dihedral = ("
		1 2 3 7
	")
}

ee = optimize('scf')
oeprop('DIPOLE', 'QUADRUPOLE', 'MULLIKEN_CHARGES')
f=open( 'psi4out.xyz', 'w' )
f.write( "7  " )
f.write( str(ee) + "\n" )
f.write( MOL.save_string_xyz() )
f.close()
--------------------------------------------------------------------------

    Molecular point group: c1
  Charge       = 0
  Multiplicity = 1
  Basis Set: CC-PVTZ
  Basis Set:
  @DF-RHF Final Energy:   -95.25115431427548
    Total Energy =                        -95.2511543142754817
    Molecular point group: c1
  Basis Set: CC-PVTZ
  Basis Set:
  Basis Set: CC-PVTZ
  Basis Set:
  @DF-RHF Final Energy:   -95.25269233435597
    Total Energy =                        -95.2526923343559844
  Basis Set: CC-PVTZ
  Basis Set:
  Basis Set: CC-PVTZ
  Basis Set:
  @DF-RHF Final Energy:   -95.25288507983581
    Total Energy =                        -95.2528850798358491
  Basis Set: CC-PVTZ
  Basis Set:
  Basis Set: CC-PVTZ
  Basis Set:
  @DF-RHF Final Energy:   -95.25288876929594
    Total Energy =                        -95.2528887692959358
  Basis Set: CC-PVTZ
  Basis Set:
  Charge       = 0
  Multiplicity = 1
  Basis Set: CC-PVTZ
  Basis Set:

    Orbital Energies (a.u.)
    -----------------------

    Doubly Occupied:

       1A    -15.527041     2A    -11.235480     3A     -1.170756
       4A     -0.897183     5A     -0.667458     6A     -0.601707
       7A     -0.559910     8A     -0.518243     9A     -0.383727

  @DF-RHF Final Energy:   -95.25288917745304

   => Energetics <=

    Nuclear Repulsion Energy =             42.3799701737995775
    One-Electron Energy =                -212.1427128891858160
    Two-Electron Energy =                  74.5098535379331821
    DFT Exchange-Correlation Energy =       0.0000000000000000
    Empirical Dispersion Energy =           0.0000000000000000
    PCM Polarization Energy =               0.0000000000000000
    EFP Energy =                            0.0000000000000000
    Total Energy =                        -95.2528891774530706
    Molecular point group: c1
  Basis Set: CC-PVTZ
  Basis Set:

  -Total Gradient:
     Atom            X                  Y                   Z
    ------   -----------------  -----------------  -----------------
       1       -0.000120462596    -0.001819291459     0.001496666752
       2        0.000075901827     0.002820790787    -0.001878890414
       3        0.000075611309    -0.003164913937     0.000339154422
       4        0.000010988091    -0.000000184243     0.000016857268
       5       -0.000014649465     0.000032731557     0.000004762168
       6       -0.000016227587    -0.000013248883    -0.000007468540
       7       -0.000011161578     0.002144116178     0.000028918344

  **** Optimization is complete! (in 5 steps) ****
    Final optimized geometry and variables:
    Molecular point group: c1

    Geometry (in Angstrom), charge = 0, multiplicity = 1:

    H           -1.128913240267     0.556741998974     0.647308066999
    N           -0.715814620700    -0.030714895430    -0.043090338207
    C            0.733516126615    -0.025090125581     0.051737847183
    H           -1.031787068560     0.270749511552    -0.938686842101
    H            1.142661485120    -0.911920243580    -0.416049214299
    H            1.205297191834     0.843627318688    -0.404263956288
    H            1.024669842738    -0.033691243130     1.094370515043

  Mulliken Charges: (a.u.)
   Center  Symbol    Alpha    Beta     Spin     Total
       1     H     0.42679  0.42679  0.00000  0.14641
       2     N     3.68938  3.68938  0.00000 -0.37876
       3     C     3.06957  3.06957  0.00000 -0.13914
       4     H     0.42773  0.42773  0.00000  0.14454
       5     H     0.45733  0.45733  0.00000  0.08534
       6     H     0.47166  0.47166  0.00000  0.05669
       7     H     0.45755  0.45755  0.00000  0.08491

   Total alpha =  9.00000, Total beta =  9.00000, Total charge =  0.00000
