  ==> Input File <==

--------------------------------------------------------------------------
set {
	reference rhf
	basis 6-31G*
}

set_num_threads( 1 )
memory 2 gb

molecule MOL {
0 1

H	 -0.616068	 -1.486221	 0.563045
N	 -0.626943	 -0.667432	 -0.000092
C	 -1.813513	 -0.387278	 -0.776161
C	 0.469286	 0.129090	 0.000148
H	 -2.015002	 -1.187596	 -1.480361
H	 -1.650377	 0.527147	 -1.322917
H	 -2.678531	 -0.263526	 -0.133152
C	 1.788933	 -0.616240	 -0.000037
O	 0.411098	 1.327768	 -0.000049
H	 1.872803	 -1.245775	 -0.880381
H	 2.595421	 0.101576	 0.003713
H	 1.870096	 -1.252171	 0.875943

	symmetry c1
}
set optking {
	frozen_dihedral = ("
		4 2 3 5
	")
}

ee = energy('scf')
oeprop('DIPOLE', 'QUADRUPOLE', 'MULLIKEN_CHARGES')
f=open( 'psi4out.xyz', 'w' )
f.write( "12  " )
f.write( str(ee) + "\n" )
f.write( MOL.save_string_xyz() )
f.close()
--------------------------------------------------------------------------

    Molecular point group: c1

    Geometry (in Angstrom), charge = 0, multiplicity = 1:

       Center              X                  Y                   Z               Mass
    ------------   -----------------  -----------------  -----------------  -----------------
           H         -0.650376047480    -1.439051293529     0.723303953990     1.007825032070
           N         -0.661251047480    -0.620262293529     0.160166953990    14.003074004780
           C         -1.847821047480    -0.340108293529    -0.615902046010    12.000000000000
           C          0.434977952520     0.176259706471     0.160406953990    12.000000000000
           H         -2.049310047480    -1.140426293529    -1.320102046010     1.007825032070
           H         -1.684685047480     0.574316706471    -1.162658046010     1.007825032070
           H         -2.712839047480    -0.216356293529     0.027106953990     1.007825032070
           C          1.754624952520    -0.569070293529     0.160221953990    12.000000000000
           O          0.376789952520     1.374937706471     0.160209953990    15.994914619560
           H          1.838494952520    -1.198605293529    -0.720122046010     1.007825032070
           H          2.561112952520     0.148745706471     0.163971953990     1.007825032070
           H          1.835787952520    -1.205001293529     1.036201953990     1.007825032070

  Charge       = 0
  Multiplicity = 1
  Basis Set: 6-31G*
  Basis Set:

    Orbital Energies (a.u.)
    -----------------------

    Doubly Occupied:

       1A    -20.526385     2A    -15.568794     3A    -11.344517
       4A    -11.256982     5A    -11.227473     6A     -1.388276
       7A     -1.225119     8A     -1.012273     9A     -0.932979
      10A     -0.785088    11A     -0.687169    12A     -0.647304
      13A     -0.635078    14A     -0.585249    15A     -0.582351
      16A     -0.558506    17A     -0.547957    18A     -0.497722
      19A     -0.417294    20A     -0.378303

  @DF-RHF Final Energy:  -246.98926392270940

   => Energetics <=

    Nuclear Repulsion Energy =            181.0434715232630936
    One-Electron Energy =                -694.4556460966838358
    Two-Electron Energy =                 266.4229106507122538
    DFT Exchange-Correlation Energy =       0.0000000000000000
    Empirical Dispersion Energy =           0.0000000000000000
    PCM Polarization Energy =               0.0000000000000000
    EFP Energy =                            0.0000000000000000
    Total Energy =                       -246.9892639227085169

  Mulliken Charges: (a.u.)
   Center  Symbol    Alpha    Beta     Spin     Total
       1     H     0.31156  0.31156  0.00000  0.37689
       2     N     3.89341  3.89341  0.00000 -0.78683
       3     C     3.13692  3.13692  0.00000 -0.27383
       4     C     2.64392  2.64392  0.00000  0.71216
       5     H     0.41819  0.41819  0.00000  0.16362
       6     H     0.39581  0.39581  0.00000  0.20838
       7     H     0.41541  0.41541  0.00000  0.16918
       8     C     3.28630  3.28630  0.00000 -0.57259
       9     O     4.28397  4.28397  0.00000 -0.56794
      10     H     0.40550  0.40550  0.00000  0.18900
      11     H     0.39618  0.39618  0.00000  0.20765
      12     H     0.41283  0.41283  0.00000  0.17433

   Total alpha = 20.00000, Total beta = 20.00000, Total charge = -0.00000
