  ==> Input File <==

--------------------------------------------------------------------------
set {
	reference rhf
	basis 6-31G*
}

set_num_threads( 4 )
memory 2 gb

molecule MOL {
0 1

H	 -2.499100	 -0.730091	 -0.745082
O	 -2.347518	 -0.290803	 0.079804
C	 -1.184022	 0.487508	 -0.006784
C	 0.062599	 -0.378592	 0.031606
H	 -1.176523	 1.099369	 -0.904519
H	 -1.187323	 1.153111	 0.844927
O	 0.317891	 -0.822811	 -1.263491
H	 -0.089828	 -1.224920	 0.704269
H	 0.897941	 0.200533	 0.420711
C	 1.460602	 -1.608594	 -1.389579
H	 1.390478	 -2.512341	 -0.787122
H	 1.552150	 -1.887468	 -2.430132
H	 2.352962	 -1.062717	 -1.090406

	symmetry c1
}
set optking {
	frozen_dihedral = ("
		8 4 3 5
	")
}

ee = optimize('scf')
oeprop('DIPOLE', 'QUADRUPOLE', 'MULLIKEN_CHARGES')
f=open( 'psi4out.xyz', 'w' )
f.write( "13  " )
f.write( str(ee) + "\n" )
f.write( MOL.save_string_xyz() )
f.close()
--------------------------------------------------------------------------

    Molecular point group: c1
  Charge       = 0
  Multiplicity = 1
  Basis Set: 6-31G*
  Basis Set:
  @DF-RHF Final Energy:  -267.95074316649300
    Total Energy =                       -267.9507431664930550
    Molecular point group: c1
  Basis Set: 6-31G*
  Basis Set:
  Basis Set: 6-31G*
  Basis Set:
  @DF-RHF Final Energy:  -267.95171507564146
    Total Energy =                       -267.9517150756416299
  Basis Set: 6-31G*
  Basis Set:
  Basis Set: 6-31G*
  Basis Set:
  @DF-RHF Final Energy:  -267.95194666347868
    Total Energy =                       -267.9519466634787364
  Basis Set: 6-31G*
  Basis Set:
  Basis Set: 6-31G*
  Basis Set:
  @DF-RHF Final Energy:  -267.95195957842094
    Total Energy =                       -267.9519595784211106
  Basis Set: 6-31G*
  Basis Set:
  Charge       = 0
  Multiplicity = 1
  Basis Set: 6-31G*
  Basis Set:

    Orbital Energies (a.u.)
    -----------------------

    Doubly Occupied:

       1A    -20.565210     2A    -20.550641     3A    -11.272326
       4A    -11.272184     5A    -11.268496     6A     -1.390982
       7A     -1.355576     8A     -1.019237     9A     -0.917924
      10A     -0.837926    11A     -0.703402    12A     -0.681123
      13A     -0.659589    14A     -0.632753    15A     -0.592619
      16A     -0.574571    17A     -0.539520    18A     -0.490743
      19A     -0.486848    20A     -0.435299    21A     -0.424826

  @DF-RHF Final Energy:  -267.95196049054084

   => Energetics <=

    Nuclear Repulsion Energy =            193.4912403557291611
    One-Electron Energy =                -749.5428078899678894
    Two-Electron Energy =                 288.0996070436978584
    DFT Exchange-Correlation Energy =       0.0000000000000000
    Empirical Dispersion Energy =           0.0000000000000000
    PCM Polarization Energy =               0.0000000000000000
    EFP Energy =                            0.0000000000000000
    Total Energy =                       -267.9519604905408983
    Molecular point group: c1
  Basis Set: 6-31G*
  Basis Set:

  -Total Gradient:
     Atom            X                  Y                   Z
    ------   -----------------  -----------------  -----------------
       1        0.000010205222    -0.000006934967    -0.000028094998
       2       -0.000027832573     0.000013344541     0.000027800058
       3        0.002771191205     0.004532754946     0.002647773617
       4        0.001861752116     0.002920056037     0.004992841855
       5       -0.002668919104    -0.004290819954    -0.003063736242
       6        0.000025548001    -0.000016483356    -0.000008738576
       7       -0.000035053629     0.000011100539    -0.000006498016
       8       -0.001926743668    -0.003164431911    -0.004588540096
       9       -0.000013012465    -0.000014168537     0.000008163876
      10        0.000028896329    -0.000001520671     0.000014287903
      11       -0.000005455399    -0.000002743380     0.000005599878
      12       -0.000021232038     0.000022942783     0.000006906610
      13        0.000000656002    -0.000003096068    -0.000007765867

  **** Optimization is complete! (in 5 steps) ****
    Final optimized geometry and variables:
    Molecular point group: c1

    Geometry (in Angstrom), charge = 0, multiplicity = 1:

    H           -1.935052511825    -0.319722980843    -0.271912290674
    O           -1.965387459408     0.196668869307     0.522788697724
    C           -0.832771408603     1.024892773739     0.547873776403
    C            0.446478134292     0.211361293343     0.574477178425
    H           -0.824586401184     1.652752848524    -0.338263060720
    H           -0.917534874607     1.642700965925     1.431529691184
    O            0.674628145308    -0.242897230642    -0.732817275330
    H            0.306972002521    -0.649819536730     1.223851893276
    H            1.290903516312     0.802030223482     0.925551993120
    C            1.763774783243    -1.101591045176    -0.862625452634
    H            1.635236985710    -2.001035674485    -0.263830675064
    H            1.838117185869    -1.380813210673    -1.904618202794
    H            2.689794751115    -0.615824525581    -0.561510467134

  Mulliken Charges: (a.u.)
   Center  Symbol    Alpha    Beta     Spin     Total
       1     H     0.27732  0.27732  0.00000  0.44536
       2     O     4.37215  4.37215  0.00000 -0.74429
       3     C     3.00078  3.00078  0.00000 -0.00156
       4     C     3.00675  3.00675  0.00000 -0.01351
       5     H     0.41918  0.41918  0.00000  0.16163
       6     H     0.41495  0.41495  0.00000  0.17010
       7     O     4.31240  4.31240  0.00000 -0.62480
       8     H     0.42082  0.42082  0.00000  0.15836
       9     H     0.42858  0.42858  0.00000  0.14283
      10     C     3.08002  3.08002  0.00000 -0.16004
      11     H     0.42779  0.42779  0.00000  0.14442
      12     H     0.41105  0.41105  0.00000  0.17790
      13     H     0.42821  0.42821  0.00000  0.14359

   Total alpha = 21.00000, Total beta = 21.00000, Total charge =  0.00000
