  ==> Input File <==

--------------------------------------------------------------------------
set {
	reference rhf
	basis 6-31G*
}

set_num_threads( 1 )
memory 2 gb

molecule MOL {
0 1

H	 2.159149	 -1.327963	 -0.157213
N	 2.434251	 -0.367735	 -0.081097
C	 1.267428	 0.496480	 0.024474
H	 2.958506	 -0.150480	 -0.907458
C	 -0.016086	 -0.325158	 -0.029487
H	 1.288818	 1.183521	 -0.816092
H	 1.267576	 1.109062	 0.929528
C	 -1.282277	 0.529072	 0.046735
H	 -0.012495	 -0.908639	 -0.945788
H	 -0.015903	 -1.041248	 0.791956
C	 -2.563920	 -0.301775	 -0.006060
H	 -1.284084	 1.244622	 -0.773004
H	 -1.271387	 1.115393	 0.963286
H	 -2.621848	 -0.873522	 -0.927727
H	 -3.445135	 0.329952	 0.047812
H	 -2.609542	 -1.004582	 0.821105

	symmetry c1
}
set optking {
	frozen_dihedral = ("
		6 3 5 9,
		12 8 5 9
	")
}

ee = energy('scf')
oeprop('DIPOLE', 'QUADRUPOLE', 'MULLIKEN_CHARGES')
f=open( 'psi4out.xyz', 'w' )
f.write( "16  " )
f.write( str(ee) + "\n" )
f.write( MOL.save_string_xyz() )
f.close()
--------------------------------------------------------------------------

    Molecular point group: c1

    Geometry (in Angstrom), charge = 0, multiplicity = 1:

       Center              X                  Y                   Z               Mass
    ------------   -----------------  -----------------  -----------------  -----------------
           H          2.168256663330    -1.318489489528    -0.134105921596     1.007825032070
           N          2.443358663330    -0.358261489528    -0.057989921596    14.003074004780
           C          1.276535663330     0.505953510472     0.047581078404    12.000000000000
           H          2.967613663330    -0.141006489528    -0.884350921596     1.007825032070
           C         -0.006978336670    -0.315684489528    -0.006379921596    12.000000000000
           H          1.297925663330     1.192994510472    -0.792984921596     1.007825032070
           H          1.276683663330     1.118535510472     0.952635078404     1.007825032070
           C         -1.273169336670     0.538545510472     0.069842078404    12.000000000000
           H         -0.003387336670    -0.899165489528    -0.922680921596     1.007825032070
           H         -0.006795336670    -1.031774489528     0.815063078404     1.007825032070
           C         -2.554812336670    -0.292301489528     0.017047078404    12.000000000000
           H         -1.274976336670     1.254095510472    -0.749896921596     1.007825032070
           H         -1.262279336670     1.124866510472     0.986393078404     1.007825032070
           H         -2.612740336670    -0.864048489528    -0.904619921596     1.007825032070
           H         -3.436027336670     0.339425510472     0.070919078404     1.007825032070
           H         -2.600434336670    -0.995108489528     0.844212078404     1.007825032070

  Charge       = 0
  Multiplicity = 1
  Basis Set: 6-31G*
  Basis Set:

    Orbital Energies (a.u.)
    -----------------------

    Doubly Occupied:

       1A    -15.529286     2A    -11.239869     3A    -11.218539
       4A    -11.216174     5A    -11.210975     6A     -1.177499
       7A     -1.062344     8A     -0.959879     9A     -0.846679
      10A     -0.799879    11A     -0.665013    12A     -0.637919
      13A     -0.594988    14A     -0.586218    15A     -0.566715
      16A     -0.522206    17A     -0.511049    18A     -0.475049
      19A     -0.473235    20A     -0.465616    21A     -0.374088

  @DF-RHF Final Energy:  -212.31127575312354

   => Energetics <=

    Nuclear Repulsion Energy =            186.7217143353780102
    One-Electron Energy =                -655.7995560037783207
    Two-Electron Energy =                 256.7665659152769422
    DFT Exchange-Correlation Energy =       0.0000000000000000
    Empirical Dispersion Energy =           0.0000000000000000
    PCM Polarization Energy =               0.0000000000000000
    EFP Energy =                            0.0000000000000000
    Total Energy =                       -212.3112757531233683

  Mulliken Charges: (a.u.)
   Center  Symbol    Alpha    Beta     Spin     Total
       1     H     0.33141  0.33141  0.00000  0.33718
       2     N     3.92867  3.92867  0.00000 -0.85735
       3     C     3.04548  3.04548  0.00000 -0.09097
       4     H     0.33241  0.33241  0.00000  0.33519
       5     C     3.16827  3.16827  0.00000 -0.33655
       6     H     0.42882  0.42882  0.00000  0.14235
       7     H     0.42127  0.42127  0.00000  0.15747
       8     C     3.15483  3.15483  0.00000 -0.30967
       9     H     0.42519  0.42519  0.00000  0.14963
      10     H     0.41988  0.41988  0.00000  0.16024
      11     C     3.23911  3.23911  0.00000 -0.47821
      12     H     0.42253  0.42253  0.00000  0.15494
      13     H     0.42055  0.42055  0.00000  0.15891
      14     H     0.42186  0.42186  0.00000  0.15628
      15     H     0.41865  0.41865  0.00000  0.16270
      16     H     0.42107  0.42107  0.00000  0.15787

   Total alpha = 21.00000, Total beta = 21.00000, Total charge = -0.00000
