  ==> Input File <==

--------------------------------------------------------------------------
set {
	reference rhf
	basis 6-31G*
}

set_num_threads( 4 )
memory 2 gb

molecule MOL {
0 1

O	 -2.042549	 -1.228399	 -0.269030
C	 -1.653912	 -0.146171	 0.050137
C	 -0.332303	 0.024011	 0.778412
C	 -2.438579	 1.106236	 -0.272369
C	 0.845713	 -0.001731	 -0.208243
H	 -0.323783	 0.953829	 1.340327
H	 -0.235459	 -0.796807	 1.480410
C	 2.200309	 0.136118	 0.488247
H	 0.733710	 0.800019	 -0.936072
H	 0.811185	 -0.933796	 -0.764304
C	 3.314365	 -0.624407	 -0.229866
H	 2.466334	 1.188727	 0.556595
H	 2.115520	 -0.225762	 1.510217
H	 3.446489	 -0.261421	 -1.245168
H	 3.091416	 -1.685878	 -0.284784
H	 4.261783	 -0.511344	 0.287476
H	 -3.277823	 0.863061	 -0.908988
H	 -1.806773	 1.843019	 -0.759671
H	 -2.802853	 1.554979	 0.648059

	symmetry c1
}
set optking {
	frozen_dihedral = ("
		11 8 5 9
	")
}

ee = optimize('scf')
oeprop('DIPOLE', 'QUADRUPOLE', 'MULLIKEN_CHARGES')
f=open( 'psi4out.xyz', 'w' )
f.write( "19  " )
f.write( str(ee) + "\n" )
f.write( MOL.save_string_xyz() )
f.close()
--------------------------------------------------------------------------

    Molecular point group: c1
  Charge       = 0
  Multiplicity = 1
  Basis Set: 6-31G*
  Basis Set:
  @DF-RHF Final Energy:  -309.06190000277292
    Total Energy =                       -309.0619000027729726
    Molecular point group: c1
  Basis Set: 6-31G*
  Basis Set:
  Basis Set: 6-31G*
  Basis Set:
  @DF-RHF Final Energy:  -309.06196060690627
    Total Energy =                       -309.0619606069062684
  Basis Set: 6-31G*
  Basis Set:
  Basis Set: 6-31G*
  Basis Set:
  @DF-RHF Final Energy:  -309.06212393067869
    Total Energy =                       -309.0621239306784673
  Basis Set: 6-31G*
  Basis Set:
  Basis Set: 6-31G*
  Basis Set:
  @DF-RHF Final Energy:  -309.06204081540375
    Total Energy =                       -309.0620408154039183
  Basis Set: 6-31G*
  Basis Set:
  Basis Set: 6-31G*
  Basis Set:
  @DF-RHF Final Energy:  -309.06214449483139
    Total Energy =                       -309.0621444948312728
  Basis Set: 6-31G*
  Basis Set:
  Basis Set: 6-31G*
  Basis Set:
  @DF-RHF Final Energy:  -309.06211963106864
    Total Energy =                       -309.0621196310690380
  Basis Set: 6-31G*
  Basis Set:
  Basis Set: 6-31G*
  Basis Set:
  @DF-RHF Final Energy:  -309.06219338925752
    Total Energy =                       -309.0621933892573452
  Basis Set: 6-31G*
  Basis Set:
  Charge       = 0
  Multiplicity = 1
  Basis Set: 6-31G*
  Basis Set:

    Orbital Energies (a.u.)
    -----------------------

    Doubly Occupied:

       1A    -20.547510     2A    -11.324381     3A    -11.230573
       4A    -11.229337     5A    -11.228303     6A    -11.224747
       7A    -11.214436     8A     -1.393169     9A     -1.090038
      10A     -1.028683    11A     -0.983627    12A     -0.889446
      13A     -0.806779    14A     -0.733751    15A     -0.660137
      16A     -0.648085    17A     -0.619114    18A     -0.613307
      19A     -0.583321    20A     -0.577676    21A     -0.547595
      22A     -0.535351    23A     -0.519478    24A     -0.495910
      25A     -0.481467    26A     -0.475132    27A     -0.465539
      28A     -0.396545

  @DF-RHF Final Energy:  -309.06219359851775

   => Energetics <=

    Nuclear Repulsion Energy =            301.2407960904104129
    One-Electron Energy =               -1015.5191060165209365
    Two-Electron Energy =                 405.2161163275923172
    DFT Exchange-Correlation Energy =       0.0000000000000000
    Empirical Dispersion Energy =           0.0000000000000000
    PCM Polarization Energy =               0.0000000000000000
    EFP Energy =                            0.0000000000000000
    Total Energy =                       -309.0621935985182063
    Molecular point group: c1
  Basis Set: 6-31G*
  Basis Set:

  -Total Gradient:
     Atom            X                  Y                   Z
    ------   -----------------  -----------------  -----------------
       1       -0.000010699839     0.000008134854     0.000008382903
       2        0.000013541523    -0.000006189448    -0.000008756909
       3        0.000015327998    -0.000011158166    -0.000005026799
       4       -0.000000028660     0.000006277368    -0.000006588845
       5        0.002117957853    -0.004087612062    -0.003088118550
       6        0.000005422572    -0.000000166006    -0.000003873959
       7        0.000007525861    -0.000004140790    -0.000003894385
       8        0.000349553639     0.004197960555    -0.001739048079
       9       -0.001907178703     0.002502653625     0.003066896320
      10       -0.000000948784    -0.000003583516     0.000011209325
      11       -0.000576768518    -0.002597443367     0.001768770537
      12        0.000003430426    -0.000005606803    -0.000003489076
      13       -0.000006148848    -0.000004321106     0.000002190151
      14        0.000000895315    -0.000003347023    -0.000006404476
      15       -0.000003880862     0.000006881203     0.000005302221
      16        0.000001032480     0.000003773849     0.000003748727
      17       -0.000005064158     0.000002984745    -0.000001212699
      18       -0.000003124806    -0.000000706453     0.000001990108
      19       -0.000000844486    -0.000004391461    -0.000002076515

  **** Optimization is complete! (in 8 steps) ****
    Final optimized geometry and variables:
    Molecular point group: c1

    Geometry (in Angstrom), charge = 0, multiplicity = 1:

    O           -2.060410286806    -1.104714654103    -0.311706143116
    C           -1.651638224821    -0.030816896339     0.010830320678
    C           -0.326323786874     0.111608932305     0.737779439668
    C           -2.413994704703     1.236709917927    -0.306314308753
    C            0.851308461600     0.062784982627    -0.251541996696
    H           -0.297061283567     1.041048484618     1.300191307606
    H           -0.244543132285    -0.711136806477     1.439222556051
    C            2.209652788067     0.240712975347     0.446270204446
    H            0.715820751369     0.856390218376    -0.983105607126
    H            0.814173608700    -0.881848565281    -0.783219448641
    C            3.347578003702    -0.491551598420    -0.264674789191
    H            2.441326427946     1.298574593526     0.534288652231
    H            2.143058504714    -0.139402122382     1.463009180506
    H            3.455527626333    -0.155622088625    -1.292435780328
    H            3.163148740617    -1.561201993285    -0.284819445960
    H            4.295217935255    -0.325747376801     0.238123695446
    H           -3.256280867130     1.011561734765    -0.945561549223
    H           -1.769116266196     1.965606070578    -0.788322175877
    H           -2.772168385488     1.686253507963     0.616137098679

  Mulliken Charges: (a.u.)
   Center  Symbol    Alpha    Beta     Spin     Total
       1     O     4.26228  4.26228  0.00000 -0.52455
       2     C     2.73724  2.73724  0.00000  0.52552
       3     C     3.20175  3.20175  0.00000 -0.40349
       4     C     3.28953  3.28953  0.00000 -0.57906
       5     C     3.16235  3.16235  0.00000 -0.32469
       6     H     0.41675  0.41675  0.00000  0.16650
       7     H     0.40105  0.40105  0.00000  0.19789
       8     C     3.15345  3.15345  0.00000 -0.30689
       9     H     0.41949  0.41949  0.00000  0.16101
      10     H     0.40489  0.40489  0.00000  0.19022
      11     C     3.24054  3.24054  0.00000 -0.48109
      12     H     0.41975  0.41975  0.00000  0.16049
      13     H     0.41990  0.41990  0.00000  0.16020
      14     H     0.42054  0.42054  0.00000  0.15893
      15     H     0.41828  0.41828  0.00000  0.16344
      16     H     0.41845  0.41845  0.00000  0.16310
      17     H     0.39701  0.39701  0.00000  0.20598
      18     H     0.41008  0.41008  0.00000  0.17985
      19     H     0.40668  0.40668  0.00000  0.18664

   Total alpha = 28.00000, Total beta = 28.00000, Total charge =  0.00000
