                              Psi4 1.0.54 Driver

  ==> Input File <==

--------------------------------------------------------------------------
set {
	reference rhf
	basis cc-pvtz
}

set_num_threads( 4 )
memory 2 gb

molecule MOL {
0 1

H	 -2.644180	 -0.653737	 1.272255
C	 -2.092774	 -0.380414	 0.391915
O	 -0.808934	 -0.154049	 0.752536
F	 -2.163230	 -1.351640	 -0.507133
F	 -2.627232	 0.691260	 -0.169301
C	 -0.158484	 -1.108155	 1.504798
C	 0.604341	 -0.378695	 2.608094
Cl	 0.965321	 -2.053035	 0.509911
H	 -0.837184	 -1.801739	 1.969506
F	 1.235759	 -1.234240	 3.371231
F	 -0.250705	 0.276558	 3.356996
F	 1.468563	 0.474564	 2.131313

	symmetry c1
}
set optking {
	frozen_dihedral = ("
		6 3 2 4
	")
}

ee,wfn = optimize('scf', return_wfn=True)
oeprop( wfn, 'DIPOLE', 'QUADRUPOLE', 'MULLIKEN_CHARGES')
f=open( 'psi4out.xyz', 'w' )
f.write( "12  " )
f.write( str(ee) + "\n" )
f.write( MOL.save_string_xyz() )
f.close()
--------------------------------------------------------------------------

    Molecular point group: c1
  Charge       = 0
  Multiplicity = 1
  Basis Set: CC-PVTZ
  Basis Set:
  @DF-RHF Final Energy: -1146.61434212706217
    Total Energy =                      -1146.6143421270633098
    Molecular point group: c1
  Basis Set: CC-PVTZ
  Basis Set:
  Basis Set: CC-PVTZ
  Basis Set:
  @DF-RHF Final Energy: -1146.61620160005168
    Total Energy =                      -1146.6162016000503172
  Basis Set: CC-PVTZ
  Basis Set:
  Basis Set: CC-PVTZ
  Basis Set:
  @DF-RHF Final Energy: -1146.61671441398175
    Total Energy =                      -1146.6167144139817538
  Basis Set: CC-PVTZ
  Basis Set:
  Basis Set: CC-PVTZ
  Basis Set:
  @DF-RHF Final Energy: -1146.61675462181984
    Total Energy =                      -1146.6167546218198368
  Basis Set: CC-PVTZ
  Basis Set:
  @DF-RHF Final Energy: -1146.61675381370515
    Total Energy =                      -1146.6167538137049178
  @DF-RHF Final Energy: -1146.61676338318739
    Total Energy =                      -1146.6167633831871626
  Basis Set: CC-PVTZ
  Basis Set:
  @DF-RHF Final Energy: -1146.61676532734327
    Total Energy =                      -1146.6167653273423639
  Basis Set: CC-PVTZ
  Basis Set:
  Basis Set: CC-PVTZ
  Basis Set:
  @DF-RHF Final Energy: -1146.61676657649559
    Total Energy =                      -1146.6167665764960475
  Basis Set: CC-PVTZ
  Basis Set:
  Basis Set: CC-PVTZ
  Basis Set:
  @DF-RHF Final Energy: -1146.61676769636233
    Total Energy =                      -1146.6167676963621034
  Basis Set: CC-PVTZ
  Basis Set:
  Charge       = 0
  Multiplicity = 1
  Basis Set: CC-PVTZ
  Basis Set:

    Orbital Energies (a.u.)
    -----------------------

    Doubly Occupied:

       1A   -104.859409     2A    -26.359512     3A    -26.359402
       4A    -26.357239     5A    -26.343537     6A    -26.340358
       7A    -20.642037     8A    -11.524690     9A    -11.486252
      10A    -11.407429    11A    -10.584916    12A     -8.051710
      13A     -8.049702    14A     -8.049635    15A     -1.772519
      16A     -1.724999    17A     -1.667472    18A     -1.666169
      19A     -1.646481    20A     -1.490163    21A     -1.179685
      22A     -1.054351    23A     -0.990304    24A     -0.936537
      25A     -0.866107    26A     -0.861885    27A     -0.853852
      28A     -0.837186    29A     -0.820131    30A     -0.794916
      31A     -0.738739    32A     -0.735828    33A     -0.710366
      34A     -0.701378    35A     -0.689781    36A     -0.685153
      37A     -0.668868    38A     -0.666975    39A     -0.654263
      40A     -0.640196    41A     -0.617749    42A     -0.571477
      43A     -0.522026    44A     -0.480972    45A     -0.472899

  @DF-RHF Final Energy: -1146.61676790457568

   => Energetics <=

    Nuclear Repulsion Energy =            729.3212426385294975
    One-Electron Energy =               -3041.6055126188093709
    Two-Electron Energy =                1165.6675020757045331
    DFT Exchange-Correlation Energy =       0.0000000000000000
    Empirical Dispersion Energy =           0.0000000000000000
    PCM Polarization Energy =               0.0000000000000000
    EFP Energy =                            0.0000000000000000
    Total Energy =                      -1146.6167679045754539
    Molecular point group: c1
  Basis Set: CC-PVTZ
  Basis Set:

  -Total Gradient:
     Atom            X                  Y                   Z
    ------   -----------------  -----------------  -----------------
       1       -0.000009596773    -0.000005409667    -0.000004368255
       2       -0.000052888585    -0.000072033468     0.000131434653
       3        0.000103078476    -0.000044667542    -0.000119687814
       4        0.000007048741     0.000061823920    -0.000065715493
       5        0.000004013121    -0.000000617069    -0.000002727843
       6       -0.000100002912     0.000095064295     0.000091702393
       7        0.000050332948    -0.000018439118     0.000000878072
       8        0.000025707889    -0.000019746748    -0.000016002829
       9        0.000004117666    -0.000010572670    -0.000005703113
      10       -0.000029518637     0.000015181114    -0.000002232130
      11       -0.000005172415    -0.000013289893     0.000002228600
      12        0.000002880551     0.000012706783    -0.000009806259

  **** Optimization is complete! (in 10 steps) ****
    Final optimized geometry and variables:
    Molecular point group: c1

    Geometry (in Angstrom), charge = 0, multiplicity = 1:

    H           -2.471446441853    -0.011672536576    -0.121290157721
    C           -1.837596760226     0.317208028707    -0.932169474873
    O           -0.558362545148     0.545031203166    -0.532380695630
    F           -1.871877374237    -0.594166093073    -1.889901982528
    F           -2.287109332109     1.444387533565    -1.421804600566
    C            0.079419327962    -0.447510978885     0.164780728470
    C            0.850431862757     0.213718120858     1.305480073132
    CL           1.185130905323    -1.374312376966    -0.866951166944
    H           -0.609051787523    -1.154492436037     0.601228104872
    F            1.467086950582    -0.687408159360     2.026587615700
    F           -0.005766451285     0.835797861975     2.084914733608
    F            1.723155006210     1.081285110616     0.878812779847

  Mulliken Charges: (a.u.)
   Center  Symbol    Alpha    Beta     Spin     Total
       1     H     0.48121  0.48121  0.00000  0.03758
       2     C     2.74475  2.74475  0.00000  0.51050
       3     O     4.14209  4.14209  0.00000 -0.28417
       4     F     4.61181  4.61181  0.00000 -0.22362
       5     F     4.59813  4.59813  0.00000 -0.19625
       6     C     2.93700  2.93700  0.00000  0.12601
       7     C     2.66747  2.66747  0.00000  0.66506
       8    CL     8.57097  8.57097  0.00000 -0.14194
       9     H     0.43962  0.43962  0.00000  0.12076
      10     F     4.60201  4.60201  0.00000 -0.20402
      11     F     4.60732  4.60732  0.00000 -0.21463
      12     F     4.59763  4.59763  0.00000 -0.19525

   Total alpha = 45.00000, Total beta = 45.00000, Total charge =  0.00000

*** Psi4 exiting successfully. Buy a developer a beer!
