  ==> Input File <==

--------------------------------------------------------------------------
set {
	reference rhf
	basis 6-31G*
}

set_num_threads( 4 )
memory 2 gb

molecule MOL {
0 1

O	 -2.042549	 -1.228399	 -0.269030
C	 -1.653912	 -0.146171	 0.050137
C	 -0.332303	 0.024011	 0.778412
C	 -2.438579	 1.106236	 -0.272369
C	 0.845713	 -0.001731	 -0.208243
H	 -0.323783	 0.953829	 1.340327
H	 -0.235459	 -0.796807	 1.480410
C	 2.198910	 -0.126430	 0.493426
H	 0.838137	 0.902702	 -0.814070
H	 0.707253	 -0.834702	 -0.890978
C	 3.371568	 -0.161291	 -0.485789
H	 2.327097	 0.705699	 1.182306
H	 2.205975	 -1.029702	 1.098916
H	 3.411524	 0.745117	 -1.083185
H	 3.287781	 -1.002773	 -1.167207
H	 4.317108	 -0.253116	 0.039139
H	 -3.277823	 0.863061	 -0.908988
H	 -1.806773	 1.843019	 -0.759671
H	 -2.802853	 1.554979	 0.648059

	symmetry c1
}
set optking {
	frozen_dihedral = ("
		9 5 3 2
	")
}

ee = optimize('scf')
oeprop('DIPOLE', 'QUADRUPOLE', 'MULLIKEN_CHARGES')
f=open( 'psi4out.xyz', 'w' )
f.write( "19  " )
f.write( str(ee) + "\n" )
f.write( MOL.save_string_xyz() )
f.close()
--------------------------------------------------------------------------

    Molecular point group: c1
  Charge       = 0
  Multiplicity = 1
  Basis Set: 6-31G*
  Basis Set:
  @DF-RHF Final Energy:  -309.06471552815145
    Total Energy =                       -309.0647155281511687
    Molecular point group: c1
  Basis Set: 6-31G*
  Basis Set:
  Basis Set: 6-31G*
  Basis Set:
  @DF-RHF Final Energy:  -309.06474906967446
    Total Energy =                       -309.0647490696744057
  Basis Set: 6-31G*
  Basis Set:
  Basis Set: 6-31G*
  Basis Set:
  @DF-RHF Final Energy:  -309.06478226725153
    Total Energy =                       -309.0647822672515304
  Basis Set: 6-31G*
  Basis Set:
  Basis Set: 6-31G*
  Basis Set:
  @DF-RHF Final Energy:  -309.06477216041799
    Total Energy =                       -309.0647721604182152
  Basis Set: 6-31G*
  Basis Set:
  Basis Set: 6-31G*
  Basis Set:
  @DF-RHF Final Energy:  -309.06478218359837
    Total Energy =                       -309.0647821835983109
  Basis Set: 6-31G*
  Basis Set:
  Basis Set: 6-31G*
  Basis Set:
  @DF-RHF Final Energy:  -309.06478415771386
    Total Energy =                       -309.0647841577142572
  Basis Set: 6-31G*
  Basis Set:
  Charge       = 0
  Multiplicity = 1
  Basis Set: 6-31G*
  Basis Set:

    Orbital Energies (a.u.)
    -----------------------

    Doubly Occupied:

       1A    -20.547519     2A    -11.324730     3A    -11.230356
       4A    -11.229328     5A    -11.228233     6A    -11.224313
       7A    -11.214550     8A     -1.393404     9A     -1.090842
      10A     -1.028963    11A     -0.983690    12A     -0.889755
      13A     -0.806302    14A     -0.733110    15A     -0.664589
      16A     -0.643656    17A     -0.623135    18A     -0.612934
      19A     -0.581863    20A     -0.573257    21A     -0.553273
      22A     -0.535516    23A     -0.515562    24A     -0.497724
      25A     -0.480975    26A     -0.475368    27A     -0.467405
      28A     -0.396922

  @DF-RHF Final Energy:  -309.06478424673372

   => Energetics <=

    Nuclear Repulsion Energy =            301.1683734856009664
    One-Electron Energy =               -1015.3717650974367643
    Two-Electron Energy =                 405.1386073651019046
    DFT Exchange-Correlation Energy =       0.0000000000000000
    Empirical Dispersion Energy =           0.0000000000000000
    PCM Polarization Energy =               0.0000000000000000
    EFP Energy =                            0.0000000000000000
    Total Energy =                       -309.0647842467338364
    Molecular point group: c1
  Basis Set: 6-31G*
  Basis Set:

  -Total Gradient:
     Atom            X                  Y                   Z
    ------   -----------------  -----------------  -----------------
       1       -0.000015930987    -0.000001010074    -0.000001617992
       2        0.000093192010    -0.001496823346     0.000198460867
       3        0.000161647455     0.002244748689     0.000106257252
       4        0.000029157504     0.000010874718    -0.000032895708
       5       -0.001456086999    -0.001693083394    -0.001660918697
       6        0.000001120374     0.000002814981     0.000010138142
       7       -0.000004895087     0.000001522904    -0.000013119176
       8       -0.000000767995     0.000002786060    -0.000004376999
       9        0.001202524818     0.000944812132     0.001390559034
      10        0.000015226396    -0.000009582905    -0.000005982060
      11       -0.000000032187     0.000000107155    -0.000000091116
      12        0.000000092898     0.000000162381    -0.000000201901
      13       -0.000007148078     0.000002417472    -0.000004068204
      14       -0.000002976984    -0.000001854392    -0.000000024359
      15        0.000002052624    -0.000002902684     0.000000642330
      16        0.000000438665     0.000001574932     0.000000048009
      17       -0.000002088596    -0.000000917678     0.000003279126
      18       -0.000009408533     0.000002595961     0.000007056458
      19       -0.000006117293    -0.000008242907     0.000006854993

  **** Optimization is complete! (in 7 steps) ****
    Final optimized geometry and variables:
    Molecular point group: c1

    Geometry (in Angstrom), charge = 0, multiplicity = 1:

    O           -2.052999676727    -1.146420360501    -0.263226836336
    C           -1.656729169155    -0.065368663457     0.050303755384
    C           -0.328938779357     0.096689636104     0.770055033541
    C           -2.436302569138     1.190338698550    -0.270926991085
    C            0.848250119834     0.052130236158    -0.218444407315
    H           -0.304520832754     1.023519173006     1.335686025688
    H           -0.243042212461    -0.728391220175     1.468783580051
    C            2.200250793606    -0.055670176248     0.490375294083
    H            0.846884256941     0.952645689001    -0.829566000510
    H            0.717869643913    -0.793251894560    -0.886857395956
    C            3.378140167085    -0.072723726510    -0.482923424744
    H            2.313691529134     0.776855434698     1.181539057091
    H            2.215996045319    -0.959982086747     1.093793181200
    H            3.410809843989     0.836468948639    -1.076567679784
    H            3.307621514398    -0.912486739466    -1.168040401194
    H            4.322017189990    -0.155788778828     0.046458040554
    H           -3.287958591259     0.948909509391    -0.891545308643
    H           -1.805160217297     1.915620379279    -0.776317124981
    H           -2.780882434493     1.652370641950     0.650496651107

  Mulliken Charges: (a.u.)
   Center  Symbol    Alpha    Beta     Spin     Total
       1     O     4.26197  4.26197  0.00000 -0.52394
       2     C     2.73791  2.73791  0.00000  0.52418
       3     C     3.20040  3.20040  0.00000 -0.40080
       4     C     3.28940  3.28940  0.00000 -0.57880
       5     C     3.16105  3.16105  0.00000 -0.32209
       6     H     0.41618  0.41618  0.00000  0.16763
       7     H     0.40119  0.40119  0.00000  0.19761
       8     C     3.15198  3.15198  0.00000 -0.30396
       9     H     0.42107  0.42107  0.00000  0.15786
      10     H     0.40593  0.40593  0.00000  0.18814
      11     C     3.24044  3.24044  0.00000 -0.48089
      12     H     0.42247  0.42247  0.00000  0.15506
      13     H     0.41864  0.41864  0.00000  0.16272
      14     H     0.42142  0.42142  0.00000  0.15716
      15     H     0.41886  0.41886  0.00000  0.16229
      16     H     0.41740  0.41740  0.00000  0.16520
      17     H     0.39708  0.39708  0.00000  0.20584
      18     H     0.40967  0.40967  0.00000  0.18066
      19     H     0.40695  0.40695  0.00000  0.18610

   Total alpha = 28.00000, Total beta = 28.00000, Total charge = -0.00000
