  ==> Input File <==

--------------------------------------------------------------------------
set {
	reference rhf
	basis 6-31G*
}

set_num_threads( 4 )
memory 2 gb

molecule MOL {
0 1

O	 1.403847	 0.854706	 -2.086688
C	 0.563984	 0.913406	 -1.228849
C	 -0.596893	 1.880841	 -1.364935
N	 0.623947	 0.147590	 -0.102813
H	 -0.623257	 2.588160	 -0.543298
H	 -0.461681	 2.418663	 -2.290954
H	 -1.548437	 1.360831	 -1.392033
C	 1.665360	 -0.855771	 0.000151
C	 -0.461164	 0.013268	 0.844148
H	 2.465253	 -0.618490	 -0.692587
H	 1.257730	 -1.821716	 -0.242189
H	 2.081488	 -0.891645	 1.004627
H	 -0.050007	 -0.147052	 1.833737
H	 -1.066725	 0.904731	 0.883176
H	 -1.104721	 -0.832074	 0.607410

	symmetry c1
}
set optking {
	frozen_dihedral = ("
		2 4 8 10
	")
}

ee = optimize('scf')
oeprop('DIPOLE', 'QUADRUPOLE', 'MULLIKEN_CHARGES')
f=open( 'psi4out.xyz', 'w' )
f.write( "15  " )
f.write( str(ee) + "\n" )
f.write( MOL.save_string_xyz() )
f.close()
--------------------------------------------------------------------------

    Molecular point group: c1
  Charge       = 0
  Multiplicity = 1
  Basis Set: 6-31G*
  Basis Set:
  @DF-RHF Final Energy:  -286.02942043781775
    Total Energy =                       -286.0294204378177483
    Molecular point group: c1
  Basis Set: 6-31G*
  Basis Set:
  Basis Set: 6-31G*
  Basis Set:
  @DF-RHF Final Energy:  -286.02976486162981
    Total Energy =                       -286.0297648616298716
  Basis Set: 6-31G*
  Basis Set:
  Basis Set: 6-31G*
  Basis Set:
  @DF-RHF Final Energy:  -286.02978781106526
    Total Energy =                       -286.0297878110654892
  Basis Set: 6-31G*
  Basis Set:
  Basis Set: 6-31G*
  Basis Set:
  @DF-RHF Final Energy:  -286.02977776515820
    Total Energy =                       -286.0297777651583147
  Basis Set: 6-31G*
  Basis Set:
  Basis Set: 6-31G*
  Basis Set:
  @DF-RHF Final Energy:  -286.02981442583075
    Total Energy =                       -286.0298144258305229
  Basis Set: 6-31G*
  Basis Set:
  Charge       = 0
  Multiplicity = 1
  Basis Set: 6-31G*
  Basis Set:

    Orbital Energies (a.u.)
    -----------------------

    Doubly Occupied:

       1A    -20.513941     2A    -15.584036     3A    -11.341684
       4A    -11.266454     5A    -11.247754     6A    -11.228286
       7A     -1.383989     8A     -1.243744     9A     -1.014201
      10A     -0.972717    11A     -0.919338    12A     -0.737951
      13A     -0.681103    14A     -0.659274    15A     -0.651300
      16A     -0.589335    17A     -0.576033    18A     -0.567403
      19A     -0.561563    20A     -0.546914    21A     -0.529616
      22A     -0.503719    23A     -0.409962    24A     -0.366347

  @DF-RHF Final Energy:  -286.02981451155381

   => Energetics <=

    Nuclear Repulsion Energy =            252.3639789126727067
    One-Electron Energy =                -888.5942572063690932
    Two-Electron Energy =                 350.2004637821424922
    DFT Exchange-Correlation Energy =       0.0000000000000000
    Empirical Dispersion Energy =           0.0000000000000000
    PCM Polarization Energy =               0.0000000000000000
    EFP Energy =                            0.0000000000000000
    Total Energy =                       -286.0298145115539228
    Molecular point group: c1
  Basis Set: 6-31G*
  Basis Set:

  -Total Gradient:
     Atom            X                  Y                   Z
    ------   -----------------  -----------------  -----------------
       1       -0.000016378909    -0.000020233369     0.000018546909
       2        0.000031028752     0.000031013030    -0.000008093932
       3        0.000027191171     0.000044987568     0.000018563775
       4       -0.000008458146    -0.000035273993    -0.000008310003
       5       -0.000011568105     0.000007061229    -0.000021968788
       6       -0.000006842733    -0.000002459919    -0.000004767831
       7        0.000005141332    -0.000017368094     0.000001585428
       8       -0.000006512794     0.000010618361     0.000051569895
       9       -0.000023230553    -0.000007975046    -0.000002241629
      10       -0.000006356610    -0.000013782008    -0.000053469911
      11        0.000013885052     0.000009416691     0.000007117444
      12        0.000002346078     0.000013842212    -0.000004317046
      13        0.000001496685    -0.000002957434    -0.000007288637
      14        0.000001408316    -0.000017061084     0.000011945986
      15       -0.000003149539     0.000000171855     0.000001128339

  **** Optimization is complete! (in 6 steps) ****
    Final optimized geometry and variables:
    Molecular point group: c1

    Geometry (in Angstrom), charge = 0, multiplicity = 1:

    O            0.874048436961     0.376098869793    -1.435610593458
    C            0.033380990708     0.430574674794    -0.578245214449
    C           -1.127844223511     1.398041097956    -0.711525299160
    N            0.091641857728    -0.340505749074     0.544109603249
    H           -1.150585606669     2.106991932847     0.108861663799
    H           -0.995973626677     1.934269035789    -1.638941365589
    H           -2.079705992956     0.878429927448    -0.733835803069
    C            1.133481693209    -1.343188130770     0.647825656436
    C           -0.989546963152    -0.471402696720     1.495926391656
    H            1.929626761238    -1.104243079567    -0.035490713682
    H            0.751497575685    -2.333774537316     0.410956641178
    H            1.520968258143    -1.360092741820     1.660721491959
    H           -0.574254474280    -0.633011754186     2.483621091109
    H           -1.592539150388     0.421626809797     1.537947493374
    H           -1.636340749355    -1.315044059336     1.262080174023

  Mulliken Charges: (a.u.)
   Center  Symbol    Alpha    Beta     Spin     Total
       1     O     4.30480  4.30480  0.00000 -0.60959
       2     C     2.62341  2.62341  0.00000  0.75318
       3     C     3.29874  3.29874  0.00000 -0.59748
       4     N     3.82383  3.82383  0.00000 -0.64766
       5     H     0.40654  0.40654  0.00000  0.18692
       6     H     0.39043  0.39043  0.00000  0.21915
       7     H     0.40786  0.40786  0.00000  0.18428
       8     C     3.14552  3.14552  0.00000 -0.29104
       9     C     3.14167  3.14167  0.00000 -0.28334
      10     H     0.38407  0.38407  0.00000  0.23187
      11     H     0.42001  0.42001  0.00000  0.15997
      12     H     0.41875  0.41875  0.00000  0.16250
      13     H     0.41065  0.41065  0.00000  0.17871
      14     H     0.40716  0.40716  0.00000  0.18568
      15     H     0.41656  0.41656  0.00000  0.16687

   Total alpha = 24.00000, Total beta = 24.00000, Total charge =  0.00000
