                              Psi4 1.0.54 Driver

  ==> Input File <==

--------------------------------------------------------------------------
set {
	reference rhf
	basis cc-pvtz
}

set_num_threads( 4 )
memory 2 gb

molecule MOL {
0 1

H	 -3.436473	 1.252944	 -1.023892
O	 -3.458596	 0.315260	 -0.960865
C	 -3.176635	 -0.080824	 0.355601
C	 -1.763371	 0.265266	 0.799691
H	 -3.321825	 -1.153438	 0.379502
H	 -3.895468	 0.357385	 1.043382
C	 -0.673390	 -0.426948	 -0.013392
H	 -1.631049	 1.344913	 0.747560
H	 -1.664587	 -0.001624	 1.849167
C	 0.737842	 -0.043159	 0.423759
H	 -0.806103	 -0.190518	 -1.063345
H	 -0.797221	 -1.503753	 0.074146
C	 1.824000	 -0.743224	 -0.390623
H	 0.850588	 1.033777	 0.343840
H	 0.868587	 -0.286314	 1.476203
C	 3.255957	 -0.453067	 0.062319
H	 1.718250	 -0.470599	 -1.438164
H	 1.658105	 -1.815850	 -0.339904
C	 3.749832	 0.958103	 -0.247246
H	 3.918738	 -1.165945	 -0.418620
H	 3.338302	 -0.637115	 1.130385
H	 3.673660	 1.172898	 -1.308443
H	 4.789427	 1.072719	 0.037967
H	 3.182355	 1.712507	 0.284213

	symmetry c1
}
set optking {
	frozen_dihedral = ("
		20 16 13 17
	")
}

ee,wfn = optimize('scf', return_wfn=True)
oeprop( wfn, 'DIPOLE', 'QUADRUPOLE', 'MULLIKEN_CHARGES')
f=open( 'psi4out.xyz', 'w' )
f.write( "24  " )
f.write( str(ee) + "\n" )
f.write( MOL.save_string_xyz() )
f.close()
--------------------------------------------------------------------------

    Molecular point group: c1
  Charge       = 0
  Multiplicity = 1
  Basis Set: CC-PVTZ
  Basis Set:
  @DF-RHF Final Energy:  -349.38032206914886
    Total Energy =                       -349.3803220691486899
    Molecular point group: c1
  Basis Set: CC-PVTZ
  Basis Set:
  Basis Set: CC-PVTZ
  Basis Set:
  @DF-RHF Final Energy:  -349.38032080058179
    Total Energy =                       -349.3803208005821261
  Basis Set: CC-PVTZ
  Basis Set:
  Basis Set: CC-PVTZ
  Basis Set:
  @DF-RHF Final Energy:  -349.38035567110097
    Total Energy =                       -349.3803556711011424
  Basis Set: CC-PVTZ
  Basis Set:
  Charge       = 0
  Multiplicity = 1
  Basis Set: CC-PVTZ
  Basis Set:

    Orbital Energies (a.u.)
    -----------------------

    Doubly Occupied:

       1A    -20.546274     2A    -11.265508     3A    -11.215172
       4A    -11.212025     5A    -11.210198     6A    -11.209404
       7A    -11.208931     8A    -11.205402     9A     -1.364123
      10A     -1.089813    11A     -1.049434    12A     -0.986881
      13A     -0.915913    14A     -0.850541    15A     -0.801269
      16A     -0.777792    17A     -0.681862    18A     -0.654609
      19A     -0.625595    20A     -0.621732    21A     -0.598495
      22A     -0.585364    23A     -0.559219    24A     -0.540923
      25A     -0.516045    26A     -0.511002    27A     -0.498801
      28A     -0.473325    29A     -0.468166    30A     -0.461088
      31A     -0.456669    32A     -0.451136    33A     -0.421178

  @DF-RHF Final Energy:  -349.38035575134580

   => Energetics <=

    Nuclear Repulsion Energy =            384.7356871817176511
    One-Electron Energy =               -1236.1643092595229518
    Two-Electron Energy =                 502.0482663264596681
    DFT Exchange-Correlation Energy =       0.0000000000000000
    Empirical Dispersion Energy =           0.0000000000000000
    PCM Polarization Energy =               0.0000000000000000
    EFP Energy =                            0.0000000000000000
    Total Energy =                       -349.3803557513456894
    Molecular point group: c1
  Basis Set: CC-PVTZ
  Basis Set:

  -Total Gradient:
     Atom            X                  Y                   Z
    ------   -----------------  -----------------  -----------------
       1       -0.000000365545     0.000001463345    -0.000002280506
       2       -0.000009000021     0.000007028312    -0.000004581078
       3        0.000012759518    -0.000004523174    -0.000010430078
       4        0.000002821199     0.000026043595    -0.000014715979
       5        0.000001520192    -0.000002378815     0.000003791489
       6        0.000004763692     0.000000986872     0.000001188463
       7       -0.000008568315    -0.000011672169     0.000006829254
       8        0.000001149668     0.000011909232     0.000009991782
       9        0.000002938391    -0.000006769130    -0.000008997502
      10        0.000000998842    -0.000023334548     0.000030060684
      11       -0.000003009132    -0.000015016919    -0.000000828977
      12        0.000004012508    -0.000001844220     0.000006722647
      13        0.000268455611    -0.001063580131    -0.000137645273
      14       -0.000004613286     0.000003966780     0.000011880674
      15       -0.000000723384    -0.000004950151     0.000008246814
      16        0.000045600318     0.000823421936    -0.000760414707
      17       -0.000222146594     0.000769484521     0.000201981558
      18        0.000006004060     0.000013112251     0.000011596521
      19        0.000003478376     0.000011736030    -0.000014983906
      20       -0.000083363829    -0.000517880117     0.000653723033
      21       -0.000011386588    -0.000007313032     0.000000849637
      22       -0.000004458402     0.000000918166     0.000006952766
      23       -0.000003063001    -0.000008196941    -0.000001186860
      24       -0.000003804283    -0.000002611690     0.000002249545

  **** Optimization is complete! (in 4 steps) ****
    Final optimized geometry and variables:
    Molecular point group: c1

    Geometry (in Angstrom), charge = 0, multiplicity = 1:

    H           -3.419444656786     1.289874148618    -1.009734561723
    O           -3.452511117902     0.352347665406    -0.949468898222
    C           -3.179335878703    -0.050491464922     0.366718513436
    C           -1.763498001594     0.277856320760     0.816107838094
    H           -3.337139089331    -1.121404902611     0.386926422231
    H           -3.895234378986     0.394057370266     1.053499380829
    C           -0.679086285812    -0.423420634314     0.003359053604
    H           -1.618805397838     1.356149353849     0.768639250631
    H           -1.670721691425     0.005764340566     1.864781240606
    C            0.735151086223    -0.058315675253     0.446651331510
    H           -0.805849638446    -0.180846535401    -1.045919287031
    H           -0.815757008088    -1.499125991460     0.085732691575
    C            1.816804649894    -0.769365010648    -0.365015975898
    H            0.861723763061     1.017527219396     0.370298298750
    H            0.859073764719    -0.305777255573     1.498783583642
    C            3.249732413230    -0.461838746736     0.074777020909
    H            1.701184441519    -0.508748611371    -1.414530563105
    H            1.653519738086    -1.841075713875    -0.296214406021
    C            3.723320036919     0.953450259167    -0.246079699735
    H            3.918447086042    -1.172153130535    -0.401583158138
    H            3.340637087543    -0.638480530169     1.143546370590
    H            3.654674639619     1.154156817712    -1.310382827815
    H            4.757550712239     1.090018339980     0.048805676892
    H            3.136597101374     1.703972579353     0.270059365474

  Mulliken Charges: (a.u.)
   Center  Symbol    Alpha    Beta     Spin     Total
       1     H     0.39530  0.39530  0.00000  0.20940
       2     O     4.20370  4.20370  0.00000 -0.40740
       3     C     2.97768  2.97768  0.00000  0.04464
       4     C     3.10174  3.10174  0.00000 -0.20348
       5     H     0.45891  0.45891  0.00000  0.08218
       6     H     0.46031  0.46031  0.00000  0.07939
       7     C     3.08693  3.08693  0.00000 -0.17386
       8     H     0.45934  0.45934  0.00000  0.08131
       9     H     0.45337  0.45337  0.00000  0.09325
      10     C     3.09116  3.09116  0.00000 -0.18231
      11     H     0.44637  0.44637  0.00000  0.10727
      12     H     0.45514  0.45514  0.00000  0.08972
      13     C     3.09414  3.09414  0.00000 -0.18828
      14     H     0.45384  0.45384  0.00000  0.09232
      15     H     0.45623  0.45623  0.00000  0.08754
      16     C     3.09025  3.09025  0.00000 -0.18049
      17     H     0.45423  0.45423  0.00000  0.09155
      18     H     0.44936  0.44936  0.00000  0.10128
      19     C     3.15119  3.15119  0.00000 -0.30237
      20     H     0.44836  0.44836  0.00000  0.10328
      21     H     0.45583  0.45583  0.00000  0.08835
      22     H     0.45496  0.45496  0.00000  0.09007
      23     H     0.44694  0.44694  0.00000  0.10611
      24     H     0.45474  0.45474  0.00000  0.09052

   Total alpha = 33.00000, Total beta = 33.00000, Total charge =  0.00000

*** Psi4 exiting successfully. Buy a developer a beer!
