  ==> Input File <==

--------------------------------------------------------------------------
set {
	reference rhf
	basis 6-31G*
}

set_num_threads( 4 )
memory 2 gb

molecule MOL {
0 1

H	 -2.098997	 -0.674324	 -0.616650
O	 -2.035884	 -0.060112	 0.102722
C	 -0.955155	 0.788182	 -0.092531
C	 0.353668	 0.040312	 -0.004810
H	 -0.985057	 1.290372	 -1.054184
H	 -0.974469	 1.533190	 0.688632
F	 0.760486	 -0.043556	 1.256949
F	 0.213854	 -1.192698	 -0.464525
F	 1.314676	 0.622699	 -0.692444

	symmetry c1
}
set optking {
	frozen_dihedral = ("
		7 4 3 5
	")
}

ee = optimize('scf')
oeprop('DIPOLE', 'QUADRUPOLE', 'MULLIKEN_CHARGES')
f=open( 'psi4out.xyz', 'w' )
f.write( "9  " )
f.write( str(ee) + "\n" )
f.write( MOL.save_string_xyz() )
f.close()
--------------------------------------------------------------------------

    Molecular point group: c1
  Charge       = 0
  Multiplicity = 1
  Basis Set: 6-31G*
  Basis Set:
  @DF-RHF Final Energy:  -450.65951955655117
    Total Energy =                       -450.6595195565516292
    Molecular point group: c1
  Basis Set: 6-31G*
  Basis Set:
  Basis Set: 6-31G*
  Basis Set:
  @DF-RHF Final Energy:  -450.66022559083962
    Total Energy =                       -450.6602255908393317
  Basis Set: 6-31G*
  Basis Set:
  Basis Set: 6-31G*
  Basis Set:
  @DF-RHF Final Energy:  -450.66046227887347
    Total Energy =                       -450.6604622788734673
  Basis Set: 6-31G*
  Basis Set:
  Basis Set: 6-31G*
  Basis Set:
  @DF-RHF Final Energy:  -450.66047972926515
    Total Energy =                       -450.6604797292654325
  Basis Set: 6-31G*
  Basis Set:
  Charge       = 0
  Multiplicity = 1
  Basis Set: 6-31G*
  Basis Set:

    Orbital Energies (a.u.)
    -----------------------

    Doubly Occupied:

       1A    -26.346979     2A    -26.341152     3A    -26.339939
       4A    -20.590596     5A    -11.501624     6A    -11.309439
       7A     -1.741053     8A     -1.641089     9A     -1.635764
      10A     -1.402982    11A     -1.046767    12A     -0.924481
      13A     -0.831231    14A     -0.828346    15A     -0.808921
      16A     -0.724201    17A     -0.712845    18A     -0.697827
      19A     -0.665813    20A     -0.659218    21A     -0.642708
      22A     -0.628403    23A     -0.616212    24A     -0.528556
      25A     -0.480417

  @DF-RHF Final Energy:  -450.66048101202841

   => Energetics <=

    Nuclear Repulsion Energy =            276.6317562197789357
    One-Electron Energy =               -1175.2913462126534796
    Two-Electron Energy =                 447.9991089808460174
    DFT Exchange-Correlation Energy =       0.0000000000000000
    Empirical Dispersion Energy =           0.0000000000000000
    PCM Polarization Energy =               0.0000000000000000
    EFP Energy =                            0.0000000000000000
    Total Energy =                       -450.6604810120285265
    Molecular point group: c1
  Basis Set: 6-31G*
  Basis Set:

  -Total Gradient:
     Atom            X                  Y                   Z
    ------   -----------------  -----------------  -----------------
       1        0.000014797645    -0.000007482117    -0.000017964361
       2        0.000120149369     0.000128093979    -0.000017735666
       3       -0.001944640986    -0.003945506465    -0.002732411887
       4       -0.002495515726    -0.004224495094     0.000972527852
       5        0.002162223809     0.004100827521     0.002123255552
       6       -0.000012616170     0.000007465676     0.000030569858
       7        0.002211841919     0.003805633838    -0.000248457367
       8       -0.000028576561     0.000156122659    -0.000066625903
       9       -0.000027663291    -0.000020659992    -0.000043158078

  **** Optimization is complete! (in 5 steps) ****
    Final optimized geometry and variables:
    Molecular point group: c1

    Geometry (in Angstrom), charge = 0, multiplicity = 1:

    H           -2.101524112812    -0.696497191759    -0.573009106051
    O           -2.057315989391    -0.023854934312     0.093344188507
    C           -0.955986122204     0.787682991394    -0.123493957362
    C            0.352924491687     0.028044045703    -0.005538742120
    H           -0.964289693313     1.293782555457    -1.083314787897
    H           -0.960615664294     1.549596063850     0.642217425903
    F            0.764299998723    -0.084025849957     1.243312042641
    F            0.253534222419    -1.189090186713    -0.517595318063
    F            1.308743915504     0.664072870529    -0.669006592713

  Mulliken Charges: (a.u.)
   Center  Symbol    Alpha    Beta     Spin     Total
       1     H     0.27208  0.27208  0.00000  0.45585
       2     O     4.36058  4.36058  0.00000 -0.72116
       3     C     3.06171  3.06171  0.00000 -0.12343
       4     C     2.45867  2.45867  0.00000  1.08266
       5     H     0.40811  0.40811  0.00000  0.18379
       6     H     0.39403  0.39403  0.00000  0.21194
       7     F     4.67684  4.67684  0.00000 -0.35368
       8     F     4.68391  4.68391  0.00000 -0.36782
       9     F     4.68408  4.68408  0.00000 -0.36816

   Total alpha = 25.00000, Total beta = 25.00000, Total charge = -0.00000
