  ==> Input File <==

--------------------------------------------------------------------------
set {
	reference rhf
	basis 6-31G*
}

set_num_threads( 4 )
memory 2 gb

molecule MOL {
0 1

H	 -4.236494	 0.538104	 0.039757
O	 -3.517110	 -0.026191	 -0.205115
C	 -2.306886	 0.532354	 0.237577
C	 -1.177863	 -0.397191	 -0.171080
H	 -2.156308	 1.517575	 -0.201710
H	 -2.315015	 0.655684	 1.319734
C	 0.198102	 0.111031	 0.262842
H	 -1.208843	 -0.518759	 -1.250427
H	 -1.368741	 -1.376554	 0.258909
C	 1.331804	 -0.827780	 -0.158768
H	 0.361943	 1.100838	 -0.156218
H	 0.217265	 0.229072	 1.345532
C	 2.723619	 -0.410569	 0.329459
H	 1.342964	 -0.912588	 -1.244120
H	 1.116806	 -1.824343	 0.220779
C	 2.729885	 0.776894	 1.293942
H	 3.330276	 -0.158642	 -0.536906
H	 3.209308	 -1.262233	 0.801623
H	 2.238932	 1.640297	 0.852875
H	 2.222162	 0.547426	 2.224930
H	 3.746476	 1.066806	 1.541424

	symmetry c1
}
set optking {
	frozen_dihedral = ("
		16 13 10 14
	")
}

ee = optimize('scf')
oeprop('DIPOLE', 'QUADRUPOLE', 'MULLIKEN_CHARGES')
f=open( 'psi4out.xyz', 'w' )
f.write( "21  " )
f.write( str(ee) + "\n" )
f.write( MOL.save_string_xyz() )
f.close()
--------------------------------------------------------------------------

    Molecular point group: c1
  Charge       = 0
  Multiplicity = 1
  Basis Set: 6-31G*
  Basis Set:
  @DF-RHF Final Energy:  -310.20270208252214
    Total Energy =                       -310.2027020825219665
    Molecular point group: c1
  Basis Set: 6-31G*
  Basis Set:
  Basis Set: 6-31G*
  Basis Set:
  @DF-RHF Final Energy:  -310.20298183222701
    Total Energy =                       -310.2029818322267829
  Basis Set: 6-31G*
  Basis Set:
  Basis Set: 6-31G*
  Basis Set:
  @DF-RHF Final Energy:  -310.20466984451991
    Total Energy =                       -310.2046698445200832
  Basis Set: 6-31G*
  Basis Set:
  Basis Set: 6-31G*
  Basis Set:
  @DF-RHF Final Energy:  -310.20478171792502
    Total Energy =                       -310.2047817179247886
  Basis Set: 6-31G*
  Basis Set:
  @DF-RHF Final Energy:  -310.20478009184319
    Total Energy =                       -310.2047800918434177
  Basis Set: 6-31G*
  Basis Set:
  @DF-RHF Final Energy:  -310.20478924552458
    Total Energy =                       -310.2047892455246938
  Basis Set: 6-31G*
  Basis Set:
  Basis Set: 6-31G*
  Basis Set:
  @DF-RHF Final Energy:  -310.20478760426676
    Total Energy =                       -310.2047876042667554
  Basis Set: 6-31G*
  Basis Set:
  Basis Set: 6-31G*
  Basis Set:
  @DF-RHF Final Energy:  -310.20479011542210
    Total Energy =                       -310.2047901154220995
  Basis Set: 6-31G*
  Basis Set:
  Charge       = 0
  Multiplicity = 1
  Basis Set: 6-31G*
  Basis Set:

    Orbital Energies (a.u.)
    -----------------------

    Doubly Occupied:

       1A    -20.551723     2A    -11.266902     3A    -11.215517
       4A    -11.215397     5A    -11.213873     6A    -11.210388
       7A    -11.208413     8A     -1.358523     9A     -1.083533
      10A     -1.030754    11A     -0.953860    12A     -0.878806
      13A     -0.809380    14A     -0.771647    15A     -0.691585
      16A     -0.663359    17A     -0.629554    18A     -0.596324
      19A     -0.580638    20A     -0.576896    21A     -0.531372
      22A     -0.528137    23A     -0.505547    24A     -0.487187
      25A     -0.484837    26A     -0.457722    27A     -0.446513
      28A     -0.443469    29A     -0.433755

  @DF-RHF Final Energy:  -310.20479014957550

   => Energetics <=

    Nuclear Repulsion Energy =            313.1041017221847369
    One-Electron Energy =               -1040.9665601242368211
    Two-Electron Energy =                 417.6576682524764692
    DFT Exchange-Correlation Energy =       0.0000000000000000
    Empirical Dispersion Energy =           0.0000000000000000
    PCM Polarization Energy =               0.0000000000000000
    EFP Energy =                            0.0000000000000000
    Total Energy =                       -310.2047901495756150
    Molecular point group: c1
  Basis Set: 6-31G*
  Basis Set:

  -Total Gradient:
     Atom            X                  Y                   Z
    ------   -----------------  -----------------  -----------------
       1       -0.000002506258    -0.000000640782    -0.000001712008
       2       -0.000004846361     0.000005058532    -0.000000169455
       3       -0.000000222309    -0.000004625329    -0.000000927247
       4        0.000000147396    -0.000007480300     0.000007377897
       5       -0.000000596147     0.000001479855     0.000000651917
       6       -0.000000390231    -0.000000191120    -0.000000694105
       7        0.000009895297    -0.000006608014    -0.000023914564
       8        0.000005404151    -0.000002180373     0.000003859419
       9       -0.000005848359     0.000000794081     0.000001419530
      10        0.000905896045    -0.002634562170    -0.000508253129
      11       -0.000000462804    -0.000002344996     0.000002231890
      12        0.000008914186    -0.000003134483     0.000002360376
      13       -0.000293869673    -0.001292300432     0.002301297401
      14       -0.000732220279     0.002638859627    -0.000178336492
      15       -0.000013957357     0.000004849823    -0.000003141103
      16        0.000110177487     0.001292120832    -0.001616503608
      17        0.000007982079     0.000008756890     0.000011334852
      18        0.000007437259     0.000008010358     0.000007370565
      19       -0.000000673375    -0.000003156844     0.000000013945
      20       -0.000003512948    -0.000004440486    -0.000003581116
      21        0.000003252209     0.000001735331    -0.000000684963

  **** Optimization is complete! (in 9 steps) ****
    Final optimized geometry and variables:
    Molecular point group: c1

    Geometry (in Angstrom), charge = 0, multiplicity = 1:

    H           -4.196691988441     0.516815907418    -0.272545558341
    O           -3.463240241225    -0.033706008603    -0.506836156894
    C           -2.274518101444     0.527438708057    -0.012032097903
    C           -1.122091790640    -0.379859640081    -0.405389102286
    H           -2.121473960809     1.524359665925    -0.423156846793
    H           -2.319214047910     0.625095382479     1.071820042668
    C            0.233181939920     0.134919280855     0.083284755116
    H           -1.118890555412    -0.478253318559    -1.487493330866
    H           -1.314577597600    -1.370606202876    -0.002815628138
    C            1.380671851406    -0.795310617920    -0.328987026696
    H            0.403243009653     1.131150539330    -0.318914066305
    H            0.206974126254     0.240059349408     1.164907290291
    C            2.814212530197    -0.375237500596     0.099942827959
    H            1.352717362746    -0.876017590287    -1.412102310845
    H            1.165713716248    -1.788176671526     0.055970357766
    C            2.937633229529     0.807595966372     1.065071328440
    H            3.387173720517    -0.132371928470    -0.790627582980
    H            3.313914478261    -1.231886934063     0.542249088855
    H            2.521177312661     1.718012321227     0.648081946955
    H            2.440307238999     0.616938953232     2.010918977478
    H            3.984492425040     0.997768996143     1.281638832274

  Mulliken Charges: (a.u.)
   Center  Symbol    Alpha    Beta     Spin     Total
       1     H     0.28119  0.28119  0.00000  0.43761
       2     O     4.37188  4.37188  0.00000 -0.74377
       3     C     2.98944  2.98944  0.00000  0.02113
       4     C     3.15922  3.15922  0.00000 -0.31844
       5     H     0.43298  0.43298  0.00000  0.13405
       6     H     0.43291  0.43291  0.00000  0.13418
       7     C     3.16269  3.16269  0.00000 -0.32537
       8     H     0.41499  0.41499  0.00000  0.17002
       9     H     0.41494  0.41494  0.00000  0.17013
      10     C     3.15526  3.15526  0.00000 -0.31051
      11     H     0.42298  0.42298  0.00000  0.15403
      12     H     0.42192  0.42192  0.00000  0.15616
      13     C     3.15544  3.15544  0.00000 -0.31088
      14     H     0.42005  0.42005  0.00000  0.15990
      15     H     0.42018  0.42018  0.00000  0.15963
      16     C     3.24184  3.24184  0.00000 -0.48368
      17     H     0.42088  0.42088  0.00000  0.15824
      18     H     0.41986  0.41986  0.00000  0.16028
      19     H     0.42068  0.42068  0.00000  0.15864
      20     H     0.42147  0.42147  0.00000  0.15706
      21     H     0.41920  0.41920  0.00000  0.16160

   Total alpha = 29.00000, Total beta = 29.00000, Total charge = -0.00000
