                              Psi4 1.0.54 Driver

  ==> Input File <==

--------------------------------------------------------------------------
set {
	reference rhf
	basis cc-pvtz
}

set_num_threads( 4 )
memory 2 gb

molecule MOL {
0 1

H	 3.502174	 -0.359120	 0.836056
N	 3.091268	 -0.241216	 -0.065538
C	 1.860978	 0.530248	 0.016256
H	 2.915874	 -1.153966	 -0.430878
C	 0.644130	 -0.381765	 -0.031064
H	 1.835721	 1.204666	 -0.833114
H	 1.808789	 1.151975	 0.911067
C	 -0.678115	 0.376691	 0.025731
H	 0.693998	 -0.977147	 -0.936845
H	 0.693309	 -1.082142	 0.800523
C	 -1.900706	 -0.535531	 -0.022488
H	 -0.725296	 1.079516	 -0.802982
H	 -0.715474	 0.974884	 0.933278
C	 -3.220513	 0.226854	 0.028039
H	 -1.865036	 -1.134397	 -0.928236
H	 -1.857948	 -1.236381	 0.806820
H	 -3.309098	 0.911849	 -0.808725
H	 -4.066838	 -0.449485	 -0.008086
H	 -3.301685	 0.809374	 0.939860

	symmetry c1
}
set optking {
	frozen_dihedral = ("
		1 2 3 6
	")
}

ee,wfn = optimize('scf', return_wfn=True)
oeprop( wfn, 'DIPOLE', 'QUADRUPOLE', 'MULLIKEN_CHARGES')
f=open( 'psi4out.xyz', 'w' )
f.write( "19  " )
f.write( str(ee) + "\n" )
f.write( MOL.save_string_xyz() )
f.close()
--------------------------------------------------------------------------

    Molecular point group: c1
  Charge       = 0
  Multiplicity = 1
  Basis Set: CC-PVTZ
  Basis Set:
  @DF-RHF Final Energy:  -251.44394728653012
    Total Energy =                       -251.4439472865300331
    Molecular point group: c1
  Basis Set: CC-PVTZ
  Basis Set:
  Basis Set: CC-PVTZ
  Basis Set:
  @DF-RHF Final Energy:  -250.43145231561476
    Total Energy =                       -250.4314523156150472
  Basis Set: CC-PVTZ
  Basis Set:
  Basis Set: CC-PVTZ
  Basis Set:
  @DF-RHF Final Energy:  -250.65754759174334
    Total Energy =                       -250.6575475917433096
  Basis Set: CC-PVTZ
  Basis Set:
  Basis Set: CC-PVTZ
  Basis Set:
  @DF-RHF Final Energy:  -251.05546539500810
    Total Energy =                       -251.0554653950080137
  Basis Set: CC-PVTZ
  Basis Set:
  @DF-RHF Final Energy:  -251.34119845866522
    Total Energy =                       -251.3411984586653602
  @DF-RHF Final Energy:  -251.43271540557856
    Total Energy =                       -251.4327154055785059
  @DF-RHF Final Energy:  -251.44175558211418
    Total Energy =                       -251.4417555821142400
  Basis Set: CC-PVTZ
  Basis Set:
  @DF-RHF Final Energy:  -251.44533035062827
    Total Energy =                       -251.4453303506281827
  Basis Set: CC-PVTZ
  Basis Set:
  Basis Set: CC-PVTZ
  Basis Set:
  @DF-RHF Final Energy:  -251.44566385101686
    Total Energy =                       -251.4456638510167750
  Basis Set: CC-PVTZ
  Basis Set:
  Basis Set: CC-PVTZ
  Basis Set:
  @DF-RHF Final Energy:  -251.44567373118363
    Total Energy =                       -251.4456737311838310
  Basis Set: CC-PVTZ
  Basis Set:
  Charge       = 0
  Multiplicity = 1
  Basis Set: CC-PVTZ
  Basis Set:

    Orbital Energies (a.u.)
    -----------------------

    Doubly Occupied:

       1A    -15.523146     2A    -11.237658     3A    -11.214319
       4A    -11.212929     5A    -11.211695     6A    -11.207158
       7A     -1.175467     8A     -1.076362     9A     -1.000789
      10A     -0.901945    11A     -0.819182    12A     -0.792837
      13A     -0.675486    14A     -0.640838    15A     -0.601687
      16A     -0.593873    17A     -0.570424    18A     -0.556829
      19A     -0.525616    20A     -0.501912    21A     -0.483558
      22A     -0.468324    23A     -0.465774    24A     -0.461540
      25A     -0.374326

  @DF-RHF Final Energy:  -251.44567449230883

   => Energetics <=

    Nuclear Repulsion Energy =            245.8655875812596321
    One-Electron Energy =                -826.0351846460691831
    Two-Electron Energy =                 328.7239225725007827
    DFT Exchange-Correlation Energy =       0.0000000000000000
    Empirical Dispersion Energy =           0.0000000000000000
    PCM Polarization Energy =               0.0000000000000000
    EFP Energy =                            0.0000000000000000
    Total Energy =                       -251.4456744923087399
    Molecular point group: c1
  Basis Set: CC-PVTZ
  Basis Set:

  -Total Gradient:
     Atom            X                  Y                   Z
    ------   -----------------  -----------------  -----------------
       1        0.001849046900     0.002126053439    -0.001297485835
       2       -0.002093250116    -0.002077578120     0.001738207012
       3       -0.000663665823    -0.002673108075    -0.000911419744
       4        0.000005528481     0.000012275686     0.000004969157
       5       -0.000001513655     0.000016986177     0.000010630619
       6        0.000920595303     0.002600981212     0.000456572267
       7       -0.000012792287    -0.000003558023    -0.000004962239
       8        0.000013261240     0.000004525345     0.000015866337
       9        0.000004339525     0.000000317449     0.000003479072
      10       -0.000003738870     0.000002644177     0.000009126351
      11        0.000008346413    -0.000005896154    -0.000037833612
      12       -0.000003245130    -0.000001045855    -0.000000804461
      13       -0.000001087779     0.000006902566     0.000001514278
      14       -0.000006440105     0.000000041427     0.000018274674
      15       -0.000000098081    -0.000011434763     0.000000732935
      16       -0.000003323552     0.000004168795    -0.000006159837
      17        0.000005083921    -0.000004686118     0.000006049468
      18       -0.000018547657    -0.000000831110    -0.000001688365
      19        0.000001501266     0.000003241945    -0.000005068078

  **** Optimization is complete! (in 11 steps) ****
    Final optimized geometry and variables:
    Molecular point group: c1

    Geometry (in Angstrom), charge = 0, multiplicity = 1:

    H            3.087065347750     0.417125643723     1.904065136495
    N            2.977078385678    -0.023184986242     1.018483711688
    C            1.844991420563     0.509621736892     0.275580017847
    H            2.915962640371    -1.008330433137     1.154304300673
    C            0.555796608511    -0.293468499341     0.407333016855
    H            2.118106728070     0.599409252778    -0.771850964717
    H            1.669851233415     1.525386749834     0.615236868211
    C           -0.599036955130     0.282156900881    -0.406385380676
    H            0.744769336599    -1.317009305174     0.089170041531
    H            0.276123806703    -0.344430138445     1.456904093662
    C           -1.887730417996    -0.526950003388    -0.288475398606
    H           -0.308203051778     0.340051519250    -1.452499618952
    H           -0.789194242502     1.304480621451    -0.087520230415
    C           -3.038220418636     0.055568851672    -1.102494039011
    H           -1.700435860741    -1.547933167226    -0.609689661112
    H           -2.179885853221    -0.585804631560     0.756441003872
    H           -2.790111050443     0.094848929184    -2.157960262115
    H           -3.936684291398    -0.541550112627    -0.996394865972
    H           -3.272623261765     1.065256560305    -0.781907878764

  Mulliken Charges: (a.u.)
   Center  Symbol    Alpha    Beta     Spin     Total
       1     H     0.42750  0.42750  0.00000  0.14499
       2     N     3.69927  3.69927  0.00000 -0.39855
       3     C     3.02036  3.02036  0.00000 -0.04073
       4     H     0.42729  0.42729  0.00000  0.14541
       5     C     3.08808  3.08808  0.00000 -0.17616
       6     H     0.45761  0.45761  0.00000  0.08478
       7     H     0.45948  0.45948  0.00000  0.08105
       8     C     3.09465  3.09465  0.00000 -0.18930
       9     H     0.45814  0.45814  0.00000  0.08373
      10     H     0.45779  0.45779  0.00000  0.08442
      11     C     3.08307  3.08307  0.00000 -0.16613
      12     H     0.45418  0.45418  0.00000  0.09164
      13     H     0.45492  0.45492  0.00000  0.09017
      14     C     3.14990  3.14990  0.00000 -0.29980
      15     H     0.45445  0.45445  0.00000  0.09110
      16     H     0.45473  0.45473  0.00000  0.09054
      17     H     0.45490  0.45490  0.00000  0.09019
      18     H     0.44848  0.44848  0.00000  0.10305
      19     H     0.45521  0.45521  0.00000  0.08958

   Total alpha = 25.00000, Total beta = 25.00000, Total charge = -0.00000

*** Psi4 exiting successfully. Buy a developer a beer!
