  ==> Input File <==

--------------------------------------------------------------------------
set {
	reference rhf
	basis 6-31G*
}

set_num_threads( 1 )
memory 2 gb

molecule MOL {
0 1

H	 -2.172150	 0.880146	 0.502514
C	 -2.018062	 -0.000025	 -0.114509
O	 -0.774054	 0.001095	 -0.743181
H	 -2.760490	 0.003458	 -0.901350
H	 -2.173624	 -0.884374	 0.496163
C	 -0.322777	 1.170544	 -1.402930
C	 1.049410	 0.773728	 -1.942979
C	 -1.252169	 1.544579	 -2.562032
C	 -0.180400	 2.338678	 -0.421957
H	 0.955437	 -0.070111	 -2.617171
H	 1.701408	 0.481906	 -1.127434
H	 1.511395	 1.596400	 -2.479114
H	 -1.404099	 0.689560	 -3.212330
H	 -0.816959	 2.346796	 -3.149092
H	 -2.221590	 1.886103	 -2.215421
H	 0.420874	 2.041708	 0.430879
H	 0.306044	 3.179105	 -0.906299
H	 -1.141075	 2.686518	 -0.057617

	symmetry c1
}
set optking {
	frozen_dihedral = ("
		2 3 6 7
	")
}

ee = energy('scf')
oeprop('DIPOLE', 'QUADRUPOLE', 'MULLIKEN_CHARGES')
f=open( 'psi4out.xyz', 'w' )
f.write( "18  " )
f.write( str(ee) + "\n" )
f.write( MOL.save_string_xyz() )
f.close()
--------------------------------------------------------------------------

    Molecular point group: c1

    Geometry (in Angstrom), charge = 0, multiplicity = 1:

       Center              X                  Y                   Z               Mass
    ------------   -----------------  -----------------  -----------------  -----------------
           H         -1.571339018206    -0.083663980989     1.689673765444     1.007825032070
           C         -1.417251018206    -0.963834980989     1.072650765444    12.000000000000
           O         -0.173243018206    -0.962714980989     0.443978765444    15.994914619560
           H         -2.159679018206    -0.960351980989     0.285809765444     1.007825032070
           H         -1.572813018206    -1.848183980989     1.683322765444     1.007825032070
           C          0.278033981794     0.206734019011    -0.215770234556    12.000000000000
           C          1.650220981794    -0.190081980989    -0.755819234556    12.000000000000
           C         -0.651358018206     0.580769019011    -1.374872234556    12.000000000000
           C          0.420410981794     1.374868019011     0.765202765444    12.000000000000
           H          1.556247981794    -1.033920980989    -1.430011234556     1.007825032070
           H          2.302218981794    -0.481903980989     0.059725765444     1.007825032070
           H          2.112205981794     0.632590019011    -1.291954234556     1.007825032070
           H         -0.803288018206    -0.274249980989    -2.025170234556     1.007825032070
           H         -0.216148018206     1.382986019011    -1.961932234556     1.007825032070
           H         -1.620779018206     0.922293019011    -1.028261234556     1.007825032070
           H          1.021684981794     1.077898019011     1.618038765444     1.007825032070
           H          0.906854981794     2.215295019011     0.280860765444     1.007825032070
           H         -0.540264018206     1.722708019011     1.129542765444     1.007825032070

  Charge       = 0
  Multiplicity = 1
  Basis Set: 6-31G*
  Basis Set:

    Orbital Energies (a.u.)
    -----------------------

    Doubly Occupied:

       1A    -20.544769     2A    -11.282242     3A    -11.260623
       4A    -11.208868     5A    -11.208736     6A    -11.203332
       7A     -1.369331     8A     -1.072843     9A     -0.946187
      10A     -0.940037    11A     -0.911874    12A     -0.752042
      13A     -0.654049    14A     -0.645115    15A     -0.639332
      16A     -0.593364    17A     -0.575869    18A     -0.550345
      19A     -0.533969    20A     -0.524798    21A     -0.514745
      22A     -0.489266    23A     -0.486178    24A     -0.437147
      25A     -0.402184

  @DF-RHF Final Energy:  -271.17277245093334

   => Energetics <=

    Nuclear Repulsion Energy =            272.4216071693387562
    One-Electron Energy =                -907.6939539212130512
    Two-Electron Energy =                 364.0995743009415264
    DFT Exchange-Correlation Energy =       0.0000000000000000
    Empirical Dispersion Energy =           0.0000000000000000
    PCM Polarization Energy =               0.0000000000000000
    EFP Energy =                            0.0000000000000000
    Total Energy =                       -271.1727724509327118

  Mulliken Charges: (a.u.)
   Center  Symbol    Alpha    Beta     Spin     Total
       1     H     0.43051  0.43051  0.00000  0.13897
       2     C     3.07925  3.07925  0.00000 -0.15851
       3     O     4.32021  4.32021  0.00000 -0.64042
       4     H     0.42844  0.42844  0.00000  0.14312
       5     H     0.41263  0.41263  0.00000  0.17475
       6     C     2.84192  2.84192  0.00000  0.31616
       7     C     3.23280  3.23280  0.00000 -0.46561
       8     C     3.24801  3.24801  0.00000 -0.49601
       9     C     3.24763  3.24763  0.00000 -0.49527
      10     H     0.41403  0.41403  0.00000  0.17194
      11     H     0.41392  0.41392  0.00000  0.17215
      12     H     0.42519  0.42519  0.00000  0.14961
      13     H     0.41323  0.41323  0.00000  0.17354
      14     H     0.41951  0.41951  0.00000  0.16098
      15     H     0.42010  0.42010  0.00000  0.15980
      16     H     0.41305  0.41305  0.00000  0.17390
      17     H     0.41950  0.41950  0.00000  0.16100
      18     H     0.42006  0.42006  0.00000  0.15988

   Total alpha = 25.00000, Total beta = 25.00000, Total charge = -0.00000
