  ==> Input File <==

--------------------------------------------------------------------------
set {
	reference rhf
	basis 6-31G*
}

set_num_threads( 4 )
memory 2 gb

molecule MOL {
0 1

H	 2.591676	 2.013956	 0.335017
O	 3.341076	 1.666752	 -0.126416
C	 3.569581	 0.339145	 0.272707
C	 2.539767	 -0.640285	 -0.279495
H	 4.553106	 0.084646	 -0.100901
H	 3.608576	 0.269204	 1.359154
C	 1.115811	 -0.397273	 0.226630
H	 2.556196	 -0.582511	 -1.364741
H	 2.852081	 -1.648031	 -0.010655
C	 0.661390	 1.053077	 0.040068
H	 1.060751	 -0.662248	 1.278829
H	 0.426759	 -1.057947	 -0.299733
C	 -0.788697	 1.331625	 0.452377
H	 1.326438	 1.710994	 0.596578
H	 0.778645	 1.320378	 -1.008026
C	 -1.071351	 1.189603	 1.950514
H	 -1.042459	 2.344394	 0.146239
H	 -1.453485	 0.672762	 -0.104214
C	 -2.502460	 1.579278	 2.326700
H	 -0.372408	 1.811320	 2.508239
H	 -0.890700	 0.166114	 2.270104
C	 -2.789167	 1.432305	 3.820641
H	 -2.686897	 2.607698	 2.023674
H	 -3.202357	 0.965729	 1.763151
H	 -2.126419	 2.059184	 4.410566
H	 -3.809945	 1.717668	 4.055622
H	 -2.649397	 0.405819	 4.147988

	symmetry c1
}
set optking {
	frozen_dihedral = ("
		10 7 4 8
	")
}

ee = optimize('scf')
oeprop('DIPOLE', 'QUADRUPOLE', 'MULLIKEN_CHARGES')
f=open( 'psi4out.xyz', 'w' )
f.write( "27  " )
f.write( str(ee) + "\n" )
f.write( MOL.save_string_xyz() )
f.close()
--------------------------------------------------------------------------

    Molecular point group: c1
  Charge       = 0
  Multiplicity = 1
  Basis Set: 6-31G*
  Basis Set:
  @DF-RHF Final Energy:  -388.26143301352693
    Total Energy =                       -388.2614330135268119
    Molecular point group: c1
  Basis Set: 6-31G*
  Basis Set:
  Basis Set: 6-31G*
  Basis Set:
  @DF-RHF Final Energy:  -388.27405787251405
    Total Energy =                       -388.2740578725143905
  Basis Set: 6-31G*
  Basis Set:
  Basis Set: 6-31G*
  Basis Set:
  @DF-RHF Final Energy:  -388.27690392953377
    Total Energy =                       -388.2769039295326365
  Basis Set: 6-31G*
  Basis Set:
  Basis Set: 6-31G*
  Basis Set:
  @DF-RHF Final Energy:  -388.27761514234140
    Total Energy =                       -388.2776151423414603
  Basis Set: 6-31G*
  Basis Set:
  @DF-RHF Final Energy:  -388.27769446221862
    Total Energy =                       -388.2776944622183919
  Basis Set: 6-31G*
  Basis Set:
  @DF-RHF Final Energy:  -388.27794012912545
    Total Energy =                       -388.2779401291252270
  Basis Set: 6-31G*
  Basis Set:
  Basis Set: 6-31G*
  Basis Set:
  @DF-RHF Final Energy:  -388.27799783381874
    Total Energy =                       -388.2779978338182900
  Basis Set: 6-31G*
  Basis Set:
  Basis Set: 6-31G*
  Basis Set:
  @DF-RHF Final Energy:  -388.27800274467427
    Total Energy =                       -388.2780027446747226
  Basis Set: 6-31G*
  Basis Set:
  Charge       = 0
  Multiplicity = 1
  Basis Set: 6-31G*
  Basis Set:

    Orbital Energies (a.u.)
    -----------------------

    Doubly Occupied:

       1A    -20.549160     2A    -11.266359     3A    -11.223786
       4A    -11.220463     5A    -11.219086     6A    -11.217733
       7A    -11.216560     8A    -11.215568     9A    -11.210685
      10A     -1.356744    11A     -1.097471    12A     -1.061413
      13A     -1.013306    14A     -0.948968    15A     -0.891531
      16A     -0.826774    17A     -0.802356    18A     -0.776928
      19A     -0.695276    20A     -0.650346    21A     -0.629269
      22A     -0.623698    23A     -0.599190    24A     -0.583547
      25A     -0.568174    26A     -0.563183    27A     -0.550332
      28A     -0.528786    29A     -0.517662    30A     -0.499067
      31A     -0.484027    32A     -0.475058    33A     -0.468939
      34A     -0.462770    35A     -0.449875    36A     -0.439286
      37A     -0.422730

  @DF-RHF Final Energy:  -388.27800326743625

   => Energetics <=

    Nuclear Repulsion Energy =            465.8930617101067355
    One-Electron Energy =               -1449.6899129613511832
    Two-Electron Energy =                 595.5188479838079729
    DFT Exchange-Correlation Energy =       0.0000000000000000
    Empirical Dispersion Energy =           0.0000000000000000
    PCM Polarization Energy =               0.0000000000000000
    EFP Energy =                            0.0000000000000000
    Total Energy =                       -388.2780032674364747
    Molecular point group: c1
  Basis Set: 6-31G*
  Basis Set:

  -Total Gradient:
     Atom            X                  Y                   Z
    ------   -----------------  -----------------  -----------------
       1        0.000007010676    -0.000090545727    -0.000000910206
       2        0.000068793712     0.000000977607     0.000023247167
       3       -0.000090353334     0.000067519371     0.000016600086
       4        0.000954507957     0.002808073664     0.000529964472
       5        0.000008717251     0.000079557966    -0.000042187967
       6        0.000009662979     0.000000265160     0.000008614984
       7       -0.001206348834    -0.001177018693    -0.001983898566
       8       -0.000520438529    -0.002108597538     0.000081111646
       9       -0.000023219868    -0.000015045402    -0.000006695284
      10        0.000720803064     0.000411672066     0.001418519093
      11        0.000029325205     0.000042806572    -0.000011284058
      12       -0.000038170566    -0.000021503250     0.000011032607
      13        0.000027484423     0.000027113365     0.000024084485
      14       -0.000042175978    -0.000005604360    -0.000037654430
      15        0.000036964272    -0.000013355512    -0.000006699110
      16        0.000012929188    -0.000007524027     0.000002935168
      17        0.000006586523     0.000011333488     0.000020410089
      18        0.000033443943     0.000005586919    -0.000012761563
      19       -0.000005370196    -0.000008037876    -0.000016592249
      20        0.000000453221    -0.000002319045    -0.000010973771
      21        0.000009504039    -0.000007816974    -0.000009655698
      22        0.000004155255     0.000002897028     0.000004100128
      23        0.000001286013    -0.000000899324    -0.000006699211
      24       -0.000005976713    -0.000001423003     0.000003255395
      25       -0.000000076789    -0.000000710705     0.000002073976
      26        0.000001176859     0.000001824381    -0.000000014784
      27       -0.000000673776     0.000000773850     0.000000077605

  **** Optimization is complete! (in 9 steps) ****
    Final optimized geometry and variables:
    Molecular point group: c1

    Geometry (in Angstrom), charge = 0, multiplicity = 1:

    H            2.553303238871     1.205653666730    -1.243097918282
    O            3.249622666672     0.623964709295    -1.506761242091
    C            3.167786543300    -0.582418992264    -0.791715926396
    C            1.987409363605    -1.466788969948    -1.191232258950
    H            4.090475528406    -1.103282900955    -1.011759217709
    H            3.154426051308    -0.394912159276     0.281638163937
    C            0.621897242852    -1.119769422984    -0.579132899536
    H            1.920749278047    -1.482103017378    -2.275969531226
    H            2.225631229951    -2.486071183654    -0.892114524381
    C            0.144568000610     0.323863570808    -0.781337940507
    H            0.655772257617    -1.337834196418     0.485537871761
    H           -0.117520404395    -1.796202910754    -1.002387655187
    C           -1.326498501266     0.557621728584    -0.417522370443
    H            0.754299294402     1.001195414770    -0.184030264264
    H            0.289298006431     0.605268155713    -1.822199205310
    C           -1.663287269101     0.350846876683     1.061489143120
    H           -1.591698528090     1.575195241970    -0.696762769961
    H           -1.950633563997    -0.095550231357    -1.024731695377
    C           -3.116443763871     0.695393956419     1.394608233187
    H           -1.001096107605     0.965179579585     1.670456918275
    H           -1.471565461248    -0.680427339423     1.347096765469
    C           -3.457169832501     0.485952129205     2.869601763631
    H           -3.312703206865     1.730249411624     1.122494534326
    H           -3.779412528374     0.088330194240     0.781700330973
    H           -2.832737884913     1.104663031773     3.508005544596
    H           -4.492627870998     0.739919660315     3.074152024581
    H           -3.306276188478    -0.548825885624     3.164062578900

  Mulliken Charges: (a.u.)
   Center  Symbol    Alpha    Beta     Spin     Total
       1     H     0.27532  0.27532  0.00000  0.44935
       2     O     4.37524  4.37524  0.00000 -0.75047
       3     C     2.99683  2.99683  0.00000  0.00633
       4     C     3.16766  3.16766  0.00000 -0.33531
       5     H     0.41463  0.41463  0.00000  0.17074
       6     H     0.43180  0.43180  0.00000  0.13639
       7     C     3.15640  3.15640  0.00000 -0.31280
       8     H     0.41361  0.41361  0.00000  0.17279
       9     H     0.42174  0.42174  0.00000  0.15652
      10     C     3.16613  3.16613  0.00000 -0.33226
      11     H     0.42094  0.42094  0.00000  0.15811
      12     H     0.41951  0.41951  0.00000  0.16097
      13     C     3.15216  3.15216  0.00000 -0.30431
      14     H     0.43167  0.43167  0.00000  0.13665
      15     H     0.41565  0.41565  0.00000  0.16870
      16     C     3.15344  3.15344  0.00000 -0.30689
      17     H     0.42097  0.42097  0.00000  0.15806
      18     H     0.42192  0.42192  0.00000  0.15617
      19     C     3.15141  3.15141  0.00000 -0.30283
      20     H     0.42490  0.42490  0.00000  0.15021
      21     H     0.42099  0.42099  0.00000  0.15802
      22     C     3.23931  3.23931  0.00000 -0.47861
      23     H     0.42280  0.42280  0.00000  0.15440
      24     H     0.42260  0.42260  0.00000  0.15479
      25     H     0.42173  0.42173  0.00000  0.15653
      26     H     0.41886  0.41886  0.00000  0.16227
      27     H     0.42177  0.42177  0.00000  0.15645

   Total alpha = 37.00000, Total beta = 37.00000, Total charge =  0.00000
