  ==> Input File <==

--------------------------------------------------------------------------
set {
	reference rhf
	basis 6-31G*
}

set_num_threads( 1 )
memory 2 gb

molecule MOL {
0 1

H	 1.609102	 -1.754437	 0.431404
O	 0.935756	 -1.175817	 0.103539
C	 1.135793	 0.118896	 0.612333
C	 0.031547	 1.023609	 0.088541
H	 2.100456	 0.508806	 0.292514
H	 1.137101	 0.105473	 1.699953
C	 -1.134819	 0.293262	 -0.585751
H	 0.474374	 1.714721	 -0.623187
H	 -0.338529	 1.620940	 0.920081
C	 -1.917817	 -0.639439	 0.339494
H	 -0.758119	 -0.268455	 -1.433105
H	 -1.813832	 1.041889	 -0.986690
H	 -2.777680	 -1.057197	 -0.174994
H	 -1.310268	 -1.471279	 0.680599
H	 -2.283753	 -0.111424	 1.216626

	symmetry c1
}
set optking {
	frozen_dihedral = ("
		8 4 7 11,
		1 2 3 4
	")
}

ee = energy('scf')
oeprop('DIPOLE', 'QUADRUPOLE', 'MULLIKEN_CHARGES')
f=open( 'psi4out.xyz', 'w' )
f.write( "15  " )
f.write( str(ee) + "\n" )
f.write( MOL.save_string_xyz() )
f.close()
--------------------------------------------------------------------------

    Molecular point group: c1

    Geometry (in Angstrom), charge = 0, multiplicity = 1:

       Center              X                  Y                   Z               Mass
    ------------   -----------------  -----------------  -----------------  -----------------
           H          1.766356773639    -1.634021667331     0.307870273786     1.007825032070
           O          1.093010773639    -1.055401667331    -0.019994726214    15.994914619560
           C          1.293047773639     0.239311332669     0.488799273786    12.000000000000
           C          0.188801773639     1.144024332669    -0.034992726214    12.000000000000
           H          2.257710773639     0.629221332669     0.168980273786     1.007825032070
           H          1.294355773639     0.225888332669     1.576419273786     1.007825032070
           C         -0.977564226361     0.413677332669    -0.709284726214    12.000000000000
           H          0.631628773639     1.835136332669    -0.746720726214     1.007825032070
           H         -0.181274226361     1.741355332669     0.796547273786     1.007825032070
           C         -1.760562226361    -0.519023667331     0.215960273786    12.000000000000
           H         -0.600864226361    -0.148039667331    -1.556638726214     1.007825032070
           H         -1.656577226361     1.162304332669    -1.110223726214     1.007825032070
           H         -2.620425226361    -0.936781667331    -0.298527726214     1.007825032070
           H         -1.153013226361    -1.350863667331     0.557065273786     1.007825032070
           H         -2.126498226361     0.008991332669     1.093092273786     1.007825032070

  Charge       = 0
  Multiplicity = 1
  Basis Set: 6-31G*
  Basis Set:

    Orbital Energies (a.u.)
    -----------------------

    Doubly Occupied:

       1A    -20.554367     2A    -11.267742     3A    -11.210530
       4A    -11.204531     5A    -11.191243     6A     -1.362768
       7A     -1.058133     8A     -0.967914     9A     -0.861763
      10A     -0.770872    11A     -0.706900    12A     -0.651952
      13A     -0.605372    14A     -0.565941    15A     -0.553857
      16A     -0.523254    17A     -0.508316    18A     -0.476043
      19A     -0.460149    20A     -0.448339    21A     -0.422265

  @DF-RHF Final Energy:  -232.13437180793539

   => Energetics <=

    Nuclear Repulsion Energy =            195.5052493771299851
    One-Electron Energy =                -702.5347052345692873
    Two-Electron Energy =                 274.8950840495037937
    DFT Exchange-Correlation Energy =       0.0000000000000000
    Empirical Dispersion Energy =           0.0000000000000000
    PCM Polarization Energy =               0.0000000000000000
    EFP Energy =                            0.0000000000000000
    Total Energy =                       -232.1343718079355085

  Mulliken Charges: (a.u.)
   Center  Symbol    Alpha    Beta     Spin     Total
       1     H     0.28061  0.28061  0.00000  0.43878
       2     O     4.37105  4.37105  0.00000 -0.74209
       3     C     2.99209  2.99209  0.00000  0.01582
       4     C     3.17480  3.17480  0.00000 -0.34960
       5     H     0.42868  0.42868  0.00000  0.14265
       6     H     0.42978  0.42978  0.00000  0.14044
       7     C     3.14388  3.14388  0.00000 -0.28777
       8     H     0.41867  0.41867  0.00000  0.16266
       9     H     0.42141  0.42141  0.00000  0.15719
      10     C     3.24301  3.24301  0.00000 -0.48601
      11     H     0.41128  0.41128  0.00000  0.17744
      12     H     0.42528  0.42528  0.00000  0.14945
      13     H     0.42446  0.42446  0.00000  0.15108
      14     H     0.40501  0.40501  0.00000  0.18997
      15     H     0.43000  0.43000  0.00000  0.14000

   Total alpha = 21.00000, Total beta = 21.00000, Total charge = -0.00000
