  ==> Input File <==

--------------------------------------------------------------------------
set {
	reference rhf
	basis 6-31G*
}

set_num_threads( 1 )
memory 2 gb

molecule MOL {
0 1

H	 -4.342002	 -0.648915	 -0.736665
C	 -3.480727	 -0.555138	 -0.104153
C	 -2.295204	 -0.888759	 -0.559383
H	 -3.615431	 -0.186425	 0.895255
O	 -1.180634	 -0.819263	 0.215062
H	 -2.138049	 -1.253197	 -1.559224
C	 0.051604	 -1.018856	 -0.387932
C	 1.043764	 0.054862	 -0.001873
H	 -0.017620	 -1.041351	 -1.469781
H	 0.437898	 -1.966374	 -0.042284
F	 2.212596	 -0.199467	 -0.571921
F	 0.652529	 1.252447	 -0.405055
F	 1.230877	 0.110694	 1.300533

	symmetry c1
}
set optking {
	frozen_dihedral = ("
		11 8 7 9,
		6 3 2 1,
		6 3 5 7
	")
}

ee = energy('scf')
oeprop('DIPOLE', 'QUADRUPOLE', 'MULLIKEN_CHARGES')
f=open( 'psi4out.xyz', 'w' )
f.write( "13  " )
f.write( str(ee) + "\n" )
f.write( MOL.save_string_xyz() )
f.close()
--------------------------------------------------------------------------

    Molecular point group: c1

    Geometry (in Angstrom), charge = 0, multiplicity = 1:

       Center              X                  Y                   Z               Mass
    ------------   -----------------  -----------------  -----------------  -----------------
           H         -4.286583823374    -0.450334699117    -0.689147314151     1.007825032070
           C         -3.425308823374    -0.356557699117    -0.056635314151    12.000000000000
           C         -2.239785823374    -0.690178699117    -0.511865314151    12.000000000000
           H         -3.560012823374     0.012155300883     0.942772685849     1.007825032070
           O         -1.125215823374    -0.620682699117     0.262579685849    15.994914619560
           H         -2.082630823374    -1.054616699117    -1.511706314151     1.007825032070
           C          0.107022176626    -0.820275699117    -0.340414314151    12.000000000000
           C          1.099182176626     0.253442300883     0.045644685849    12.000000000000
           H          0.037798176626    -0.842770699117    -1.422263314151     1.007825032070
           H          0.493316176626    -1.767793699117     0.005233685849     1.007825032070
           F          2.268014176626    -0.000886699117    -0.524403314151    18.998403224000
           F          0.707947176626     1.451027300883    -0.357537314151    18.998403224000
           F          1.286295176626     0.309274300883     1.348050685849    18.998403224000

  Charge       = 0
  Multiplicity = 1
  Basis Set: 6-31G*
  Basis Set:

    Orbital Energies (a.u.)
    -----------------------

    Doubly Occupied:

       1A    -26.344524     2A    -26.339602     3A    -26.338389
       4A    -20.607503     5A    -11.504229     6A    -11.318535
       7A    -11.302733     8A    -11.217889     9A     -1.739715
      10A     -1.638643    11A     -1.635055    12A     -1.437885
      13A     -1.086180    14A     -1.016325    15A     -0.923383
      16A     -0.836701    17A     -0.829028    18A     -0.808913
      19A     -0.801931    20A     -0.718612    21A     -0.712535
      22A     -0.696258    23A     -0.678276    24A     -0.658394
      25A     -0.652141    26A     -0.641360    27A     -0.640717
      28A     -0.575020    29A     -0.561697    30A     -0.527776
      31A     -0.515737    32A     -0.352527

  @DF-RHF Final Energy:  -527.53323190208675

   => Energetics <=

    Nuclear Repulsion Energy =            407.1782241263283026
    One-Electron Energy =               -1538.1064736142473066
    Two-Electron Energy =                 603.3950175858317380
    DFT Exchange-Correlation Energy =       0.0000000000000000
    Empirical Dispersion Energy =           0.0000000000000000
    PCM Polarization Energy =               0.0000000000000000
    EFP Energy =                            0.0000000000000000
    Total Energy =                       -527.5332319020872092

  Mulliken Charges: (a.u.)
   Center  Symbol    Alpha    Beta     Spin     Total
       1     H     0.40716  0.40716  0.00000  0.18568
       2     C     3.23536  3.23536  0.00000 -0.47072
       3     C     2.89686  2.89686  0.00000  0.20628
       4     H     0.40055  0.40055  0.00000  0.19891
       5     O     4.30338  4.30338  0.00000 -0.60676
       6     H     0.40772  0.40772  0.00000  0.18457
       7     C     3.05088  3.05088  0.00000 -0.10176
       8     C     2.45406  2.45406  0.00000  1.09189
       9     H     0.40691  0.40691  0.00000  0.18618
      10     H     0.40066  0.40066  0.00000  0.19867
      11     F     4.68300  4.68300  0.00000 -0.36600
      12     F     4.67831  4.67831  0.00000 -0.35662
      13     F     4.67516  4.67516  0.00000 -0.35031

   Total alpha = 32.00000, Total beta = 32.00000, Total charge =  0.00000
