                              Psi4 1.0.54 Driver

  ==> Input File <==

--------------------------------------------------------------------------
set {
	reference rhf
	basis cc-pvtz
}

set_num_threads( 4 )
memory 2 gb

molecule MOL {
0 1

H	 -1.550827	 -1.397374	 -0.386883
O	 -2.321472	 -0.864941	 -0.318626
C	 -2.021813	 0.336996	 0.342658
C	 -0.669613	 0.837286	 -0.127252
H	 -2.780861	 1.084746	 0.127159
H	 -2.006390	 0.184138	 1.420053
C	 0.490865	 -0.082543	 0.241244
H	 -0.708709	 0.967192	 -1.204587
H	 -0.507562	 1.822272	 0.303070
C	 1.839800	 0.429565	 -0.255472
H	 0.305636	 -1.070211	 -0.165276
H	 0.527397	 -0.195943	 1.322876
C	 3.001144	 -0.485193	 0.119072
H	 1.804373	 0.541073	 -1.335756
H	 2.020437	 1.423114	 0.146921
H	 2.866892	 -1.477297	 -0.298806
H	 3.943543	 -0.095749	 -0.249061
H	 3.085064	 -0.590459	 1.195790

	symmetry c1
}
set optking {
	frozen_dihedral = ("
		1 2 3 4
	")
}

ee,wfn = optimize('scf', return_wfn=True)
oeprop( wfn, 'DIPOLE', 'QUADRUPOLE', 'MULLIKEN_CHARGES')
f=open( 'psi4out.xyz', 'w' )
f.write( "18  " )
f.write( str(ee) + "\n" )
f.write( MOL.save_string_xyz() )
f.close()
--------------------------------------------------------------------------

    Molecular point group: c1
  Charge       = 0
  Multiplicity = 1
  Basis Set: CC-PVTZ
  Basis Set:
  @DF-RHF Final Energy:  -271.28271186376378
    Total Energy =                       -271.2827118637641206
    Molecular point group: c1
  Basis Set: CC-PVTZ
  Basis Set:
  Basis Set: CC-PVTZ
  Basis Set:
  @DF-RHF Final Energy:  -271.28411447048916
    Total Energy =                       -271.2841144704893281
  Basis Set: CC-PVTZ
  Basis Set:
  Basis Set: CC-PVTZ
  Basis Set:
  @DF-RHF Final Energy:  -271.28508044754199
    Total Energy =                       -271.2850804475419864
  Basis Set: CC-PVTZ
  Basis Set:
  Basis Set: CC-PVTZ
  Basis Set:
  @DF-RHF Final Energy:  -271.28513305308172
    Total Energy =                       -271.2851330530818359
  Basis Set: CC-PVTZ
  Basis Set:
  Basis Set: CC-PVTZ
  Basis Set:
  @DF-RHF Final Energy:  -271.28513835331512
    Total Energy =                       -271.2851383533152898
  Basis Set: CC-PVTZ
  Basis Set:
  Charge       = 0
  Multiplicity = 1
  Basis Set: CC-PVTZ
  Basis Set:

    Orbital Energies (a.u.)
    -----------------------

    Doubly Occupied:

       1A    -20.543549     2A    -11.264687     3A    -11.222712
       4A    -11.220290     5A    -11.218469     6A    -11.212015
       7A     -1.362148     8A     -1.087051     9A     -1.015330
      10A     -0.924505    11A     -0.834323    12A     -0.797232
      13A     -0.683611    14A     -0.656270    15A     -0.619966
      16A     -0.614874    17A     -0.578313    18A     -0.563463
      19A     -0.534489    20A     -0.510410    21A     -0.497212
      22A     -0.478623    23A     -0.472780    24A     -0.451434
      25A     -0.432320

  @DF-RHF Final Energy:  -271.28513884703460

   => Energetics <=

    Nuclear Repulsion Energy =            249.0595025662044577
    One-Electron Energy =                -861.0971407157192061
    Two-Electron Energy =                 340.7524993024798050
    DFT Exchange-Correlation Energy =       0.0000000000000000
    Empirical Dispersion Energy =           0.0000000000000000
    PCM Polarization Energy =               0.0000000000000000
    EFP Energy =                            0.0000000000000000
    Total Energy =                       -271.2851388470350003
    Molecular point group: c1
  Basis Set: CC-PVTZ
  Basis Set:

  -Total Gradient:
     Atom            X                  Y                   Z
    ------   -----------------  -----------------  -----------------
       1        0.000255542118     0.000719064691    -0.001846594433
       2       -0.000026568134    -0.001311227098     0.002592403571
       3       -0.000845983520     0.001225154696    -0.001635025091
       4        0.000571913582    -0.000737865533     0.000816220726
       5        0.000028337576     0.000055698004     0.000015560322
       6        0.000023444268     0.000024121942     0.000018797811
       7        0.000007022627     0.000019573687     0.000013593268
       8       -0.000004138626     0.000014266856    -0.000016781330
       9        0.000009504392    -0.000003870554     0.000005532851
      10       -0.000004150216     0.000002391248     0.000023828946
      11       -0.000002187009    -0.000000867230    -0.000005472696
      12        0.000018142629     0.000000420670     0.000030553449
      13       -0.000021510592    -0.000012017681    -0.000016815686
      14       -0.000003838477     0.000003026213    -0.000005301822
      15       -0.000000719964     0.000004294491     0.000014159721
      16        0.000000625708    -0.000015133699    -0.000002144507
      17       -0.000004220469     0.000003800077    -0.000009188746
      18       -0.000001215895     0.000009169221     0.000006673647

  **** Optimization is complete! (in 6 steps) ****
    Final optimized geometry and variables:
    Molecular point group: c1

    Geometry (in Angstrom), charge = 0, multiplicity = 1:

    H           -1.880644606823    -1.312035036965    -0.187979633221
    O           -2.533852482957    -0.657599885889    -0.026496463367
    C           -1.949191658831     0.494911901534     0.519736994045
    C           -0.610667339964     0.864625283649    -0.101920820582
    H           -2.659074207848     1.295427915480     0.360623578750
    H           -1.829896912197     0.376450294267     1.595323198781
    C            0.513069979900    -0.133032202885     0.173412954233
    H           -0.742147286043     0.985233056086    -1.173607771112
    H           -0.321974603616     1.836631091034     0.288920925706
    C            1.852878332809     0.296963145107    -0.418306003407
    H            0.259222259503    -1.110981821063    -0.230780913927
    H            0.620286644221    -0.266193718293     1.247331974172
    C            2.974755662045    -0.700387768775    -0.150535902582
    H            1.742215063175     0.436807767464    -1.489882213017
    H            2.127229514921     1.266224483609    -0.011581030006
    H            2.745782846342    -1.671675162920    -0.576441591095
    H            3.909915100773    -0.363243706977    -0.582225070267
    H            3.132119138905    -0.836334587312     0.914255833298

  Mulliken Charges: (a.u.)
   Center  Symbol    Alpha    Beta     Spin     Total
       1     H     0.39126  0.39126  0.00000  0.21748
       2     O     4.20713  4.20713  0.00000 -0.41426
       3     C     2.96461  2.96461  0.00000  0.07078
       4     C     3.10149  3.10149  0.00000 -0.20298
       5     H     0.45376  0.45376  0.00000  0.09248
       6     H     0.47515  0.47515  0.00000  0.04969
       7     C     3.09135  3.09135  0.00000 -0.18270
       8     H     0.44887  0.44887  0.00000  0.10226
       9     H     0.45475  0.45475  0.00000  0.09050
      10     C     3.08448  3.08448  0.00000 -0.16896
      11     H     0.46389  0.46389  0.00000  0.07222
      12     H     0.45124  0.45124  0.00000  0.09752
      13     C     3.14952  3.14952  0.00000 -0.29903
      14     H     0.45266  0.45266  0.00000  0.09468
      15     H     0.45281  0.45281  0.00000  0.09437
      16     H     0.45515  0.45515  0.00000  0.08970
      17     H     0.44731  0.44731  0.00000  0.10539
      18     H     0.45457  0.45457  0.00000  0.09085

   Total alpha = 25.00000, Total beta = 25.00000, Total charge = -0.00000

*** Psi4 exiting successfully. Buy a developer a beer!
