                              Psi4 1.0.54 Driver

  ==> Input File <==

--------------------------------------------------------------------------
set {
	reference rhf
	basis cc-pvtz
}

set_num_threads( 4 )
memory 2 gb

molecule MOL {
0 1

O	 2.868453	 1.353349	 -0.000734
C	 2.841259	 0.166180	 -0.000295
C	 1.542794	 -0.614730	 -0.000853
C	 4.113372	 -0.651103	 0.000743
C	 0.288398	 0.247429	 0.000314
H	 1.557171	 -1.273139	 -0.866508
H	 1.557484	 -1.274998	 0.863344
C	 0.378417	 1.415425	 -0.977844
H	 0.113709	 0.619492	 1.003393
H	 -0.568244	 -0.371044	 -0.242151
C	 -0.873221	 2.288157	 -0.986214
H	 1.241131	 2.029935	 -0.730100
H	 0.555650	 1.034878	 -1.981355
C	 -0.790815	 3.458765	 -1.961725
H	 -1.051076	 2.669217	 0.016420
H	 -1.736028	 1.674944	 -1.234529
C	 -2.045113	 4.326243	 -1.964346
H	 0.070664	 4.072931	 -1.713542
H	 -0.614322	 3.078737	 -2.964395
H	 -2.229932	 4.749719	 -0.982739
H	 -1.953980	 5.147069	 -2.666458
H	 -2.919918	 3.748257	 -2.243082
H	 4.145311	 -1.294584	 -0.871587
H	 4.970080	 0.004978	 -0.000091
H	 4.145223	 -1.291980	 0.874988

	symmetry c1
}
set optking {
	frozen_dihedral = ("
		9 5 3 6
	")
}

ee,wfn = optimize('scf', return_wfn=True)
oeprop( wfn, 'DIPOLE', 'QUADRUPOLE', 'MULLIKEN_CHARGES')
f=open( 'psi4out.xyz', 'w' )
f.write( "25  " )
f.write( str(ee) + "\n" )
f.write( MOL.save_string_xyz() )
f.close()
--------------------------------------------------------------------------

    Molecular point group: c1
  Charge       = 0
  Multiplicity = 1
  Basis Set: CC-PVTZ
  Basis Set:
  @DF-RHF Final Energy:  -387.26051155155636
    Total Energy =                       -387.2605115515566467
    Molecular point group: c1
  Basis Set: CC-PVTZ
  Basis Set:
  Basis Set: CC-PVTZ
  Basis Set:
  @DF-RHF Final Energy:  -387.26869407529705
    Total Energy =                       -387.2686940752969349
  Basis Set: CC-PVTZ
  Basis Set:
  Basis Set: CC-PVTZ
  Basis Set:
  @DF-RHF Final Energy:  -387.27043498182798
    Total Energy =                       -387.2704349818279752
  Basis Set: CC-PVTZ
  Basis Set:
  Basis Set: CC-PVTZ
  Basis Set:
  @DF-RHF Final Energy:  -387.26932821045710
    Total Energy =                       -387.2693282104567061
  Basis Set: CC-PVTZ
  Basis Set:
  @DF-RHF Final Energy:  -387.27075435335934
    Total Energy =                       -387.2707543533588250
  @DF-RHF Final Energy:  -387.27147888617213
    Total Energy =                       -387.2714788861721900
  @DF-RHF Final Energy:  -387.27164643036133
    Total Energy =                       -387.2716464303607609
  Basis Set: CC-PVTZ
  Basis Set:
  @DF-RHF Final Energy:  -387.27168826402652
    Total Energy =                       -387.2716882640262384
  Basis Set: CC-PVTZ
  Basis Set:
  Basis Set: CC-PVTZ
  Basis Set:
  @DF-RHF Final Energy:  -387.27170251012433
    Total Energy =                       -387.2717025101243280
  Basis Set: CC-PVTZ
  Basis Set:
  Basis Set: CC-PVTZ
  Basis Set:
  @DF-RHF Final Energy:  -387.27170408134276
    Total Energy =                       -387.2717040813427047
  Basis Set: CC-PVTZ
  Basis Set:
  Charge       = 0
  Multiplicity = 1
  Basis Set: CC-PVTZ
  Basis Set:

    Orbital Energies (a.u.)
    -----------------------

    Doubly Occupied:

       1A    -20.538056     2A    -11.321663     3A    -11.230924
       4A    -11.227222     5A    -11.218592     6A    -11.209958
       7A    -11.208555     8A    -11.207799     9A    -11.203924
      10A     -1.398948    11A     -1.091973    12A     -1.055908
      13A     -1.014630    14A     -0.969068    15A     -0.890453
      16A     -0.817343    17A     -0.788748    18A     -0.727465
      19A     -0.668007    20A     -0.640261    21A     -0.632051
      22A     -0.625033    23A     -0.595810    24A     -0.585856
      25A     -0.569773    26A     -0.560248    27A     -0.536030
      28A     -0.528936    29A     -0.515073    30A     -0.497710
      31A     -0.484237    32A     -0.473808    33A     -0.461214
      34A     -0.459216    35A     -0.441923    36A     -0.401113

  @DF-RHF Final Energy:  -387.27170456355162

   => Energetics <=

    Nuclear Repulsion Energy =            449.2107299265038023
    One-Electron Energy =               -1415.3698069159393071
    Two-Electron Energy =                 578.8873724258843367
    DFT Exchange-Correlation Energy =       0.0000000000000000
    Empirical Dispersion Energy =           0.0000000000000000
    PCM Polarization Energy =               0.0000000000000000
    EFP Energy =                            0.0000000000000000
    Total Energy =                       -387.2717045635512250
    Molecular point group: c1
  Basis Set: CC-PVTZ
  Basis Set:

  -Total Gradient:
     Atom            X                  Y                   Z
    ------   -----------------  -----------------  -----------------
       1        0.000044666119    -0.000027754019     0.000001571773
       2        0.000004212682     0.000018425210     0.000008119160
       3        0.002749244764     0.003384680751    -0.003223809949
       4        0.000015486148    -0.000025883971    -0.000025228243
       5        0.003162222015     0.004143576953    -0.000628088080
       6       -0.002786854335    -0.003532468752     0.002781348767
       7       -0.000005404853     0.000041964375    -0.000005154089
       8       -0.000008730884     0.000003539980    -0.000002625906
       9       -0.003152770040    -0.004068271697     0.001075367821
      10       -0.000009088010    -0.000003731261    -0.000021186760
      11       -0.000001917931     0.000003742800     0.000011178409
      12       -0.000010467939     0.000014339675     0.000000894853
      13        0.000005403022    -0.000003877210     0.000005988029
      14        0.000007159786     0.000005187294     0.000009664263
      15        0.000005185568     0.000002040698    -0.000003864456
      16        0.000005903889    -0.000002566130     0.000005615222
      17       -0.000008008466    -0.000006797338    -0.000011042318
      18        0.000001232968    -0.000000414007     0.000004711978
      19        0.000001504067     0.000001442247    -0.000001832656
      20        0.000005765677    -0.000000042222    -0.000000836107
      21       -0.000001951932    -0.000001583143    -0.000003037256
      22       -0.000006999257     0.000000144940     0.000001329766
      23       -0.000001954670     0.000009812495     0.000017232190
      24        0.000001989841    -0.000000797368    -0.000008225392
      25       -0.000015828232     0.000045289696     0.000011908985

  **** Optimization is complete! (in 11 steps) ****
    Final optimized geometry and variables:
    Molecular point group: c1

    Geometry (in Angstrom), charge = 0, multiplicity = 1:

    O            2.097825953040    -0.160559817714     1.366206362269
    C            1.972130374006    -1.225324183713     0.854982094966
    C            0.617821855693    -1.880917754541     0.683885842254
    C            3.166487774421    -2.021313818370     0.384527651830
    C           -0.596021312247    -0.951814940641     0.649880908002
    H            0.617225864815    -2.553211608866    -0.168108719612
    H            0.525353555352    -2.543750898608     1.544119201194
    C           -0.540802997898     0.162238838782    -0.391524824253
    H           -0.774289785636    -0.551844196243     1.641287847484
    H           -1.459601413302    -1.578115071430     0.439393501038
    C           -1.834139730236     0.969781106717    -0.457647936461
    H            0.285519298280     0.826044682993    -0.173017776827
    H           -0.343382355148    -0.274559217672    -1.369200784747
    C           -1.794883764548     2.089882717945    -1.493252069066
    H           -2.038583911614     1.396130688922     0.521508817259
    H           -2.666509809728     0.305824493007    -0.680390903674
    C           -3.088260116214     2.895643741560    -1.554451669964
    H           -0.966145320573     2.755404966510    -1.269052785143
    H           -1.588587577704     1.666230796106    -2.472613187465
    H           -3.303869215267     3.362046131808    -0.598897753828
    H           -3.027255427885     3.681231542747    -2.298940143787
    H           -3.932247658759     2.263206340542    -1.809756573188
    H            3.156842659235    -2.073846770628    -0.699303103280
    H            4.079007177774    -1.548488369614     0.713699097740
    H            3.119076213919    -3.038654299016     0.756465343885

  Mulliken Charges: (a.u.)
   Center  Symbol    Alpha    Beta     Spin     Total
       1     O     4.17563  4.17563  0.00000 -0.35125
       2     C     2.85408  2.85408  0.00000  0.29184
       3     C     3.12718  3.12718  0.00000 -0.25436
       4     C     3.15231  3.15231  0.00000 -0.30462
       5     C     3.08700  3.08700  0.00000 -0.17400
       6     H     0.44120  0.44120  0.00000  0.11760
       7     H     0.43672  0.43672  0.00000  0.12656
       8     C     3.09583  3.09583  0.00000 -0.19165
       9     H     0.44646  0.44646  0.00000  0.10708
      10     H     0.44974  0.44974  0.00000  0.10053
      11     C     3.08804  3.08804  0.00000 -0.17608
      12     H     0.43775  0.43775  0.00000  0.12450
      13     H     0.45924  0.45924  0.00000  0.08151
      14     C     3.08331  3.08331  0.00000 -0.16662
      15     H     0.45358  0.45358  0.00000  0.09285
      16     H     0.45666  0.45666  0.00000  0.08667
      17     C     3.15084  3.15084  0.00000 -0.30168
      18     H     0.45273  0.45273  0.00000  0.09454
      19     H     0.45618  0.45618  0.00000  0.08763
      20     H     0.45472  0.45472  0.00000  0.09057
      21     H     0.44872  0.44872  0.00000  0.10256
      22     H     0.45610  0.45610  0.00000  0.08780
      23     H     0.44930  0.44930  0.00000  0.10141
      24     H     0.43619  0.43619  0.00000  0.12763
      25     H     0.45050  0.45050  0.00000  0.09900

   Total alpha = 36.00000, Total beta = 36.00000, Total charge =  0.00000

*** Psi4 exiting successfully. Buy a developer a beer!
