  ==> Input File <==

--------------------------------------------------------------------------
set {
	reference rhf
	basis 6-31G*
}

set_num_threads( 1 )
memory 2 gb

molecule MOL {
0 1

O	 0.815087	 0.788594	 -0.935175
C	 1.122059	 0.121804	 -0.000188
C	 0.395129	 0.075162	 1.321663
O	 2.172624	 -0.688929	 0.000216
C	 -0.823534	 0.991266	 1.376036
H	 0.118101	 -0.959709	 1.503464
H	 1.113475	 0.329125	 2.096412
C	 -1.540877	 0.925097	 2.725261
H	 -1.510703	 0.721186	 0.580198
H	 -0.513945	 2.011873	 1.173501
C	 -2.762435	 1.840932	 2.788865
H	 -1.848211	 -0.099734	 2.923618
H	 -0.847171	 1.194088	 3.519293
H	 -3.491031	 1.575073	 2.028522
H	 -3.252620	 1.774928	 3.755115
H	 -2.482757	 2.878181	 2.629074
C	 3.452279	 -0.082609	 0.000533
H	 3.583069	 0.529321	 -0.880332
H	 4.163299	 -0.894027	 0.001117
H	 3.582335	 0.529955	 0.881077

	symmetry c1
}
set optking {
	frozen_dihedral = ("
		9 5 8 12,
		1 2 3 6,
		9 5 3 6
	")
}

ee = energy('scf')
oeprop('DIPOLE', 'QUADRUPOLE', 'MULLIKEN_CHARGES')
f=open( 'psi4out.xyz', 'w' )
f.write( "20  " )
f.write( str(ee) + "\n" )
f.write( MOL.save_string_xyz() )
f.close()
--------------------------------------------------------------------------

    Molecular point group: c1

    Geometry (in Angstrom), charge = 0, multiplicity = 1:

       Center              X                  Y                   Z               Mass
    ------------   -----------------  -----------------  -----------------  -----------------
           O          0.431720366636     0.291373059179    -1.830741175758    15.994914619560
           C          0.738692366636    -0.375416940821    -0.895754175758    12.000000000000
           C          0.011762366636    -0.422058940821     0.426096824242    12.000000000000
           O          1.789257366636    -1.186149940821    -0.895350175758    15.994914619560
           C         -1.206900633364     0.494045059179     0.480469824242    12.000000000000
           H         -0.265265633364    -1.456929940821     0.607897824242     1.007825032070
           H          0.730108366636    -0.168095940821     1.200845824242     1.007825032070
           C         -1.924243633364     0.427876059179     1.829694824242    12.000000000000
           H         -1.894069633364     0.223965059179    -0.315368175758     1.007825032070
           H         -0.897311633364     1.514652059179     0.277934824242     1.007825032070
           C         -3.145801633364     1.343711059179     1.893298824242    12.000000000000
           H         -2.231577633364    -0.596954940821     2.028051824242     1.007825032070
           H         -1.230537633364     0.696867059179     2.623726824242     1.007825032070
           H         -3.874397633364     1.077852059179     1.132955824242     1.007825032070
           H         -3.635986633364     1.277707059179     2.859548824242     1.007825032070
           H         -2.866123633364     2.380960059179     1.733507824242     1.007825032070
           C          3.068912366636    -0.579829940821    -0.895033175758    12.000000000000
           H          3.199702366636     0.032100059179    -1.775898175758     1.007825032070
           H          3.779932366636    -1.391247940821    -0.894449175758     1.007825032070
           H          3.198968366636     0.032734059179    -0.014489175758     1.007825032070

  Charge       = 0
  Multiplicity = 1
  Basis Set: 6-31G*
  Basis Set:

    Orbital Energies (a.u.)
    -----------------------

    Doubly Occupied:

       1A    -20.588410     2A    -20.553389     3A    -11.373545
       4A    -11.292039     5A    -11.236628     6A    -11.220986
       7A    -11.219603     8A    -11.211219     9A     -1.464765
      10A     -1.365771    11A     -1.088670    12A     -1.021006
      13A     -0.974199    14A     -0.892313    15A     -0.805748
      16A     -0.768650    17A     -0.695692    18A     -0.681442
      19A     -0.674771    20A     -0.643618    21A     -0.611748
      22A     -0.591067    23A     -0.585571    24A     -0.550272
      25A     -0.536163    26A     -0.511636    27A     -0.499200
      28A     -0.484278    29A     -0.477340    30A     -0.470867
      31A     -0.452096    32A     -0.432429

  @DF-RHF Final Energy:  -383.92375941341180

   => Energetics <=

    Nuclear Repulsion Energy =            381.9038880983043214
    One-Electron Energy =               -1279.7050877241158560
    Two-Electron Energy =                 513.8774402124000744
    DFT Exchange-Correlation Energy =       0.0000000000000000
    Empirical Dispersion Energy =           0.0000000000000000
    PCM Polarization Energy =               0.0000000000000000
    EFP Energy =                            0.0000000000000000
    Total Energy =                       -383.9237594134114033

  Mulliken Charges: (a.u.)
   Center  Symbol    Alpha    Beta     Spin     Total
       1     O     4.26447  4.26447  0.00000 -0.52895
       2     C     2.61115  2.61115  0.00000  0.77770
       3     C     3.21061  3.21061  0.00000 -0.42121
       4     O     4.31125  4.31125  0.00000 -0.62251
       5     C     3.15221  3.15221  0.00000 -0.30442
       6     H     0.39883  0.39883  0.00000  0.20235
       7     H     0.40707  0.40707  0.00000  0.18587
       8     C     3.15395  3.15395  0.00000 -0.30790
       9     H     0.41090  0.41090  0.00000  0.17821
      10     H     0.41330  0.41330  0.00000  0.17339
      11     C     3.23927  3.23927  0.00000 -0.47854
      12     H     0.42264  0.42264  0.00000  0.15473
      13     H     0.42399  0.42399  0.00000  0.15202
      14     H     0.41960  0.41960  0.00000  0.16080
      15     H     0.41879  0.41879  0.00000  0.16241
      16     H     0.42026  0.42026  0.00000  0.15948
      17     C     3.09382  3.09382  0.00000 -0.18763
      18     H     0.40448  0.40448  0.00000  0.19105
      19     H     0.40309  0.40309  0.00000  0.19383
      20     H     0.42033  0.42033  0.00000  0.15934

   Total alpha = 32.00000, Total beta = 32.00000, Total charge =  0.00000
