  ==> Input File <==

--------------------------------------------------------------------------
set {
	reference rhf
	basis 6-31G*
}

set_num_threads( 4 )
memory 2 gb

molecule MOL {
0 1

O	 1.846825	 1.296220	 0.000415
C	 1.705091	 0.115954	 0.001797
C	 0.381791	 -0.609817	 0.001258
O	 2.721346	 -0.737485	 -0.000216
C	 -0.823008	 0.326187	 0.001381
H	 0.371250	 -1.265087	 -0.865474
H	 0.370908	 -1.265746	 0.867490
C	 -2.149452	 -0.435131	 -0.000098
H	 -0.770201	 0.977095	 -0.865636
H	 -0.771220	 0.975655	 0.869608
C	 -3.368779	 0.488503	 -0.000883
H	 -2.193746	 -1.087250	 -0.871175
H	 -2.195311	 -1.087803	 0.870418
C	 -4.661379	 -0.230250	 -0.385371
H	 -3.194873	 1.312417	 -0.689405
H	 -3.482484	 0.934035	 0.984871
H	 -4.591296	 -0.657557	 -1.381720
H	 -5.507019	 0.450386	 -0.376584
H	 -4.880954	 -1.039304	 0.305663
C	 4.024888	 -0.184556	 -0.001949
H	 4.179030	 0.422472	 -0.882452
H	 4.701782	 -1.024608	 -0.003642
H	 4.181981	 0.421185	 0.878906

	symmetry c1
}
set optking {
	frozen_dihedral = ("
		15 11 8 12
	")
}

ee = optimize('scf')
oeprop('DIPOLE', 'QUADRUPOLE', 'MULLIKEN_CHARGES')
f=open( 'psi4out.xyz', 'w' )
f.write( "23  " )
f.write( str(ee) + "\n" )
f.write( MOL.save_string_xyz() )
f.close()
--------------------------------------------------------------------------

    Molecular point group: c1
  Charge       = 0
  Multiplicity = 1
  Basis Set: 6-31G*
  Basis Set:
  @DF-RHF Final Energy:  -422.97537516913195
    Total Energy =                       -422.9753751691316666
    Molecular point group: c1
  Basis Set: 6-31G*
  Basis Set:
  Basis Set: 6-31G*
  Basis Set:
  @DF-RHF Final Energy:  -422.97542734951662
    Total Energy =                       -422.9754273495165080
  Basis Set: 6-31G*
  Basis Set:
  Basis Set: 6-31G*
  Basis Set:
  @DF-RHF Final Energy:  -422.97489509158004
    Total Energy =                       -422.9748950915801515
  Basis Set: 6-31G*
  Basis Set:
  Basis Set: 6-31G*
  Basis Set:
  @DF-RHF Final Energy:  -422.97550901461915
    Total Energy =                       -422.9755090146188650
  Basis Set: 6-31G*
  Basis Set:
  Basis Set: 6-31G*
  Basis Set:
  @DF-RHF Final Energy:  -422.97551907379608
    Total Energy =                       -422.9755190737960220
  Basis Set: 6-31G*
  Basis Set:
  Charge       = 0
  Multiplicity = 1
  Basis Set: 6-31G*
  Basis Set:

    Orbital Energies (a.u.)
    -----------------------

    Doubly Occupied:

       1A    -20.603671     2A    -20.545480     3A    -11.372312
       4A    -11.280879     5A    -11.235590     6A    -11.219536
       7A    -11.217773     8A    -11.216343     9A    -11.209890
      10A     -1.469375    11A     -1.362824    12A     -1.093063
      13A     -1.043527    14A     -0.987154    15A     -0.932205
      16A     -0.843955    17A     -0.795437    18A     -0.767390
      19A     -0.696943    20A     -0.683802    21A     -0.671603
      22A     -0.650203    23A     -0.609092    24A     -0.599643
      25A     -0.572992    26A     -0.561563    27A     -0.554067
      28A     -0.523926    29A     -0.521197    30A     -0.507773
      31A     -0.485113    32A     -0.470855    33A     -0.463960
      34A     -0.461338    35A     -0.455437    36A     -0.435569

  @DF-RHF Final Energy:  -422.97551961507708

   => Energetics <=

    Nuclear Repulsion Energy =            452.1117034033777031
    One-Electron Energy =               -1471.9314824716514067
    Two-Electron Energy =                 596.8442594531969689
    DFT Exchange-Correlation Energy =       0.0000000000000000
    Empirical Dispersion Energy =           0.0000000000000000
    PCM Polarization Energy =               0.0000000000000000
    EFP Energy =                            0.0000000000000000
    Total Energy =                       -422.9755196150766778
    Molecular point group: c1
  Basis Set: 6-31G*
  Basis Set:

  -Total Gradient:
     Atom            X                  Y                   Z
    ------   -----------------  -----------------  -----------------
       1        0.000005431759    -0.000014596447    -0.000015345833
       2       -0.000000807119     0.000007467754     0.000037705534
       3       -0.000002426472     0.000003143518    -0.000047865247
       4       -0.000004451390     0.000009001154    -0.000017175138
       5       -0.000028167579    -0.000001120541     0.000004810092
       6       -0.000004225771    -0.000011035679    -0.000000264292
       7       -0.000001455630     0.000013746190    -0.000001721899
       8        0.002030583831     0.002775509563    -0.001320580141
       9       -0.000007413270     0.000018113317     0.000006369665
      10       -0.000001220868    -0.000019771451     0.000005873489
      11       -0.001801575529    -0.002372536609    -0.002310368685
      12       -0.001410987673    -0.001933572031     0.001527833576
      13       -0.000013899682    -0.000012897256     0.000036559049
      14        0.000022670709     0.000006575679    -0.000010186762
      15        0.001192054674     0.001517029458     0.002079332971
      16        0.000009389132     0.000002451782     0.000021455562
      17       -0.000016219735     0.000015805763    -0.000008195017
      18        0.000007659707    -0.000000850921     0.000018081097
      19        0.000021142880    -0.000001835214    -0.000010505052
      20        0.000001053722    -0.000002271856     0.000009074427
      21       -0.000000806711     0.000000347556    -0.000001824572
      22        0.000002310103     0.000001342985    -0.000001664436
      23        0.000001360914    -0.000000046712    -0.000001398386

  **** Optimization is complete! (in 6 steps) ****
    Final optimized geometry and variables:
    Molecular point group: c1

    Geometry (in Angstrom), charge = 0, multiplicity = 1:

    O            1.845829494135     1.291051302968     0.036889815209
    C            1.703571173414     0.110903992964     0.045749108040
    C            0.379920892872    -0.614206647746     0.038039510392
    O            2.719263764166    -0.742970145449     0.063781030957
    C           -0.824124875393     0.322388722208     0.018255583222
    H            0.377325111191    -1.276462132880    -0.823470875687
    H            0.360024845966    -1.262997283361     0.909393592483
    C           -2.150325115787    -0.436930133666     0.001774231379
    H           -0.759667681131     0.969866946949    -0.850416511096
    H           -0.784131666428     0.975435844904     0.884687348869
    C           -3.374094184383     0.483654862021     0.030040353373
    H           -2.202077784210    -1.085405587685    -0.871669711141
    H           -2.196175794471    -1.106147523239     0.860172096164
    C           -4.678763769437    -0.237093993542    -0.301916016202
    H           -3.221096920716     1.315901147610    -0.653471314324
    H           -3.452342536730     0.932219345862     1.018277592433
    H           -4.657760077318    -0.641914365699    -1.309713875698
    H           -5.528283664642     0.435058895654    -0.232517483347
    H           -4.854354922700    -1.063238892991     0.381646287073
    C            4.023079389146    -0.190656349270     0.072670240683
    H            4.188215181459     0.408069755819    -0.811509580699
    H            4.699489842532    -1.031031555659     0.086891156506
    H            4.169859630302     0.423117619294     0.949738432814

  Mulliken Charges: (a.u.)
   Center  Symbol    Alpha    Beta     Spin     Total
       1     O     4.28609  4.28609  0.00000 -0.57218
       2     C     2.60488  2.60488  0.00000  0.79024
       3     C     3.20835  3.20835  0.00000 -0.41671
       4     O     4.30739  4.30739  0.00000 -0.61477
       5     C     3.15266  3.15266  0.00000 -0.30531
       6     H     0.40053  0.40053  0.00000  0.19894
       7     H     0.40057  0.40057  0.00000  0.19886
       8     C     3.15406  3.15406  0.00000 -0.30813
       9     H     0.41134  0.41134  0.00000  0.17732
      10     H     0.41170  0.41170  0.00000  0.17661
      11     C     3.15200  3.15200  0.00000 -0.30400
      12     H     0.42386  0.42386  0.00000  0.15228
      13     H     0.42381  0.42381  0.00000  0.15239
      14     C     3.23971  3.23971  0.00000 -0.47943
      15     H     0.42082  0.42082  0.00000  0.15837
      16     H     0.42147  0.42147  0.00000  0.15706
      17     H     0.42146  0.42146  0.00000  0.15708
      18     H     0.41850  0.41850  0.00000  0.16300
      19     H     0.42180  0.42180  0.00000  0.15641
      20     C     3.09245  3.09245  0.00000 -0.18491
      21     H     0.40907  0.40907  0.00000  0.18187
      22     H     0.40842  0.40842  0.00000  0.18316
      23     H     0.40907  0.40907  0.00000  0.18186

   Total alpha = 36.00000, Total beta = 36.00000, Total charge = -0.00000
