                              Psi4 1.0.54 Driver

  ==> Input File <==

--------------------------------------------------------------------------
set {
	reference rhf
	basis cc-pvtz
}

set_num_threads( 4 )
memory 2 gb

molecule MOL {
0 1

O	 -2.081319	 -0.951530	 -0.502732
N	 -1.613558	 0.006676	 0.014756
C	 -0.329345	 -0.171618	 0.743966
O	 -2.068523	 1.100482	 -0.024385
C	 0.835904	 0.041968	 -0.213982
H	 -0.346048	 -1.174374	 1.137184
H	 -0.333613	 0.555559	 1.538590
C	 0.568921	 -0.609333	 -1.568491
H	 0.997516	 1.106210	 -0.339793
H	 1.734423	 -0.374240	 0.226666
C	 1.724035	 -0.416402	 -2.544693
H	 -0.338928	 -0.194058	 -1.996037
H	 0.387075	 -1.670878	 -1.428989
H	 1.907545	 0.636098	 -2.729804
H	 2.639453	 -0.849733	 -2.157461
H	 1.509943	 -0.888252	 -3.495842

	symmetry c1
}
set optking {
	frozen_dihedral = ("
		9 5 3 2
	")
}

ee,wfn = optimize('scf', return_wfn=True)
oeprop( wfn, 'DIPOLE', 'QUADRUPOLE', 'MULLIKEN_CHARGES')
f=open( 'psi4out.xyz', 'w' )
f.write( "16  " )
f.write( str(ee) + "\n" )
f.write( MOL.save_string_xyz() )
f.close()
--------------------------------------------------------------------------

    Molecular point group: c1
  Charge       = 0
  Multiplicity = 1
  Basis Set: CC-PVTZ
  Basis Set:
  @DF-RHF Final Energy:  -360.90338803914392
    Total Energy =                       -360.9033880391443745
    Molecular point group: c1
  Basis Set: CC-PVTZ
  Basis Set:
  Basis Set: CC-PVTZ
  Basis Set:
  @DF-RHF Final Energy:  -360.90389762771116
    Total Energy =                       -360.9038976277115580
  Basis Set: CC-PVTZ
  Basis Set:
  Basis Set: CC-PVTZ
  Basis Set:
  @DF-RHF Final Energy:  -360.90600252480795
    Total Energy =                       -360.9060025248082297
  Basis Set: CC-PVTZ
  Basis Set:
  Basis Set: CC-PVTZ
  Basis Set:
  @DF-RHF Final Energy:  -360.90673038033384
    Total Energy =                       -360.9067303803336131
  Basis Set: CC-PVTZ
  Basis Set:
  @DF-RHF Final Energy:  -360.90705538442859
    Total Energy =                       -360.9070553844284177
  @DF-RHF Final Energy:  -360.90739357648346
    Total Energy =                       -360.9073935764836278
  @DF-RHF Final Energy:  -360.90756899715342
    Total Energy =                       -360.9075689971535894
  Basis Set: CC-PVTZ
  Basis Set:
  @DF-RHF Final Energy:  -360.90766526017484
    Total Energy =                       -360.9076652601751221
  Basis Set: CC-PVTZ
  Basis Set:
  Basis Set: CC-PVTZ
  Basis Set:
  @DF-RHF Final Energy:  -360.90772217320477
    Total Energy =                       -360.9077221732047747
  Basis Set: CC-PVTZ
  Basis Set:
  Basis Set: CC-PVTZ
  Basis Set:
  @DF-RHF Final Energy:  -360.90773865506895
    Total Energy =                       -360.9077386550685560
  Basis Set: CC-PVTZ
  Basis Set:
  Charge       = 0
  Multiplicity = 1
  Basis Set: CC-PVTZ
  Basis Set:

    Orbital Energies (a.u.)
    -----------------------

    Doubly Occupied:

       1A    -20.592562     2A    -20.588017     3A    -15.836126
       4A    -11.296827     5A    -11.249985     6A    -11.233736
       7A    -11.221338     8A     -1.635756     9A     -1.419941
      10A     -1.134196    11A     -1.054559    12A     -0.947896
      13A     -0.856429    14A     -0.814903    15A     -0.754721
      16A     -0.739405    17A     -0.729709    18A     -0.665729
      19A     -0.618942    20A     -0.601261    21A     -0.575246
      22A     -0.542843    23A     -0.508167    24A     -0.494761
      25A     -0.491887    26A     -0.483672    27A     -0.472919
      28A     -0.453659

  @DF-RHF Final Energy:  -360.90773897788830

   => Energetics <=

    Nuclear Repulsion Energy =            321.5508144656832314
    One-Electron Energy =               -1128.8867211858323572
    Two-Electron Energy =                 446.4281677422607117
    DFT Exchange-Correlation Energy =       0.0000000000000000
    Empirical Dispersion Energy =           0.0000000000000000
    PCM Polarization Energy =               0.0000000000000000
    EFP Energy =                            0.0000000000000000
    Total Energy =                       -360.9077389778883571
    Molecular point group: c1
  Basis Set: CC-PVTZ
  Basis Set:

  -Total Gradient:
     Atom            X                  Y                   Z
    ------   -----------------  -----------------  -----------------
       1        0.000000137898     0.000037000411    -0.000000182764
       2       -0.000094754717    -0.003211479646    -0.001020541241
       3        0.000869000409     0.004210436893     0.002163777594
       4       -0.000016303966     0.000004332063    -0.000001394076
       5       -0.003872535237    -0.000661336981    -0.004376239092
       6        0.000003236506    -0.000000049569     0.000003552549
       7        0.000001198751    -0.000002514590     0.000011474050
       8        0.000000924376     0.000016126041    -0.000009158402
       9        0.003107319674    -0.000393240189     0.003247687003
      10        0.000000091121     0.000005193636     0.000005154771
      11       -0.000005786158    -0.000013272082    -0.000011027921
      12       -0.000002007037    -0.000000847690    -0.000007726856
      13        0.000007297897     0.000009620325     0.000002569385
      14       -0.000003083730    -0.000001402186     0.000001670386
      15       -0.000003705065     0.000003463088     0.000001872591
      16        0.000008969274    -0.000002029528    -0.000011487979

  **** Optimization is complete! (in 11 steps) ****
    Final optimized geometry and variables:
    Molecular point group: c1

    Geometry (in Angstrom), charge = 0, multiplicity = 1:

    O           -1.881155227765    -0.812829055250     0.522226745695
    N           -1.174567576365     0.121281670138     0.694957694059
    C            0.176552982018    -0.128052144735     1.270615056941
    O           -1.448279388165     1.246648930922     0.437375448447
    C            1.277725045721     0.158331230985     0.252608986490
    H            0.167942100112    -1.160300332576     1.575340859849
    H            0.254283065895     0.519164110989     2.129407554768
    C            1.048657037518    -0.427968629560    -1.137367800556
    H            1.457672070201     1.224919609059     0.206140281825
    H            2.180305547946    -0.271981746522     0.676903846525
    C            2.238429316885    -0.190917700302    -2.060988765562
    H            0.161391130548     0.010636561147    -1.579366975697
    H            0.858546058608    -1.493454559300    -1.053249603995
    H            2.432498027143     0.868945800016    -2.183776010869
    H            3.139318922484    -0.650464150224    -1.668693988390
    H            2.053826437736    -0.609185929186    -3.042758803987

  Mulliken Charges: (a.u.)
   Center  Symbol    Alpha    Beta     Spin     Total
       1     O     4.16999  4.16999  0.00000 -0.33997
       2     N     3.27989  3.27989  0.00000  0.44021
       3     C     3.04940  3.04940  0.00000 -0.09881
       4     O     4.17483  4.17483  0.00000 -0.34966
       5     C     3.10093  3.10093  0.00000 -0.20186
       6     H     0.43122  0.43122  0.00000  0.13757
       7     H     0.42735  0.42735  0.00000  0.14530
       8     C     3.09099  3.09099  0.00000 -0.18199
       9     H     0.44011  0.44011  0.00000  0.11977
      10     H     0.44670  0.44670  0.00000  0.10661
      11     C     3.14997  3.14997  0.00000 -0.29995
      12     H     0.44065  0.44065  0.00000  0.11871
      13     H     0.44657  0.44657  0.00000  0.10686
      14     H     0.45215  0.45215  0.00000  0.09569
      15     H     0.45511  0.45511  0.00000  0.08979
      16     H     0.44414  0.44414  0.00000  0.11171

   Total alpha = 28.00000, Total beta = 28.00000, Total charge = -0.00000

*** Psi4 exiting successfully. Buy a developer a beer!
