  ==> Input File <==

--------------------------------------------------------------------------
set {
	reference rhf
	basis cc-pvtz
}

set_num_threads( 4 )
memory 2 gb

molecule MOL {
0 1

H	 -2.644180	 -0.653737	 1.272255
C	 -2.092774	 -0.380414	 0.391915
O	 -0.808934	 -0.154049	 0.752536
F	 -2.163230	 -1.351640	 -0.507133
F	 -2.627232	 0.691260	 -0.169301
C	 0.085006	 0.250800	 -0.215074
C	 1.370439	 -0.548013	 -0.012993
Cl	 0.421658	 1.987697	 -0.091007
H	 -0.272219	 0.063284	 -1.212508
F	 1.665649	 -1.222448	 -1.095126
F	 1.190491	 -1.407090	 0.962159
F	 2.383572	 0.214235	 0.294887

	symmetry c1
}
set optking {
	frozen_dihedral = ("
		10 7 6 9
	")
}

ee = optimize('scf')
oeprop('DIPOLE', 'QUADRUPOLE', 'MULLIKEN_CHARGES')
f=open( 'psi4out.xyz', 'w' )
f.write( "12  " )
f.write( str(ee) + "\n" )
f.write( MOL.save_string_xyz() )
f.close()
--------------------------------------------------------------------------

    Molecular point group: c1
  Charge       = 0
  Multiplicity = 1
  Basis Set: CC-PVTZ
  Basis Set:
  @DF-RHF Final Energy: -1146.60837886530726
    Total Energy =                      -1146.6083788653068041
    Molecular point group: c1
  Basis Set: CC-PVTZ
  Basis Set:
  Basis Set: CC-PVTZ
  Basis Set:
  @DF-RHF Final Energy: -1146.60854216514053
    Total Energy =                      -1146.6085421651409888
  Basis Set: CC-PVTZ
  Basis Set:
  Basis Set: CC-PVTZ
  Basis Set:
  @DF-RHF Final Energy: -1146.61085692915799
    Total Energy =                      -1146.6108569291582171
  Basis Set: CC-PVTZ
  Basis Set:
  Basis Set: CC-PVTZ
  Basis Set:
  @DF-RHF Final Energy: -1146.61096851419234
    Total Energy =                      -1146.6109685141923364
  Basis Set: CC-PVTZ
  Basis Set:
  @DF-RHF Final Energy: -1146.61098143488016
    Total Energy =                      -1146.6109814348797045
  @DF-RHF Final Energy: -1146.61098624309625
    Total Energy =                      -1146.6109862430960220
  Basis Set: CC-PVTZ
  Basis Set:
  @DF-RHF Final Energy: -1146.61099242366299
    Total Energy =                      -1146.6109924236636743
  Basis Set: CC-PVTZ
  Basis Set:
  Basis Set: CC-PVTZ
  Basis Set:
  @DF-RHF Final Energy: -1146.61099582548559
    Total Energy =                      -1146.6109958254855883
  Basis Set: CC-PVTZ
  Basis Set:
  Basis Set: CC-PVTZ
  Basis Set:
  @DF-RHF Final Energy: -1146.61099701879675
    Total Energy =                      -1146.6109970187967519
  Basis Set: CC-PVTZ
  Basis Set:
  Charge       = 0
  Multiplicity = 1
  Basis Set: CC-PVTZ
  Basis Set:

    Orbital Energies (a.u.)
    -----------------------

    Doubly Occupied:

       1A   -104.855351     2A    -26.353590     3A    -26.353222
       4A    -26.352745     5A    -26.343437     6A    -26.343184
       7A    -20.639365     8A    -11.522724     9A    -11.483787
      10A    -11.402401    11A    -10.580962    12A     -8.047739
      13A     -8.045768    14A     -8.045681    15A     -1.768533
      16A     -1.724627    17A     -1.662261    18A     -1.660487
      19A     -1.644769    20A     -1.486673    21A     -1.174931
      22A     -1.048246    23A     -0.991217    24A     -0.924116
      25A     -0.862130    26A     -0.858307    27A     -0.851996
      28A     -0.831508    29A     -0.819685    30A     -0.795929
      31A     -0.733110    32A     -0.731875    33A     -0.710674
      34A     -0.708540    35A     -0.684770    36A     -0.680031
      37A     -0.665396    38A     -0.662530    39A     -0.650524
      40A     -0.634394    41A     -0.598319    42A     -0.579322
      43A     -0.523540    44A     -0.476714    45A     -0.468597

  @DF-RHF Final Energy: -1146.61099720606717

   => Energetics <=

    Nuclear Repulsion Energy =            735.5167345270211854
    One-Electron Energy =               -3054.2880490884708706
    Two-Electron Energy =                1172.1603173553821762
    DFT Exchange-Correlation Energy =       0.0000000000000000
    Empirical Dispersion Energy =           0.0000000000000000
    PCM Polarization Energy =               0.0000000000000000
    EFP Energy =                            0.0000000000000000
    Total Energy =                      -1146.6109972060676228
    Molecular point group: c1
  Basis Set: CC-PVTZ
  Basis Set:

  -Total Gradient:
     Atom            X                  Y                   Z
    ------   -----------------  -----------------  -----------------
       1        0.000001279584    -0.000002884980    -0.000001949734
       2        0.000029030704     0.000003191441     0.000006663809
       3       -0.000019874894    -0.000002066302     0.000033246711
       4       -0.000008147888    -0.000001547414    -0.000002116573
       5       -0.000010403604     0.000006370955    -0.000009152673
       6       -0.000833846807    -0.001141550615     0.000469269444
       7        0.000704335442     0.001021401667    -0.000428506721
       8        0.000000426565    -0.000033529373     0.000004666781
       9        0.000603674319     0.000827796458    -0.000361552717
      10       -0.000477740818    -0.000669286367     0.000297702039
      11        0.000022792734    -0.000002420734     0.000000712918
      12       -0.000011525342    -0.000005474670    -0.000008983285

  **** Optimization is complete! (in 10 steps) ****
    Final optimized geometry and variables:
    Molecular point group: c1

    Geometry (in Angstrom), charge = 0, multiplicity = 1:

    H           -2.682292524874    -0.602846336735     1.250536339895
    C           -2.096916498026    -0.373251977402     0.379715114301
    O           -0.844256203587    -0.065531332068     0.782101956988
    F           -2.081794213860    -1.412934187971    -0.443797487768
    F           -2.645279068900     0.627811276355    -0.289516348782
    C            0.076315488525     0.301690736422    -0.175125165358
    C            1.368004196957    -0.553528194981    -0.008274927311
    CL           0.414392755094     2.038875923962    -0.059857534196
    H           -0.286571911452     0.133557532381    -1.171872179721
    F            1.585424160654    -1.194923908853    -1.137125018458
    F            1.226766144088    -1.446292680952     0.933940932277
    F            2.432622506880     0.148435101220     0.260042930782

  Mulliken Charges: (a.u.)
   Center  Symbol    Alpha    Beta     Spin     Total
       1     H     0.45153  0.45153  0.00000  0.09695
       2     C     2.73848  2.73848  0.00000  0.52304
       3     O     4.14963  4.14963  0.00000 -0.29925
       4     F     4.61876  4.61876  0.00000 -0.23752
       5     F     4.61573  4.61573  0.00000 -0.23147
       6     C     2.96404  2.96404  0.00000  0.07191
       7     C     2.66102  2.66102  0.00000  0.67796
       8    CL     8.56881  8.56881  0.00000 -0.13761
       9     H     0.43162  0.43162  0.00000  0.13677
      10     F     4.60725  4.60725  0.00000 -0.21450
      11     F     4.59809  4.59809  0.00000 -0.19618
      12     F     4.59505  4.59505  0.00000 -0.19010

   Total alpha = 45.00000, Total beta = 45.00000, Total charge = -0.00000
