  ==> Input File <==

--------------------------------------------------------------------------
set {
	reference rhf
	basis cc-pvtz
}

set_num_threads( 4 )
memory 2 gb

molecule MOL {
0 1

H	 -0.049733	 2.156262	 -1.212015
C	 0.391293	 2.017781	 -0.216037
C	 0.692262	 0.592428	 0.156232
O	 0.591746	 2.954142	 0.477275
C	 -0.554654	 -0.292621	 0.086567
H	 1.128695	 0.581363	 1.146303
H	 1.436778	 0.222921	 -0.545935
C	 -1.846385	 0.513195	 -0.016346
H	 -0.473986	 -0.956115	 -0.769708
H	 -0.597929	 -0.929215	 0.966651
C	 -3.089953	 -0.365049	 -0.098564
H	 -1.798267	 1.154820	 -0.891143
H	 -1.925398	 1.173265	 0.842889
H	 -3.055079	 -1.012299	 -0.968245
H	 -3.988403	 0.236438	 -0.170014
H	 -3.183055	 -0.995885	 0.779079

	symmetry c1
}
set optking {
	frozen_dihedral = ("
		6 3 5 9
	")
}

ee = optimize('scf')
oeprop('DIPOLE', 'QUADRUPOLE', 'MULLIKEN_CHARGES')
f=open( 'psi4out.xyz', 'w' )
f.write( "16  " )
f.write( str(ee) + "\n" )
f.write( MOL.save_string_xyz() )
f.close()
--------------------------------------------------------------------------

    Molecular point group: c1
  Charge       = 0
  Multiplicity = 1
  Basis Set: CC-PVTZ
  Basis Set:
  @DF-RHF Final Energy:  -270.10794823693959
    Total Energy =                       -270.1079482369396487
    Molecular point group: c1
  Basis Set: CC-PVTZ
  Basis Set:
  Basis Set: CC-PVTZ
  Basis Set:
  @DF-RHF Final Energy:  -270.11113170595797
    Total Energy =                       -270.1111317059580870
  Basis Set: CC-PVTZ
  Basis Set:
  Basis Set: CC-PVTZ
  Basis Set:
  @DF-RHF Final Energy:  -270.11103294113184
    Total Energy =                       -270.1110329411319526
  Basis Set: CC-PVTZ
  Basis Set:
  Basis Set: CC-PVTZ
  Basis Set:
  @DF-RHF Final Energy:  -270.11079800451597
    Total Energy =                       -270.1107980045158570
  Basis Set: CC-PVTZ
  Basis Set:
  @DF-RHF Final Energy:  -270.11151220708405
    Total Energy =                       -270.1115122070839334
  @DF-RHF Final Energy:  -270.11153655737701
    Total Energy =                       -270.1115365573770077
  @DF-RHF Final Energy:  -270.11154746122378
    Total Energy =                       -270.1115474612236085
  Basis Set: CC-PVTZ
  Basis Set:
  @DF-RHF Final Energy:  -270.11155182421999
    Total Energy =                       -270.1115518242198164
  Basis Set: CC-PVTZ
  Basis Set:
  Basis Set: CC-PVTZ
  Basis Set:
  @DF-RHF Final Energy:  -270.11155471715853
    Total Energy =                       -270.1115547171585831
  Basis Set: CC-PVTZ
  Basis Set:
  Basis Set: CC-PVTZ
  Basis Set:
  @DF-RHF Final Energy:  -270.11155595181970
    Total Energy =                       -270.1115559518195255
  Basis Set: CC-PVTZ
  Basis Set:
  Charge       = 0
  Multiplicity = 1
  Basis Set: CC-PVTZ
  Basis Set:

    Orbital Energies (a.u.)
    -----------------------

    Doubly Occupied:

       1A    -20.550785     2A    -11.320946     3A    -11.234264
       4A    -11.233701     5A    -11.226914     6A    -11.216286
       7A     -1.405712     8A     -1.093859     9A     -1.017085
      10A     -0.906668    11A     -0.832205    12A     -0.776585
      13A     -0.675014    14A     -0.647275    15A     -0.629375
      16A     -0.605405    17A     -0.585423    18A     -0.559627
      19A     -0.525134    20A     -0.512110    21A     -0.494442
      22A     -0.476117    23A     -0.469157    24A     -0.411092

  @DF-RHF Final Energy:  -270.11155601740143

   => Energetics <=

    Nuclear Repulsion Energy =            234.1877113332145370
    One-Electron Energy =                -829.7881714202878811
    Two-Electron Energy =                 325.4889040696720599
    DFT Exchange-Correlation Energy =       0.0000000000000000
    Empirical Dispersion Energy =           0.0000000000000000
    PCM Polarization Energy =               0.0000000000000000
    EFP Energy =                            0.0000000000000000
    Total Energy =                       -270.1115560174012558
    Molecular point group: c1
  Basis Set: CC-PVTZ
  Basis Set:

  -Total Gradient:
     Atom            X                  Y                   Z
    ------   -----------------  -----------------  -----------------
       1       -0.000010262645     0.000003747305     0.000007265416
       2        0.000010328642     0.000002882720    -0.000022560710
       3       -0.002798354059     0.003790655170     0.002079612636
       4       -0.000019645773    -0.000032536678    -0.000008762738
       5       -0.001687452516     0.003057662717    -0.003568596678
       6        0.002606722598    -0.003677101468    -0.001130372586
       7       -0.000005322378     0.000036668709    -0.000032214327
       8        0.000011685592     0.000022923888     0.000001012641
       9        0.001912527283    -0.003232387994     0.002654088117
      10       -0.000014542200     0.000021155337     0.000015306277
      11       -0.000000025983     0.000007852111     0.000002791620
      12        0.000001855728    -0.000002441936     0.000003660781
      13       -0.000009117658     0.000000937471    -0.000001882100
      14        0.000000936415     0.000002165315    -0.000000336857
      15       -0.000000252887    -0.000001225325     0.000001087841
      16        0.000000919842    -0.000000957344    -0.000000099333

  **** Optimization is complete! (in 11 steps) ****
    Final optimized geometry and variables:
    Molecular point group: c1

    Geometry (in Angstrom), charge = 0, multiplicity = 1:

    H            0.875288929420     1.311337733386    -1.335011458127
    C            1.163368800254     1.139973765384    -0.290993444456
    C            1.308593182596    -0.300980180732     0.112671753826
    O            1.358999258971     2.060793859902     0.424826271391
    C            0.033698285312    -1.168575363572    -0.045667400603
    H            1.688007371959    -0.345459418719     1.123809170353
    H            2.089824224602    -0.711485387660    -0.522946639955
    C           -1.293920728700    -0.413574014179    -0.101135662523
    H            0.134582874256    -1.818388108478    -0.907888824816
    H            0.001516999036    -1.842432651085     0.803742880777
    C           -2.493242572018    -1.354808141233    -0.120256404618
    H           -1.329889699327     0.220299013225    -0.981432052861
    H           -1.368137343066     0.249023605958     0.755918913963
    H           -2.459302478519    -2.014845188957    -0.980607260976
    H           -3.423081210231    -0.800524691813    -0.164912658914
    H           -2.518477043197    -1.973721793099     0.770103866464

  Mulliken Charges: (a.u.)
   Center  Symbol    Alpha    Beta     Spin     Total
       1     H     0.46187  0.46187  0.00000  0.07626
       2     C     2.90391  2.90391  0.00000  0.19218
       3     C     3.08775  3.08775  0.00000 -0.17549
       4     O     4.16829  4.16829  0.00000 -0.33658
       5     C     3.10223  3.10223  0.00000 -0.20445
       6     H     0.44118  0.44118  0.00000  0.11765
       7     H     0.44685  0.44685  0.00000  0.10629
       8     C     3.09253  3.09253  0.00000 -0.18506
       9     H     0.44764  0.44764  0.00000  0.10471
      10     H     0.44738  0.44738  0.00000  0.10524
      11     C     3.15110  3.15110  0.00000 -0.30220
      12     H     0.45282  0.45282  0.00000  0.09436
      13     H     0.44253  0.44253  0.00000  0.11493
      14     H     0.45487  0.45487  0.00000  0.09025
      15     H     0.44562  0.44562  0.00000  0.10877
      16     H     0.45342  0.45342  0.00000  0.09316

   Total alpha = 24.00000, Total beta = 24.00000, Total charge = -0.00000
