  ==> Input File <==

--------------------------------------------------------------------------
set {
	reference rhf
	basis cc-pvtz
}

set_num_threads( 4 )
memory 2 gb

molecule MOL {
0 1

H	 -2.816458	 -0.841657	 -0.064679
N	 -1.878861	 -0.711874	 0.250184
C	 -1.341419	 0.551458	 -0.220231
H	 -1.333674	 -1.468530	 -0.105118
C	 0.082190	 0.731516	 0.254705
H	 -1.357065	 0.652078	 -1.304747
H	 -1.939897	 1.357530	 0.189797
O	 0.268141	 -0.021050	 1.415211
H	 0.774353	 0.402713	 -0.519227
H	 0.270138	 1.783794	 0.455490
C	 1.523642	 0.113213	 1.993927
H	 1.552121	 -0.511560	 2.874968
H	 2.311022	 -0.205704	 1.314207
H	 1.718543	 1.142054	 2.287291

	symmetry c1
}
set optking {
	frozen_dihedral = ("
		8 5 3 6
	")
}

ee = optimize('scf')
oeprop('DIPOLE', 'QUADRUPOLE', 'MULLIKEN_CHARGES')
f=open( 'psi4out.xyz', 'w' )
f.write( "14  " )
f.write( str(ee) + "\n" )
f.write( MOL.save_string_xyz() )
f.close()
--------------------------------------------------------------------------

    Molecular point group: c1
  Charge       = 0
  Multiplicity = 1
  Basis Set: CC-PVTZ
  Basis Set:
  @DF-RHF Final Energy:  -248.21261812522059
    Total Energy =                       -248.2126181252207857
    Molecular point group: c1
  Basis Set: CC-PVTZ
  Basis Set:
  Basis Set: CC-PVTZ
  Basis Set:
  @DF-RHF Final Energy:  -248.21398420732496
    Total Energy =                       -248.2139842073248701
  Basis Set: CC-PVTZ
  Basis Set:
  Basis Set: CC-PVTZ
  Basis Set:
  @DF-RHF Final Energy:  -248.21500077769019
    Total Energy =                       -248.2150007776900793
  Basis Set: CC-PVTZ
  Basis Set:
  Basis Set: CC-PVTZ
  Basis Set:
  @DF-RHF Final Energy:  -248.21515599785045
    Total Energy =                       -248.2151559978503883
  Basis Set: CC-PVTZ
  Basis Set:
  @DF-RHF Final Energy:  -248.21526505810766
    Total Energy =                       -248.2152650581077182
  @DF-RHF Final Energy:  -248.21532829350855
    Total Energy =                       -248.2153282935085485
  @DF-RHF Final Energy:  -248.21537740760374
    Total Energy =                       -248.2153774076035688
  @DF-RHF Final Energy:  -248.21544135821233
    Total Energy =                       -248.2154413582123311
  @DF-RHF Final Energy:  -248.21597416694988
    Total Energy =                       -248.2159741669499908
  @DF-RHF Final Energy:  -248.21726663845658
    Total Energy =                       -248.2172666384567492
  @DF-RHF Final Energy:  -248.20634530355269
    Total Energy =                       -248.2063453035527800
  @DF-RHF Final Energy:  -248.21604864090853
    Total Energy =                       -248.2160486409084683
  @DF-RHF Final Energy:  -248.21944595978283
    Total Energy =                       -248.2194459597827745
  @DF-RHF Final Energy:  -248.22023950079009
    Total Energy =                       -248.2202395007900577
  Basis Set: CC-PVTZ
  Basis Set:
  @DF-RHF Final Energy:  -248.22077841475664
    Total Energy =                       -248.2207784147566372
  Basis Set: CC-PVTZ
  Basis Set:
  Basis Set: CC-PVTZ
  Basis Set:
  @DF-RHF Final Energy:  -248.22080111158704
    Total Energy =                       -248.2208011115868658
  Basis Set: CC-PVTZ
  Basis Set:
  Basis Set: CC-PVTZ
  Basis Set:
  @DF-RHF Final Energy:  -248.22080257239250
    Total Energy =                       -248.2208025723926426
  Basis Set: CC-PVTZ
  Basis Set:
  Charge       = 0
  Multiplicity = 1
  Basis Set: CC-PVTZ
  Basis Set:

    Orbital Energies (a.u.)
    -----------------------

    Doubly Occupied:

       1A    -20.554629     2A    -15.520852     3A    -11.267453
       4A    -11.267357     5A    -11.241041     6A     -1.388918
       7A     -1.173621     8A     -0.997450     9A     -0.912418
      10A     -0.820373    11A     -0.689449    12A     -0.667356
      13A     -0.648689    14A     -0.641252    15A     -0.575652
      16A     -0.554223    17A     -0.526346    18A     -0.501689
      19A     -0.480367    20A     -0.421651    21A     -0.381784

  @DF-RHF Final Energy:  -248.22080266869858

   => Energetics <=

    Nuclear Repulsion Energy =            194.8844993678661126
    One-Electron Energy =                -723.7454574234052416
    Two-Electron Energy =                 280.6401553868407177
    DFT Exchange-Correlation Energy =       0.0000000000000000
    Empirical Dispersion Energy =           0.0000000000000000
    PCM Polarization Energy =               0.0000000000000000
    EFP Energy =                            0.0000000000000000
    Total Energy =                       -248.2208026686984681
    Molecular point group: c1
  Basis Set: CC-PVTZ
  Basis Set:

  -Total Gradient:
     Atom            X                  Y                   Z
    ------   -----------------  -----------------  -----------------
       1       -0.000005755584     0.000005056549     0.000002540507
       2       -0.000008153179    -0.000027395386     0.000006036818
       3       -0.000686146351     0.006967960259     0.000318412243
       4       -0.000000639683     0.000004906528    -0.000004015279
       5       -0.001634144935     0.003961117045     0.004113011302
       6        0.000937750556    -0.006779206126    -0.001128496777
       7       -0.000006822776     0.000007551272     0.000004247243
       8        0.001406379795    -0.004121174321    -0.003321351198
       9       -0.000003411482    -0.000005595538     0.000009175580
      10        0.000001371712    -0.000015605540     0.000005418567
      11       -0.000005382824     0.000004705170    -0.000009394924
      12        0.000001663337    -0.000000278049     0.000001659025
      13        0.000002888308    -0.000000012704     0.000002069438
      14        0.000000403107    -0.000002029157     0.000000687457

  **** Optimization is complete! (in 18 steps) ****
    Final optimized geometry and variables:
    Molecular point group: c1

    Geometry (in Angstrom), charge = 0, multiplicity = 1:

    H           -1.279396337132    -1.481182360461    -1.189628356930
    N           -1.742152611987    -0.774179590413    -0.657069377026
    C           -1.121296308996     0.518639234213    -0.874914117894
    H           -1.654359532722    -1.040025913347     0.300299834104
    C            0.338773609610     0.639953020745    -0.415979532262
    H           -1.151131903867     0.694486447529    -1.943636479620
    H           -1.727197786421     1.271951501869    -0.388034255945
    O            0.568490031856    -0.182631122142     0.684585850543
    H            1.006246334072     0.340753494959    -1.224834051893
    H            0.569030586300     1.676655699982    -0.176219255440
    C            1.858067618540    -0.109731253390     1.195373792052
    H            1.925074318441    -0.796981090414     2.026360481337
    H            2.597244396915    -0.390641151837     0.448185325901
    H            2.091890093666     0.891585953365     1.549523179994

  Mulliken Charges: (a.u.)
   Center  Symbol    Alpha    Beta     Spin     Total
       1     H     0.43454  0.43454  0.00000  0.13093
       2     N     3.68350  3.68350  0.00000 -0.36700
       3     C     3.04079  3.04079  0.00000 -0.08158
       4     H     0.42366  0.42366  0.00000  0.15269
       5     C     2.96809  2.96809  0.00000  0.06382
       6     H     0.45457  0.45457  0.00000  0.09086
       7     H     0.45149  0.45149  0.00000  0.09701
       8     O     4.17635  4.17635  0.00000 -0.35271
       9     H     0.47682  0.47682  0.00000  0.04636
      10     H     0.47204  0.47204  0.00000  0.05591
      11     C     3.02918  3.02918  0.00000 -0.05836
      12     H     0.44729  0.44729  0.00000  0.10543
      13     H     0.47162  0.47162  0.00000  0.05676
      14     H     0.47006  0.47006  0.00000  0.05987

   Total alpha = 21.00000, Total beta = 21.00000, Total charge = -0.00000
