                              Psi4 1.0.54 Driver

  ==> Input File <==

--------------------------------------------------------------------------
set {
	reference rhf
	basis cc-pvtz
}

set_num_threads( 4 )
memory 2 gb

molecule MOL {
0 1

H	 -0.939693	 0.000281	 1.681345
O	 -0.046262	 -0.000157	 1.387678
C	 -0.000837	 0.000006	 -0.025491
C	 -0.703034	 1.246945	 -0.559542
C	 1.453525	 -0.043249	 -0.490363
C	 -0.740889	 -1.259910	 -0.453419
H	 -0.715936	 1.256934	 -1.643298
H	 -0.195390	 2.147068	 -0.226155
H	 -1.724501	 1.284301	 -0.202228
H	 1.519559	 -0.080550	 -1.571583
H	 1.990852	 0.839143	 -0.156092
H	 1.951425	 -0.914830	 -0.084276
H	 -0.759637	 -1.349216	 -1.533216
H	 -1.760835	 -1.236626	 -0.090955
H	 -0.256425	 -2.136702	 -0.042631

	symmetry c1
}
set optking {
	frozen_dihedral = ("
		4 3 2 1
	")
}

ee,wfn = optimize('scf', return_wfn=True)
oeprop( wfn, 'DIPOLE', 'QUADRUPOLE', 'MULLIKEN_CHARGES')
f=open( 'psi4out.xyz', 'w' )
f.write( "15  " )
f.write( str(ee) + "\n" )
f.write( MOL.save_string_xyz() )
f.close()
--------------------------------------------------------------------------

    Molecular point group: c1
  Charge       = 0
  Multiplicity = 1
  Basis Set: CC-PVTZ
  Basis Set:
  @DF-RHF Final Energy:  -232.24474176654627
    Total Energy =                       -232.2447417665464400
    Molecular point group: c1
  Basis Set: CC-PVTZ
  Basis Set:
  Basis Set: CC-PVTZ
  Basis Set:
  @DF-RHF Final Energy:  -232.24573988196590
    Total Energy =                       -232.2457398819657897
  Basis Set: CC-PVTZ
  Basis Set:
  Basis Set: CC-PVTZ
  Basis Set:
  @DF-RHF Final Energy:  -232.24677833110661
    Total Energy =                       -232.2467783311064977
  Basis Set: CC-PVTZ
  Basis Set:
  Basis Set: CC-PVTZ
  Basis Set:
  @DF-RHF Final Energy:  -232.24679951022119
    Total Energy =                       -232.2467995102208533
  Basis Set: CC-PVTZ
  Basis Set:
  Basis Set: CC-PVTZ
  Basis Set:
  @DF-RHF Final Energy:  -232.24680191310861
    Total Energy =                       -232.2468019131085271
  Basis Set: CC-PVTZ
  Basis Set:
  Charge       = 0
  Multiplicity = 1
  Basis Set: CC-PVTZ
  Basis Set:

    Orbital Energies (a.u.)
    -----------------------

    Doubly Occupied:

       1A    -20.542242     2A    -11.280788     3A    -11.209475
       4A    -11.209147     5A    -11.203898     6A     -1.365023
       7A     -1.065159     8A     -0.942064     9A     -0.940444
      10A     -0.778504    11A     -0.672669    12A     -0.624311
      13A     -0.622789    14A     -0.575933    15A     -0.557587
      16A     -0.532712    17A     -0.517032    18A     -0.511284
      19A     -0.504690    20A     -0.458816    21A     -0.428764

  @DF-RHF Final Energy:  -232.24680284724971

   => Energetics <=

    Nuclear Repulsion Energy =            200.6769036442870799
    One-Electron Energy =                -712.7607507808086211
    Two-Electron Energy =                 279.8370442892717165
    DFT Exchange-Correlation Energy =       0.0000000000000000
    Empirical Dispersion Energy =           0.0000000000000000
    PCM Polarization Energy =               0.0000000000000000
    EFP Energy =                            0.0000000000000000
    Total Energy =                       -232.2468028472497963
    Molecular point group: c1
  Basis Set: CC-PVTZ
  Basis Set:

  -Total Gradient:
     Atom            X                  Y                   Z
    ------   -----------------  -----------------  -----------------
       1       -0.000016663499     0.000078210873    -0.000003877042
       2       -0.000019441534    -0.000155142235    -0.000059979424
       3        0.000030116410     0.000051534046    -0.000034675140
       4       -0.000040144161    -0.000004243973     0.000020221071
       5        0.000020048613     0.000001716482     0.000005691445
       6        0.000023641740     0.000012249440     0.000094267487
       7       -0.000020585049    -0.000001178305    -0.000033824887
       8        0.000027007926     0.000036657374     0.000000290835
       9       -0.000033934411     0.000007852989     0.000017709767
      10        0.000003853303    -0.000010505672    -0.000003576603
      11        0.000010240429     0.000022975378     0.000007568535
      12        0.000018379922    -0.000018201253     0.000008187925
      13        0.000008016794     0.000013865808    -0.000022743596
      14       -0.000001201713    -0.000007611545     0.000005681467
      15       -0.000009334770    -0.000028179406    -0.000000941842

  **** Optimization is complete! (in 6 steps) ****
    Final optimized geometry and variables:
    Molecular point group: c1

    Geometry (in Angstrom), charge = 0, multiplicity = 1:

    H           -0.633502950071     0.170004728616     1.810685201837
    O            0.194760918345     0.099569670047     1.370883342948
    C           -0.005158639404    -0.001779530464    -0.024992170255
    C           -0.735607063374     1.241522527559    -0.528893965960
    C            1.390452089800    -0.088432736709    -0.627465415101
    C           -0.807373754150    -1.263956630850    -0.335548014262
    H           -0.873182244796     1.207948592540    -1.603496421941
    H           -0.173665440262     2.133357033070    -0.280962541400
    H           -1.717362645193     1.322733763987    -0.071959890412
    H            1.341061421749    -0.172337663222    -1.706719886033
    H            1.962883563290     0.795332133322    -0.375373830773
    H            1.913703210212    -0.952375874634    -0.237477422073
    H           -0.946554175529    -1.388280319261    -1.403275279265
    H           -1.790298149161    -1.217820767624     0.123512979315
    H           -0.296523232905    -2.137543511424     0.049616870343

  Mulliken Charges: (a.u.)
   Center  Symbol    Alpha    Beta     Spin     Total
       1     H     0.39576  0.39576  0.00000  0.20848
       2     O     4.21097  4.21097  0.00000 -0.42193
       3     C     2.87839  2.87839  0.00000  0.24322
       4     C     3.15032  3.15032  0.00000 -0.30064
       5     C     3.14315  3.14315  0.00000 -0.28630
       6     C     3.15007  3.15007  0.00000 -0.30014
       7     H     0.45545  0.45545  0.00000  0.08910
       8     H     0.44643  0.44643  0.00000  0.10714
       9     H     0.45600  0.45600  0.00000  0.08800
      10     H     0.45872  0.45872  0.00000  0.08257
      11     H     0.44843  0.44843  0.00000  0.10314
      12     H     0.44828  0.44828  0.00000  0.10344
      13     H     0.45562  0.45562  0.00000  0.08875
      14     H     0.45591  0.45591  0.00000  0.08818
      15     H     0.44651  0.44651  0.00000  0.10698

   Total alpha = 21.00000, Total beta = 21.00000, Total charge =  0.00000

*** Psi4 exiting successfully. Buy a developer a beer!
