                              Psi4 1.0.54 Driver

  ==> Input File <==

--------------------------------------------------------------------------
set {
	reference rhf
	basis cc-pvtz
}

set_num_threads( 4 )
memory 2 gb

molecule MOL {
0 1

H	 -3.294565	 0.569785	 0.000000
C	 -2.246225	 0.343737	 0.000000
C	 -1.809462	 -0.973484	 0.000000
C	 -1.312577	 1.353775	 0.000000
H	 -2.523539	 -1.775124	 0.000000
C	 -0.467257	 -1.267606	 0.000000
H	 -1.631287	 2.379013	 0.000000
C	 0.046966	 1.074396	 0.000000
H	 -0.119372	 -2.281828	 0.000000
C	 0.471772	 -0.241514	 0.000000
H	 0.748162	 1.882966	 0.000000
O	 1.760432	 -0.625184	 0.000000
C	 2.255979	 -1.403573	 -1.047236
H	 1.740924	 -2.355424	 -1.113606
H	 3.297004	 -1.581634	 -0.828309
H	 2.177906	 -0.887701	 -1.997756

	symmetry c1
}
set optking {
	frozen_dihedral = ("
		13 12 10 8
	")
}

ee,wfn = optimize('scf', return_wfn=True)
oeprop( wfn, 'DIPOLE', 'QUADRUPOLE', 'MULLIKEN_CHARGES')
f=open( 'psi4out.xyz', 'w' )
f.write( "16  " )
f.write( str(ee) + "\n" )
f.write( MOL.save_string_xyz() )
f.close()
--------------------------------------------------------------------------

    Molecular point group: c1
  Charge       = 0
  Multiplicity = 1
  Basis Set: CC-PVTZ
  Basis Set:
  @DF-RHF Final Energy:  -344.69719167346204
    Total Energy =                       -344.6971916734622141
    Molecular point group: c1
  Basis Set: CC-PVTZ
  Basis Set:
  Basis Set: CC-PVTZ
  Basis Set:
  @DF-RHF Final Energy:  -344.70005148556561
    Total Energy =                       -344.7000514855656093
  Basis Set: CC-PVTZ
  Basis Set:
  Basis Set: CC-PVTZ
  Basis Set:
  @DF-RHF Final Energy:  -344.70092427581449
    Total Energy =                       -344.7009242758141454
  Basis Set: CC-PVTZ
  Basis Set:
  Basis Set: CC-PVTZ
  Basis Set:
  @DF-RHF Final Energy:  -344.70097993171731
    Total Energy =                       -344.7009799317175407
  Basis Set: CC-PVTZ
  Basis Set:
  Basis Set: CC-PVTZ
  Basis Set:
  @DF-RHF Final Energy:  -344.70099198344917
    Total Energy =                       -344.7009919834490574
  Basis Set: CC-PVTZ
  Basis Set:
  Charge       = 0
  Multiplicity = 1
  Basis Set: CC-PVTZ
  Basis Set:

    Orbital Energies (a.u.)
    -----------------------

    Doubly Occupied:

       1A    -20.568954     2A    -11.287219     3A    -11.274910
       4A    -11.232231     5A    -11.231204     6A    -11.224658
       7A    -11.222674     8A    -11.221867     9A     -1.407213
      10A     -1.152662    11A     -1.022210    12A     -1.018571
      13A     -0.937225    14A     -0.838079    15A     -0.809914
      16A     -0.719874    17A     -0.669593    18A     -0.667254
      19A     -0.643759    20A     -0.616603    21A     -0.597901
      22A     -0.586720    23A     -0.532457    24A     -0.512449
      25A     -0.508802    26A     -0.487419    27A     -0.445517
      28A     -0.340244    29A     -0.322074

  @DF-RHF Final Energy:  -344.70099340673511

   => Energetics <=

    Nuclear Repulsion Energy =            348.6517682169057366
    One-Electron Energy =               -1158.5050069354360858
    Two-Electron Energy =                 465.1522453117950135
    DFT Exchange-Correlation Energy =       0.0000000000000000
    Empirical Dispersion Energy =           0.0000000000000000
    PCM Polarization Energy =               0.0000000000000000
    EFP Energy =                            0.0000000000000000
    Total Energy =                       -344.7009934067352788
    Molecular point group: c1
  Basis Set: CC-PVTZ
  Basis Set:

  -Total Gradient:
     Atom            X                  Y                   Z
    ------   -----------------  -----------------  -----------------
       1       -0.000021025873    -0.000029443941    -0.000006142372
       2        0.000058522285     0.000118967373    -0.000043042610
       3        0.000054364128    -0.000074285413     0.000055970980
       4       -0.000068121321    -0.000034594287     0.000049670416
       5       -0.000031198094     0.000007285894    -0.000004008489
       6        0.000016904977    -0.000063334445    -0.000017418477
       7        0.000015394361     0.000002392253    -0.000008812873
       8        0.000002332232    -0.000015253509    -0.000066015170
       9       -0.000005770385    -0.000008214074    -0.000005256483
      10       -0.000091521886     0.000171638563     0.000025021605
      11        0.000028996477    -0.000010382847    -0.000006723117
      12        0.000066289277    -0.000160133404     0.000058148580
      13       -0.000032962906     0.000095760760    -0.000111103170
      14       -0.000013668785    -0.000008807245     0.000043087382
      15        0.000011207611     0.000012069855     0.000023895861
      16        0.000010257900    -0.000003665535     0.000012727937

  **** Optimization is complete! (in 6 steps) ****
    Final optimized geometry and variables:
    Molecular point group: c1

    Geometry (in Angstrom), charge = 0, multiplicity = 1:

    H           -3.150129517365     1.043411109309     0.276665721403
    C           -2.124487558152     0.732255947079     0.231241330167
    C           -1.801262591189    -0.610932685703     0.273407664612
    C           -1.113578778272     1.669532511856     0.136960693663
    H           -2.578220165822    -1.347031723978     0.356409893292
    C           -0.482353793191    -1.019102629958     0.220223728655
    H           -1.351823339129     2.715799332634     0.107947782376
    C            0.207873003069     1.270639691035     0.075651471996
    H           -0.236288327250    -2.061531689343     0.273801384737
    C            0.523974209107    -0.074443888573     0.115943726684
    H            1.001860710012     1.988095569010     0.005168371401
    O            1.834192499565    -0.426666042051     0.100031794583
    C            2.270221980610    -1.232638018258    -0.961324564732
    H            1.809203337144    -2.212761384304    -0.940059596516
    H            3.337605218525    -1.346214575310    -0.848133940082
    H            2.058432702313    -0.763488169506    -1.916043944769

  Mulliken Charges: (a.u.)
   Center  Symbol    Alpha    Beta     Spin     Total
       1     H     0.42370  0.42370  0.00000  0.15261
       2     C     3.09037  3.09037  0.00000 -0.18074
       3     C     3.06691  3.06691  0.00000 -0.13382
       4     C     3.06387  3.06387  0.00000 -0.12773
       5     H     0.42244  0.42244  0.00000  0.15512
       6     C     3.11829  3.11829  0.00000 -0.23658
       7     H     0.42224  0.42224  0.00000  0.15552
       8     C     3.11266  3.11266  0.00000 -0.22532
       9     H     0.42190  0.42190  0.00000  0.15620
      10     C     2.85483  2.85483  0.00000  0.29034
      11     H     0.41782  0.41782  0.00000  0.16435
      12     O     4.17547  4.17547  0.00000 -0.35094
      13     C     3.03521  3.03521  0.00000 -0.07041
      14     H     0.46501  0.46501  0.00000  0.06998
      15     H     0.44416  0.44416  0.00000  0.11168
      16     H     0.46512  0.46512  0.00000  0.06976

   Total alpha = 29.00000, Total beta = 29.00000, Total charge = -0.00000

*** Psi4 exiting successfully. Buy a developer a beer!
