  ==> Input File <==

--------------------------------------------------------------------------
set {
	reference rhf
	basis 6-31G*
}

set_num_threads( 4 )
memory 2 gb

molecule MOL {
0 1

O	 1.519464	 0.109411	 -0.165366
C	 2.701189	 0.057885	 -0.047330
C	 3.658763	 1.203580	 -0.269191
O	 3.347903	 -1.046386	 0.304773
C	 2.959156	 2.502099	 -0.664809
H	 4.238355	 1.314799	 0.641245
H	 4.364880	 0.890884	 -1.034251
C	 3.923197	 3.646530	 -0.995562
H	 2.288124	 2.805444	 0.133199
H	 2.330199	 2.307208	 -1.526698
C	 4.749683	 4.156689	 0.188400
H	 3.340112	 4.473499	 -1.394131
H	 4.592856	 3.336449	 -1.796447
C	 5.613489	 5.368457	 -0.167208
H	 4.079551	 4.420221	 1.005279
H	 5.393499	 3.364957	 0.564744
C	 6.447746	 5.883655	 1.006981
H	 4.974738	 6.170829	 -0.532491
H	 6.276351	 5.108814	 -0.991161
C	 7.304575	 7.096168	 0.644547
H	 5.786991	 6.142626	 1.831589
H	 7.090033	 5.084306	 1.370695
H	 7.883919	 7.437826	 1.496742
H	 6.688216	 7.925755	 0.309760
H	 8.000823	 6.859352	 -0.155098
C	 4.728119	 -1.109107	 -0.004993
H	 4.882018	 -1.033965	 -1.071845
H	 5.068212	 -2.067527	 0.355250
H	 5.265056	 -0.311663	 0.488280

	symmetry c1
}
set optking {
	frozen_dihedral = ("
		1 2 4 26
	")
}

ee = optimize('scf')
oeprop('DIPOLE', 'QUADRUPOLE', 'MULLIKEN_CHARGES')
f=open( 'psi4out.xyz', 'w' )
f.write( "29  " )
f.write( str(ee) + "\n" )
f.write( MOL.save_string_xyz() )
f.close()
--------------------------------------------------------------------------

    Molecular point group: c1
  Charge       = 0
  Multiplicity = 1
  Basis Set: 6-31G*
  Basis Set:
  @DF-RHF Final Energy:  -501.01770036991240
    Total Energy =                       -501.0177003699129727
    Molecular point group: c1
  Basis Set: 6-31G*
  Basis Set:
  Basis Set: 6-31G*
  Basis Set:
  @DF-RHF Final Energy:  -501.01638585802391
    Total Energy =                       -501.0163858580247052
  Basis Set: 6-31G*
  Basis Set:
  Basis Set: 6-31G*
  Basis Set:
  @DF-RHF Final Energy:  -501.02545941352139
    Total Energy =                       -501.0254594135203661
  Basis Set: 6-31G*
  Basis Set:
  Basis Set: 6-31G*
  Basis Set:
  @DF-RHF Final Energy:  -501.02745780785381
    Total Energy =                       -501.0274578078538070
  Basis Set: 6-31G*
  Basis Set:
  @DF-RHF Final Energy:  -501.02650735112275
    Total Energy =                       -501.0265073511227456
  @DF-RHF Final Energy:  -501.02800528576915
    Total Energy =                       -501.0280052857693818
  @DF-RHF Final Energy:  -501.02817318333098
    Total Energy =                       -501.0281731833308640
  Basis Set: 6-31G*
  Basis Set:
  @DF-RHF Final Energy:  -501.02817014633695
    Total Energy =                       -501.0281701463379704
  Basis Set: 6-31G*
  Basis Set:
  Basis Set: 6-31G*
  Basis Set:
  @DF-RHF Final Energy:  -501.02817776508982
    Total Energy =                       -501.0281777650897084
  Basis Set: 6-31G*
  Basis Set:
  Basis Set: 6-31G*
  Basis Set:
  @DF-RHF Final Energy:  -501.02818021826647
    Total Energy =                       -501.0281802182656747
  Basis Set: 6-31G*
  Basis Set:
  Charge       = 0
  Multiplicity = 1
  Basis Set: 6-31G*
  Basis Set:

    Orbital Energies (a.u.)
    -----------------------

    Doubly Occupied:

       1A    -20.600060     2A    -20.540607     3A    -11.373518
       4A    -11.296108     5A    -11.244528     6A    -11.223278
       7A    -11.221625     8A    -11.220197     9A    -11.219018
      10A    -11.217921    11A    -11.211668    12A     -1.462043
      13A     -1.364828    14A     -1.101717    15A     -1.068641
      16A     -1.014655    17A     -0.985170    18A     -0.945335
      19A     -0.870074    20A     -0.805869    21A     -0.794975
      22A     -0.762744    23A     -0.704260    24A     -0.687016
      25A     -0.672644    26A     -0.654585    27A     -0.632796
      28A     -0.608367    29A     -0.600220    30A     -0.588092
      31A     -0.569379    32A     -0.557163    33A     -0.542906
      34A     -0.538090    35A     -0.520576    36A     -0.508848
      37A     -0.501969    38A     -0.481222    39A     -0.473843
      40A     -0.465978    41A     -0.462181    42A     -0.447630
      43A     -0.442980    44A     -0.430687

  @DF-RHF Final Energy:  -501.02818043443347

   => Energetics <=

    Nuclear Repulsion Energy =            614.8513936668465476
    One-Electron Energy =               -1900.4871333343571678
    Two-Electron Energy =                 784.6075592330766995
    DFT Exchange-Correlation Energy =       0.0000000000000000
    Empirical Dispersion Energy =           0.0000000000000000
    PCM Polarization Energy =               0.0000000000000000
    EFP Energy =                            0.0000000000000000
    Total Energy =                       -501.0281804344340344
    Molecular point group: c1
  Basis Set: 6-31G*
  Basis Set:

  -Total Gradient:
     Atom            X                  Y                   Z
    ------   -----------------  -----------------  -----------------
       1        0.000059570948    -0.000538827227    -0.002074960398
       2       -0.000472528474     0.000389567789     0.001983036005
       3        0.000006589208     0.000009352751     0.000003583303
       4        0.000865077181     0.000905819734     0.001739482181
       5        0.000002919818     0.000005571963     0.000004477761
       6        0.000000694514     0.000000626792    -0.000006683625
       7        0.000009060474     0.000005013781     0.000001812497
       8        0.000010138237    -0.000019570430    -0.000006213130
       9        0.000001340615     0.000001964439     0.000002885698
      10       -0.000002214023     0.000004841563    -0.000000918220
      11       -0.000010981339     0.000011126159     0.000006662082
      12       -0.000008146676    -0.000013474781     0.000002449002
      13        0.000002491989     0.000000832625    -0.000003421598
      14        0.000002343364    -0.000000656056     0.000001143480
      15       -0.000003326929     0.000007559629     0.000004868037
      16       -0.000002719064     0.000003138866    -0.000000739213
      17        0.000006491841    -0.000004488212    -0.000002330479
      18        0.000000038456    -0.000000092462     0.000005459584
      19       -0.000002902051     0.000000885204    -0.000003284102
      20        0.000001424208    -0.000000558110    -0.000000017662
      21       -0.000000468156     0.000000175034    -0.000002192149
      22        0.000000971329    -0.000000232428     0.000001682676
      23        0.000000003722     0.000000419706     0.000000032297
      24       -0.000000348162    -0.000000103540    -0.000000264521
      25        0.000000088676     0.000000088166     0.000000482732
      26       -0.000472296372    -0.000769585136    -0.001657447405
      27       -0.000002722158     0.000003882448     0.000001142816
      28        0.000011505274    -0.000009967560    -0.000001337049
      29       -0.000002096448     0.000006689308     0.000000609397

  **** Optimization is complete! (in 11 steps) ****
    Final optimized geometry and variables:
    Molecular point group: c1

    Geometry (in Angstrom), charge = 0, multiplicity = 1:

    O           -2.686763260037    -2.343660561842    -0.180718334835
    C           -1.511288211742    -2.430197990274    -0.072095300116
    C           -0.562585446811    -1.269310376363    -0.301159715489
    O           -0.977455735833    -3.599457470089     0.298753158177
    C           -1.297401006569     0.026731619356    -0.641215154181
    H            0.044094930944    -1.156042327982     0.592166378806
    H            0.125739378284    -1.529144186273    -1.101782903262
    C           -0.363125245414     1.196511485764    -0.968157572130
    H           -1.949720399390     0.293815298650     0.183867893512
    H           -1.947333856212    -0.158988497532    -1.488512132456
    C            0.485976877298     1.694639195622     0.205012217374
    H           -0.973070855853     2.021111060227    -1.329296572765
    H            0.289642101118     0.920979839102    -1.795448774495
    C            1.312851311166     2.934116919850    -0.142895521719
    H           -0.165717184149     1.921771457789     1.047174083132
    H            1.158064788610     0.908517447953     0.542587304867
    C            2.171482363018     3.435964109975     1.019439786802
    H            0.646145122240     3.731462081183    -0.466496216395
    H            1.955393626571     2.711553088658    -0.993413401852
    C            2.990607452069     4.676508968849     0.664844034521
    H            1.530926342702     3.657888419193     1.870288758007
    H            2.841728169072     2.641656165018     1.341661003526
    H            3.588396278784     5.007776519650     1.508296207613
    H            2.346576292217     5.500840904119     0.371995139049
    H            3.666793719843     4.476962928019    -0.161734590190
    C            0.371944258103    -3.925889415460     0.065481249145
    H            0.609521967477    -3.887905272620    -0.990688891339
    H            0.493609042093    -4.938882165892     0.416109158633
    H            1.046750318809    -3.280051068941     0.612972335597

  Mulliken Charges: (a.u.)
   Center  Symbol    Alpha    Beta     Spin     Total
       1     O     4.26552  4.26552  0.00000 -0.53105
       2     C     2.59843  2.59843  0.00000  0.80315
       3     C     3.23511  3.23511  0.00000 -0.47022
       4     O     4.30434  4.30434  0.00000 -0.60867
       5     C     3.15043  3.15043  0.00000 -0.30087
       6     H     0.40085  0.40085  0.00000  0.19830
       7     H     0.40586  0.40586  0.00000  0.18827
       8     C     3.15742  3.15742  0.00000 -0.31485
       9     H     0.41018  0.41018  0.00000  0.17965
      10     H     0.40596  0.40596  0.00000  0.18807
      11     C     3.15473  3.15473  0.00000 -0.30946
      12     H     0.41680  0.41680  0.00000  0.16641
      13     H     0.42485  0.42485  0.00000  0.15030
      14     C     3.15032  3.15032  0.00000 -0.30065
      15     H     0.42140  0.42140  0.00000  0.15721
      16     H     0.42622  0.42622  0.00000  0.14755
      17     C     3.15150  3.15150  0.00000 -0.30299
      18     H     0.42248  0.42248  0.00000  0.15505
      19     H     0.42425  0.42425  0.00000  0.15150
      20     C     3.23943  3.23943  0.00000 -0.47886
      21     H     0.42222  0.42222  0.00000  0.15556
      22     H     0.42416  0.42416  0.00000  0.15169
      23     H     0.41886  0.41886  0.00000  0.16228
      24     H     0.42106  0.42106  0.00000  0.15788
      25     H     0.42190  0.42190  0.00000  0.15621
      26     C     3.09374  3.09374  0.00000 -0.18748
      27     H     0.41597  0.41597  0.00000  0.16807
      28     H     0.39827  0.39827  0.00000  0.20346
      29     H     0.41775  0.41775  0.00000  0.16450

   Total alpha = 44.00000, Total beta = 44.00000, Total charge =  0.00000
