                              Psi4 1.0.54 Driver

  ==> Input File <==

--------------------------------------------------------------------------
set {
	reference rhf
	basis cc-pvtz
}

set_num_threads( 4 )
memory 2 gb

molecule MOL {
0 1

H	 -3.034039	 -0.667848	 0.004703
O	 -2.240597	 -1.171748	 0.000934
C	 -1.159675	 -0.364500	 0.000370
C	 -1.263529	 1.011587	 0.003831
C	 0.086404	 -0.972210	 -0.004987
H	 -2.228487	 1.484777	 0.005979
C	 -0.107172	 1.772545	 0.000518
H	 0.132343	 -2.044032	 -0.009856
C	 1.238469	 -0.211865	 -0.005890
H	 -0.183932	 2.843470	 0.000160
C	 1.133134	 1.175540	 -0.005136
C	 2.593676	 -0.872717	 0.012297
H	 2.019984	 1.780462	 -0.010329
H	 3.272883	 -0.385775	 -0.676461
H	 2.526578	 -1.917195	 -0.260301
H	 3.033779	 -0.814485	 1.002025

	symmetry c1
}
set optking {
	frozen_dihedral = ("
		5 3 2 1
	")
}

ee,wfn = optimize('scf', return_wfn=True)
oeprop( wfn, 'DIPOLE', 'QUADRUPOLE', 'MULLIKEN_CHARGES')
f=open( 'psi4out.xyz', 'w' )
f.write( "16  " )
f.write( str(ee) + "\n" )
f.write( MOL.save_string_xyz() )
f.close()
--------------------------------------------------------------------------

    Molecular point group: c1
  Charge       = 0
  Multiplicity = 1
  Basis Set: CC-PVTZ
  Basis Set:
  @DF-RHF Final Energy:  -344.72082862776455
    Total Energy =                       -344.7208286277642628
    Molecular point group: c1
  Basis Set: CC-PVTZ
  Basis Set:
  Charge       = 0
  Multiplicity = 1
  Basis Set: CC-PVTZ
  Basis Set:

    Orbital Energies (a.u.)
    -----------------------

    Doubly Occupied:

       1A    -20.583136     2A    -11.295278     3A    -11.240585
       4A    -11.232812     5A    -11.219735     6A    -11.218866
       7A    -11.213817     8A    -11.212694     9A     -1.413887
      10A     -1.154067    11A     -1.046235    12A     -1.008629
      13A     -0.938668    14A     -0.828820    15A     -0.826406
      16A     -0.717497    17A     -0.684664    18A     -0.657486
      19A     -0.610112    20A     -0.596111    21A     -0.573291
      22A     -0.572101    23A     -0.570747    24A     -0.534526
      25A     -0.507177    26A     -0.484457    27A     -0.472831
      28A     -0.333487    29A     -0.310160

  @DF-RHF Final Energy:  -344.72082868069634

   => Energetics <=

    Nuclear Repulsion Energy =            346.4234523723669668
    One-Electron Energy =               -1154.1719934841721624
    Two-Electron Energy =                 463.0277124311087960
    DFT Exchange-Correlation Energy =       0.0000000000000000
    Empirical Dispersion Energy =           0.0000000000000000
    PCM Polarization Energy =               0.0000000000000000
    EFP Energy =                            0.0000000000000000
    Total Energy =                       -344.7208286806964566
    Molecular point group: c1
  Basis Set: CC-PVTZ
  Basis Set:

  -Total Gradient:
     Atom            X                  Y                   Z
    ------   -----------------  -----------------  -----------------
       1       -0.000003585336    -0.000000004201     0.000016725646
       2       -0.000009799902    -0.000002633498    -0.000045299679
       3        0.000027278750    -0.000004064756     0.000071705400
       4        0.000002028790     0.000009290780    -0.000029737540
       5       -0.000017182194    -0.000000279871     0.000013884247
       6       -0.000000281227    -0.000000810893    -0.000000914540
       7       -0.000016162302    -0.000002913082     0.000003728559
       8        0.000000938020     0.000001094560     0.000000842312
       9        0.000011199396     0.000020092308    -0.000069402253
      10        0.000001436008    -0.000001038923    -0.000002382729
      11        0.000006357994    -0.000016906130     0.000018991397
      12       -0.000000245175     0.000002162424     0.000013550320
      13       -0.000000557138    -0.000000095204    -0.000000440076
      14       -0.000004127388     0.000002821333     0.000005721720
      15       -0.000001517836     0.000000284625    -0.000002173361
      16        0.000004219541    -0.000006999472     0.000005200577

  **** Optimization is complete! (in 2 steps) ****
    Final optimized geometry and variables:
    Molecular point group: c1

    Geometry (in Angstrom), charge = 0, multiplicity = 1:

    H           -3.034111934155    -0.667820054131     0.003740874947
    O           -2.240617088516    -1.171713007544    -0.000363624676
    C           -1.159695003849    -0.364503759389     0.000017781957
    C           -1.263514967524     1.011565237012     0.003106771004
    C            0.086419826607    -0.972188832458    -0.005693511570
    H           -2.228476485434     1.484771642170     0.004931623486
    C           -0.107149211967     1.772497575040     0.000033859042
    H            0.132353361545    -2.044010132984    -0.010620308156
    C            1.238461594982    -0.211874334387    -0.006941276113
    H           -0.183940883496     2.843419169486    -0.000322841261
    C            1.133142590317     1.175520366341    -0.005641958796
    C            2.593673913044    -0.872698079701     0.011429210247
    H            2.020003005432     1.780429642750    -0.010696329048
    H            3.272574375960    -0.386409767634    -0.678105421840
    H            2.526452448249    -1.917442102834    -0.260146091941
    H            3.034216832491    -0.813493616391     1.000915251468

  Mulliken Charges: (a.u.)
   Center  Symbol    Alpha    Beta     Spin     Total
       1     H     0.38744  0.38744  0.00000  0.22512
       2     O     4.17508  4.17508  0.00000 -0.35016
       3     C     2.83533  2.83533  0.00000  0.32933
       4     C     3.14937  3.14937  0.00000 -0.29874
       5     C     3.14134  3.14134  0.00000 -0.28269
       6     H     0.43551  0.43551  0.00000  0.12898
       7     C     3.05685  3.05685  0.00000 -0.11370
       8     H     0.42227  0.42227  0.00000  0.15547
       9     C     2.93484  2.93484  0.00000  0.13032
      10     H     0.42293  0.42293  0.00000  0.15413
      11     C     3.11915  3.11915  0.00000 -0.23829
      12     C     3.14655  3.14655  0.00000 -0.29309
      13     H     0.42793  0.42793  0.00000  0.14415
      14     H     0.44833  0.44833  0.00000  0.10335
      15     H     0.45018  0.45018  0.00000  0.09963
      16     H     0.44690  0.44690  0.00000  0.10620

   Total alpha = 29.00000, Total beta = 29.00000, Total charge =  0.00000

*** Psi4 exiting successfully. Buy a developer a beer!
