                              Psi4 1.0.54 Driver

  ==> Input File <==

--------------------------------------------------------------------------
set {
	reference rhf
	basis cc-pvtz
}

set_num_threads( 4 )
memory 2 gb

molecule MOL {
0 1

H	 -2.803050	 -1.009130	 0.882688
O	 -2.658848	 -0.704215	 -0.000460
C	 -1.605397	 0.107680	 0.001145
C	 -0.310616	 -0.658853	 0.000791
O	 -1.718351	 1.284629	 -0.000627
C	 0.926581	 0.227233	 0.000178
H	 -0.327628	 -1.313681	 -0.864448
H	 -0.327041	 -1.313334	 0.866298
C	 2.220156	 -0.582071	 -0.000088
H	 0.899945	 0.878221	 -0.866390
H	 0.900542	 0.878581	 0.866486
C	 3.466689	 0.296012	 -0.000457
H	 2.239073	 -1.234095	 -0.869382
H	 2.239505	 -1.233985	 0.869270
H	 3.493549	 0.935857	 -0.875887
H	 4.368821	 -0.304526	 -0.001199
H	 3.494559	 0.935166	 0.875458

	symmetry c1
}
set optking {
	frozen_dihedral = ("
		1 2 3 5
	")
}

ee,wfn = optimize('scf', return_wfn=True)
oeprop( wfn, 'DIPOLE', 'QUADRUPOLE', 'MULLIKEN_CHARGES')
f=open( 'psi4out.xyz', 'w' )
f.write( "17  " )
f.write( str(ee) + "\n" )
f.write( MOL.save_string_xyz() )
f.close()
--------------------------------------------------------------------------

    Molecular point group: c1
  Charge       = 0
  Multiplicity = 1
  Basis Set: CC-PVTZ
  Basis Set:
  @DF-RHF Final Energy:  -345.02736850422087
    Total Energy =                       -345.0273685042209308
    Molecular point group: c1
  Basis Set: CC-PVTZ
  Basis Set:
  Basis Set: CC-PVTZ
  Basis Set:
  @DF-RHF Final Energy:  -345.02851877988763
    Total Energy =                       -345.0285187798876905
  Basis Set: CC-PVTZ
  Basis Set:
  Basis Set: CC-PVTZ
  Basis Set:
  @DF-RHF Final Energy:  -345.02711520147835
    Total Energy =                       -345.0271152014786367
  Basis Set: CC-PVTZ
  Basis Set:
  Basis Set: CC-PVTZ
  Basis Set:
  @DF-RHF Final Energy:  -345.02899437116008
    Total Energy =                       -345.0289943711602518
  Basis Set: CC-PVTZ
  Basis Set:
  Basis Set: CC-PVTZ
  Basis Set:
  @DF-RHF Final Energy:  -345.02902319318486
    Total Energy =                       -345.0290231931851395
  Basis Set: CC-PVTZ
  Basis Set:
  Charge       = 0
  Multiplicity = 1
  Basis Set: CC-PVTZ
  Basis Set:

    Orbital Energies (a.u.)
    -----------------------

    Doubly Occupied:

       1A    -20.586321     2A    -20.550405     3A    -11.374200
       4A    -11.242781     5A    -11.223573     6A    -11.222951
       7A    -11.212470     8A     -1.463346     9A     -1.370897
      10A     -1.094219    11A     -1.018934    12A     -0.909719
      13A     -0.825619    14A     -0.798115    15A     -0.712636
      16A     -0.676235    17A     -0.665756    18A     -0.641989
      19A     -0.596374    20A     -0.586906    21A     -0.542557
      22A     -0.530853    23A     -0.520912    24A     -0.502068
      25A     -0.482676    26A     -0.475786    27A     -0.474851
      28A     -0.445603

  @DF-RHF Final Energy:  -345.02902376245174

   => Energetics <=

    Nuclear Repulsion Energy =            303.9772431077249166
    One-Electron Energy =               -1072.5150283037442023
    Two-Electron Energy =                 423.5087614335676562
    DFT Exchange-Correlation Energy =       0.0000000000000000
    Empirical Dispersion Energy =           0.0000000000000000
    PCM Polarization Energy =               0.0000000000000000
    EFP Energy =                            0.0000000000000000
    Total Energy =                       -345.0290237624516294
    Molecular point group: c1
  Basis Set: CC-PVTZ
  Basis Set:

  -Total Gradient:
     Atom            X                  Y                   Z
    ------   -----------------  -----------------  -----------------
       1       -0.000533789599     0.000713701223     0.000069572499
       2        0.000749666093    -0.000776789670     0.000266119892
       3       -0.000171072792    -0.000022593651    -0.001126310146
       4       -0.000021264319     0.000037520406    -0.000026299494
       5       -0.000059910275     0.000075403665     0.000790307317
       6        0.000014496271     0.000005304251     0.000012225981
       7        0.000011464719    -0.000013210904     0.000010889662
       8        0.000009035947    -0.000006191649     0.000008612668
       9        0.000004670225    -0.000002834244    -0.000000496412
      10       -0.000000780320    -0.000003640315     0.000003512713
      11       -0.000002765814    -0.000009151405    -0.000008321060
      12        0.000002164042     0.000000120534    -0.000000577953
      13       -0.000000986531    -0.000000949009     0.000000151133
      14       -0.000000126858     0.000001610545     0.000001461115
      15        0.000000330866     0.000001175946    -0.000001410889
      16       -0.000001616528     0.000000110710    -0.000000987455
      17        0.000000484871     0.000000413571     0.000001550432

  **** Optimization is complete! (in 6 steps) ****
    Final optimized geometry and variables:
    Molecular point group: c1

    Geometry (in Angstrom), charge = 0, multiplicity = 1:

    H           -2.934585447841    -1.010684957399     0.811370727248
    O           -2.699348740312    -0.715147328004    -0.052306251061
    C           -1.610579630771     0.099257270232    -0.031630990586
    C           -0.303051223253    -0.648173444040     0.008196223139
    O           -1.722873740428     1.265969805440    -0.087371116717
    C            0.928309826212     0.245534174551     0.014437874597
    H           -0.301621861663    -1.319020651561    -0.845197206436
    H           -0.322589086899    -1.293246691270     0.883241271317
    C            2.228407307214    -0.552681263585     0.047971924408
    H            0.909543155189     0.881699769384    -0.863050173640
    H            0.883639545087     0.911366309370     0.869286294314
    C            3.467629355245     0.335646226448     0.052032716343
    H            2.265969003996    -1.218731190794    -0.809902609197
    H            2.239939234734    -1.189968447113     0.928445742485
    H            3.502912327050     0.960476578884    -0.833789919132
    H            4.374427582983    -0.257293803397     0.075677322896
    H            3.476561405158     0.989967141370     0.917086075007

  Mulliken Charges: (a.u.)
   Center  Symbol    Alpha    Beta     Spin     Total
       1     H     0.38967  0.38967  0.00000  0.22065
       2     O     4.17252  4.17252  0.00000 -0.34504
       3     C     2.79908  2.79908  0.00000  0.40183
       4     C     3.11905  3.11905  0.00000 -0.23809
       5     O     4.16030  4.16030  0.00000 -0.32061
       6     C     3.08350  3.08350  0.00000 -0.16700
       7     H     0.43596  0.43596  0.00000  0.12808
       8     H     0.44891  0.44891  0.00000  0.10217
       9     C     3.08627  3.08627  0.00000 -0.17254
      10     H     0.44409  0.44409  0.00000  0.11183
      11     H     0.44707  0.44707  0.00000  0.10585
      12     C     3.14915  3.14915  0.00000 -0.29830
      13     H     0.45421  0.45421  0.00000  0.09157
      14     H     0.45553  0.45553  0.00000  0.08893
      15     H     0.45305  0.45305  0.00000  0.09390
      16     H     0.44782  0.44782  0.00000  0.10437
      17     H     0.45380  0.45380  0.00000  0.09239

   Total alpha = 28.00000, Total beta = 28.00000, Total charge =  0.00000

*** Psi4 exiting successfully. Buy a developer a beer!
