  ==> Input File <==

--------------------------------------------------------------------------
set {
	reference rhf
	basis 6-31G*
}

set_num_threads( 4 )
memory 2 gb

molecule MOL {
0 1

H	 -3.489736	 -0.245244	 -0.802111
O	 -3.112929	 -0.206196	 0.066282
C	 -1.776682	 -0.067725	 0.008503
C	 -1.090195	 0.003414	 -1.200081
C	 -1.089500	 0.003486	 1.213815
H	 -1.630408	 -0.052567	 -2.129783
C	 0.281523	 0.145561	 -1.198429
H	 -1.641377	 -0.053704	 2.132745
C	 0.282363	 0.145648	 1.199077
H	 0.823967	 0.201773	 -2.123467
C	 0.984182	 0.218375	 0.000000
H	 0.815366	 0.200881	 2.132843
C	 2.452467	 0.370529	 0.000000
O	 3.228994	 -0.533774	 0.000000
H	 2.809473	 1.405765	 0.000000

	symmetry c1
}
set optking {
	frozen_dihedral = ("
		7 11 13 14
	")
}

ee = optimize('scf')
oeprop('DIPOLE', 'QUADRUPOLE', 'MULLIKEN_CHARGES')
f=open( 'psi4out.xyz', 'w' )
f.write( "15  " )
f.write( str(ee) + "\n" )
f.write( MOL.save_string_xyz() )
f.close()
--------------------------------------------------------------------------

    Molecular point group: c1
  Charge       = 0
  Multiplicity = 1
  Basis Set: 6-31G*
  Basis Set:
  @DF-RHF Final Energy:  -418.27289078890493
    Total Energy =                       -418.2728907889053289
    Molecular point group: c1
  Basis Set: 6-31G*
  Basis Set:
  Basis Set: 6-31G*
  Basis Set:
  @DF-RHF Final Energy:  -418.27353711608379
    Total Energy =                       -418.2735371160832756
  Basis Set: 6-31G*
  Basis Set:
  Basis Set: 6-31G*
  Basis Set:
  @DF-RHF Final Energy:  -418.27356082846103
    Total Energy =                       -418.2735608284606315
  Basis Set: 6-31G*
  Basis Set:
  Basis Set: 6-31G*
  Basis Set:
  @DF-RHF Final Energy:  -418.27350709273304
    Total Energy =                       -418.2735070927330980
  Basis Set: 6-31G*
  Basis Set:
  Basis Set: 6-31G*
  Basis Set:
  @DF-RHF Final Energy:  -418.27357077782420
    Total Energy =                       -418.2735707778241476
  Basis Set: 6-31G*
  Basis Set:
  Charge       = 0
  Multiplicity = 1
  Basis Set: 6-31G*
  Basis Set:

    Orbital Energies (a.u.)
    -----------------------

    Doubly Occupied:

       1A    -20.602842     2A    -20.571683     3A    -11.334997
       4A    -11.312895     5A    -11.255457     6A    -11.253297
       7A    -11.244409     8A    -11.243010     9A    -11.236942
      10A     -1.422505    11A     -1.410294    12A     -1.167934
      13A     -1.037544    14A     -1.035365    15A     -0.886823
      16A     -0.859815    17A     -0.800716    18A     -0.751754
      19A     -0.706450    20A     -0.675350    21A     -0.653820
      22A     -0.628205    23A     -0.604961    24A     -0.600600
      25A     -0.589989    26A     -0.560863    27A     -0.527502
      28A     -0.501800    29A     -0.493087    30A     -0.421970
      31A     -0.354105    32A     -0.323370

  @DF-RHF Final Energy:  -418.27357128172690

   => Energetics <=

    Nuclear Repulsion Energy =            400.0422313230330360
    One-Electron Energy =               -1362.4908959454555770
    Two-Electron Energy =                 544.1750933406955255
    DFT Exchange-Correlation Energy =       0.0000000000000000
    Empirical Dispersion Energy =           0.0000000000000000
    PCM Polarization Energy =               0.0000000000000000
    EFP Energy =                            0.0000000000000000
    Total Energy =                       -418.2735712817269587
    Molecular point group: c1
  Basis Set: 6-31G*
  Basis Set:

  -Total Gradient:
     Atom            X                  Y                   Z
    ------   -----------------  -----------------  -----------------
       1        0.000007867758     0.000008731882    -0.000001157046
       2       -0.000013541724    -0.000032298112    -0.000009488748
       3        0.000018013391     0.000053319655     0.000141952708
       4        0.000084783555     0.000005735620    -0.000056425612
       5       -0.000146229090    -0.000023663087    -0.000080512428
       6       -0.000002461233    -0.000000309187     0.000001182138
       7       -0.000077267898     0.000099310424    -0.000066703935
       8        0.000016867806     0.000005558105     0.000010405226
       9        0.000150469463    -0.000008450694    -0.000084356846
      10       -0.000006270013     0.000005836781     0.000004602641
      11       -0.000030863671    -0.000186549988     0.000203434076
      12       -0.000016859827     0.000004332184     0.000006017818
      13        0.000063258833     0.000043121168    -0.000186806041
      14       -0.000036899691     0.000026758838     0.000141597275
      15       -0.000010867651    -0.000001433589    -0.000023741226

  **** Optimization is complete! (in 6 steps) ****
    Final optimized geometry and variables:
    Molecular point group: c1

    Geometry (in Angstrom), charge = 0, multiplicity = 1:

    H           -3.500841380548    -0.255455490368    -0.805936403856
    O           -3.126137777093    -0.202717955588     0.062247369561
    C           -1.784871960170    -0.064282372562     0.000418022006
    C           -1.096561739399     0.007707605807    -1.199697150372
    C           -1.093396584520     0.007834309491     1.202445288582
    H           -1.628922848597    -0.050457328869    -2.133853865230
    C            0.281698145718     0.150799608938    -1.195804763654
    H           -1.641669773245    -0.052633424104     2.123733895214
    C            0.279152487952     0.150624833534     1.193970091221
    H            0.805687190144     0.200552278400    -2.134067911420
    C            0.982304342249     0.221390146703    -0.003769459587
    H            0.806875243325     0.200731725174     2.130161362036
    C            2.475187877380     0.380015205175    -0.003346836185
    O            3.239041668882    -0.529483827592    -0.006325558747
    H            2.848908166729     1.408340467322     0.001321921871

  Mulliken Charges: (a.u.)
   Center  Symbol    Alpha    Beta     Spin     Total
       1     H     0.27019  0.27019  0.00000  0.45961
       2     O     4.37628  4.37628  0.00000 -0.75256
       3     C     2.79268  2.79268  0.00000  0.41464
       4     C     3.14185  3.14185  0.00000 -0.28371
       5     C     3.12099  3.12099  0.00000 -0.24198
       6     H     0.39966  0.39966  0.00000  0.20068
       7     C     3.09520  3.09520  0.00000 -0.19040
       8     H     0.38693  0.38693  0.00000  0.22613
       9     C     3.09539  3.09539  0.00000 -0.19078
      10     H     0.39010  0.39010  0.00000  0.21981
      11     C     3.04270  3.04270  0.00000 -0.08541
      12     H     0.38979  0.38979  0.00000  0.22042
      13     C     2.85406  2.85406  0.00000  0.29187
      14     O     4.21999  4.21999  0.00000 -0.43998
      15     H     0.42418  0.42418  0.00000  0.15164

   Total alpha = 32.00000, Total beta = 32.00000, Total charge =  0.00000
