                              Psi4 1.0.54 Driver

  ==> Input File <==

--------------------------------------------------------------------------
set {
	reference rhf
	basis cc-pvtz
}

set_num_threads( 4 )
memory 2 gb

molecule MOL {
0 1

H	 1.827839	 2.015796	 -1.016389
O	 0.921156	 1.900082	 -0.801490
C	 0.700177	 0.619554	 -0.266242
C	 -0.713111	 0.588314	 0.266177
H	 1.396638	 0.416670	 0.541660
H	 0.819815	 -0.145858	 -1.028612
O	 -1.421673	 -0.521378	 -0.196983
H	 -1.244794	 1.469161	 -0.069059
H	 -0.685100	 0.604721	 1.352683
H	 -0.933408	 -1.297830	 0.014544

	symmetry c1
}
set optking {
	frozen_dihedral = ("
		5 3 4 7
	")
}

ee,wfn = optimize('scf', return_wfn=True)
oeprop( wfn, 'DIPOLE', 'QUADRUPOLE', 'MULLIKEN_CHARGES')
f=open( 'psi4out.xyz', 'w' )
f.write( "10  " )
f.write( str(ee) + "\n" )
f.write( MOL.save_string_xyz() )
f.close()
--------------------------------------------------------------------------

    Molecular point group: c1
  Charge       = 0
  Multiplicity = 1
  Basis Set: CC-PVTZ
  Basis Set:
  @DF-RHF Final Energy:  -229.01788605826843
    Total Energy =                       -229.0178860582684024
    Molecular point group: c1
  Basis Set: CC-PVTZ
  Basis Set:
  Basis Set: CC-PVTZ
  Basis Set:
  @DF-RHF Final Energy:  -229.01896538423574
    Total Energy =                       -229.0189653842356279
  Basis Set: CC-PVTZ
  Basis Set:
  Basis Set: CC-PVTZ
  Basis Set:
  @DF-RHF Final Energy:  -229.01932303775888
    Total Energy =                       -229.0193230377589089
  Basis Set: CC-PVTZ
  Basis Set:
  Basis Set: CC-PVTZ
  Basis Set:
  @DF-RHF Final Energy:  -229.01942843505466
    Total Energy =                       -229.0194284350546354
  Basis Set: CC-PVTZ
  Basis Set:
  Basis Set: CC-PVTZ
  Basis Set:
  @DF-RHF Final Energy:  -229.01944585727085
    Total Energy =                       -229.0194458572709379
  Basis Set: CC-PVTZ
  Basis Set:
  Charge       = 0
  Multiplicity = 1
  Basis Set: CC-PVTZ
  Basis Set:

    Orbital Energies (a.u.)
    -----------------------

    Doubly Occupied:

       1A    -20.552232     2A    -20.550897     3A    -11.270469
       4A    -11.267313     5A     -1.375752     6A     -1.362451
       7A     -0.996561     8A     -0.847754     9A     -0.712686
      10A     -0.704137    11A     -0.637521    12A     -0.598456
      13A     -0.585970    14A     -0.530734    15A     -0.490346
      16A     -0.444749    17A     -0.441438

  @DF-RHF Final Energy:  -229.01944655834208

   => Energetics <=

    Nuclear Repulsion Energy =            131.2698969895308494
    One-Electron Energy =                -573.8397576817075105
    Two-Electron Energy =                 213.5504141338346358
    DFT Exchange-Correlation Energy =       0.0000000000000000
    Empirical Dispersion Energy =           0.0000000000000000
    PCM Polarization Energy =               0.0000000000000000
    EFP Energy =                            0.0000000000000000
    Total Energy =                       -229.0194465583420538
    Molecular point group: c1
  Basis Set: CC-PVTZ
  Basis Set:

  -Total Gradient:
     Atom            X                  Y                   Z
    ------   -----------------  -----------------  -----------------
       1       -0.000019165012    -0.000012333109     0.000005305258
       2        0.000000929650     0.000044346994    -0.000029040390
       3       -0.000460021637    -0.003534636844    -0.001643868849
       4        0.001117332116    -0.001128002259     0.002988312012
       5        0.000169294141     0.003174409023     0.000713972612
       6        0.000010225715     0.000012218268     0.000004759059
       7       -0.000780808804     0.001485424603    -0.002039585666
       8       -0.000031075141    -0.000050198742    -0.000017203814
       9       -0.000013392770     0.000005221554     0.000009635038
      10        0.000006681743     0.000003550510     0.000007714737

  **** Optimization is complete! (in 6 steps) ****
    Final optimized geometry and variables:
    Molecular point group: c1

    Geometry (in Angstrom), charge = 0, multiplicity = 1:

    H            1.970884896525     1.331447032861    -0.799591095716
    O            1.078036914466     1.262821969072    -0.515901759146
    C            0.827730844726    -0.025803231187    -0.016539715380
    C           -0.605146537036    -0.057370106979     0.520614164573
    H            1.541309634250    -0.247741529981     0.772908106775
    H            0.921026202444    -0.770918532207    -0.798992652061
    O           -1.346911131929    -1.148611146740     0.047275836122
    H           -1.106141032175     0.828675475043     0.161816510386
    H           -0.614462136323    -0.027764679244     1.605326508025
    H           -1.095661835712    -1.935975709049     0.494037984061

  Mulliken Charges: (a.u.)
   Center  Symbol    Alpha    Beta     Spin     Total
       1     H     0.39393  0.39393  0.00000  0.21214
       2     O     4.19766  4.19766  0.00000 -0.39533
       3     C     2.96975  2.96975  0.00000  0.06050
       4     C     2.97525  2.97525  0.00000  0.04950
       5     H     0.47849  0.47849  0.00000  0.04302
       6     H     0.47100  0.47100  0.00000  0.05799
       7     O     4.19908  4.19908  0.00000 -0.39816
       8     H     0.45003  0.45003  0.00000  0.09993
       9     H     0.46907  0.46907  0.00000  0.06185
      10     H     0.39573  0.39573  0.00000  0.20855

   Total alpha = 17.00000, Total beta = 17.00000, Total charge = -0.00000

*** Psi4 exiting successfully. Buy a developer a beer!
