  ==> Input File <==

--------------------------------------------------------------------------
set {
	reference rhf
	basis 6-31G*
}

set_num_threads( 1 )
memory 2 gb

molecule MOL {
0 1

H	 2.142014	 2.207914	 1.655362
O	 3.005385	 1.977295	 1.344756
C	 3.262118	 0.623821	 1.620892
C	 2.480133	 -0.331147	 0.725759
H	 4.324010	 0.487220	 1.461521
H	 3.061771	 0.404068	 2.668913
C	 0.962370	 -0.252421	 0.907602
H	 2.735102	 -0.120079	 -0.309523
H	 2.817357	 -1.344938	 0.935220
C	 0.209203	 -1.260529	 0.035090
H	 0.626241	 0.753549	 0.672213
H	 0.713394	 -0.429576	 1.954009
C	 -1.309753	 -1.282496	 0.241564
H	 0.427100	 -1.060451	 -1.012448
H	 0.598948	 -2.255288	 0.240646
C	 -2.037799	 -0.007733	 -0.193645
H	 -1.718304	 -2.122606	 -0.316216
H	 -1.527123	 -1.482090	 1.289777
C	 -3.489788	 0.042957	 0.286558
H	 -2.017067	 0.064384	 -1.280144
H	 -1.513726	 0.868678	 0.179924
C	 -4.216917	 1.317354	 -0.141063
H	 -4.025645	 -0.823308	 -0.095450
H	 -3.513059	 -0.038752	 1.371301
H	 -4.239342	 1.411634	 -1.223113
H	 -5.243387	 1.322503	 0.212445
H	 -3.726170	 2.201406	 0.256408

	symmetry c1
}
set optking {
	frozen_dihedral = ("
		14 10 7 4,
		14 10 13 16,
		10 7 4 8,
		8 4 3 2,
		20 16 19 22,
		4 3 2 1
	")
}

ee = energy('scf')
oeprop('DIPOLE', 'QUADRUPOLE', 'MULLIKEN_CHARGES')
f=open( 'psi4out.xyz', 'w' )
f.write( "27  " )
f.write( str(ee) + "\n" )
f.write( MOL.save_string_xyz() )
f.close()
--------------------------------------------------------------------------

    Molecular point group: c1

    Geometry (in Angstrom), charge = 0, multiplicity = 1:

       Center              X                  Y                   Z               Mass
    ------------   -----------------  -----------------  -----------------  -----------------
           H          2.232466192673     2.070603929443     1.101855762225     1.007825032070
           O          3.095837192673     1.839984929443     0.791249762225    15.994914619560
           C          3.352570192673     0.486510929443     1.067385762225    12.000000000000
           C          2.570585192673    -0.468457070557     0.172252762225    12.000000000000
           H          4.414462192673     0.349909929443     0.908014762225     1.007825032070
           H          3.152223192673     0.266757929443     2.115406762225     1.007825032070
           C          1.052822192673    -0.389731070557     0.354095762225    12.000000000000
           H          2.825554192673    -0.257389070557    -0.863029237775     1.007825032070
           H          2.907809192673    -1.482248070557     0.381713762225     1.007825032070
           C          0.299655192673    -1.397839070557    -0.518416237775    12.000000000000
           H          0.716693192673     0.616238929443     0.118706762225     1.007825032070
           H          0.803846192673    -0.566886070557     1.400502762225     1.007825032070
           C         -1.219300807327    -1.419806070557    -0.311942237775    12.000000000000
           H          0.517552192673    -1.197761070557    -1.565954237775     1.007825032070
           H          0.689400192673    -2.392598070557    -0.312860237775     1.007825032070
           C         -1.947346807327    -0.145043070557    -0.747151237775    12.000000000000
           H         -1.627851807327    -2.259916070557    -0.869722237775     1.007825032070
           H         -1.436670807327    -1.619400070557     0.736270762225     1.007825032070
           C         -3.399335807327    -0.094353070557    -0.266948237775    12.000000000000
           H         -1.926614807327    -0.072926070557    -1.833650237775     1.007825032070
           H         -1.423273807327     0.731367929443    -0.373582237775     1.007825032070
           C         -4.126464807327     1.180043929443    -0.694569237775    12.000000000000
           H         -3.935192807327    -0.960618070557    -0.648956237775     1.007825032070
           H         -3.422606807327    -0.176062070557     0.817794762225     1.007825032070
           H         -4.148889807327     1.274323929443    -1.776619237775     1.007825032070
           H         -5.152934807327     1.185192929443    -0.341061237775     1.007825032070
           H         -3.635717807327     2.064095929443    -0.297098237775     1.007825032070

  Charge       = 0
  Multiplicity = 1
  Basis Set: 6-31G*
  Basis Set:

    Orbital Energies (a.u.)
    -----------------------

    Doubly Occupied:

       1A    -20.552426     2A    -11.267151     3A    -11.219890
       4A    -11.217408     5A    -11.216218     6A    -11.215608
       7A    -11.215352     8A    -11.214054     9A    -11.209462
      10A     -1.359159    11A     -1.095404    12A     -1.061543
      13A     -1.011620    14A     -0.948563    15A     -0.888316
      16A     -0.820204    17A     -0.801378    18A     -0.778456
      19A     -0.693808    20A     -0.649372    21A     -0.642070
      22A     -0.614047    23A     -0.599420    24A     -0.582638
      25A     -0.580967    26A     -0.553089    27A     -0.543403
      28A     -0.529799    29A     -0.504799    30A     -0.493666
      31A     -0.486581    32A     -0.475921    33A     -0.467532
      34A     -0.461273    35A     -0.451191    36A     -0.441552
      37A     -0.423358

  @DF-RHF Final Energy:  -388.28085263574116

   => Energetics <=

    Nuclear Repulsion Energy =            460.6786370452832102
    One-Electron Energy =               -1439.3455813664193101
    Two-Electron Energy =                 590.3860916853950584
    DFT Exchange-Correlation Energy =       0.0000000000000000
    Empirical Dispersion Energy =           0.0000000000000000
    PCM Polarization Energy =               0.0000000000000000
    EFP Energy =                            0.0000000000000000
    Total Energy =                       -388.2808526357409846

  Mulliken Charges: (a.u.)
   Center  Symbol    Alpha    Beta     Spin     Total
       1     H     0.27988  0.27988  0.00000  0.44025
       2     O     4.37092  4.37092  0.00000 -0.74185
       3     C     2.99740  2.99740  0.00000  0.00519
       4     C     3.16077  3.16077  0.00000 -0.32155
       5     H     0.41439  0.41439  0.00000  0.17121
       6     H     0.43202  0.43202  0.00000  0.13595
       7     C     3.16328  3.16328  0.00000 -0.32655
       8     H     0.41492  0.41492  0.00000  0.17017
       9     H     0.42429  0.42429  0.00000  0.15143
      10     C     3.15215  3.15215  0.00000 -0.30430
      11     H     0.42328  0.42328  0.00000  0.15344
      12     H     0.42541  0.42541  0.00000  0.14918
      13     C     3.15396  3.15396  0.00000 -0.30793
      14     H     0.42170  0.42170  0.00000  0.15661
      15     H     0.42135  0.42135  0.00000  0.15729
      16     C     3.15286  3.15286  0.00000 -0.30572
      17     H     0.42064  0.42064  0.00000  0.15871
      18     H     0.42450  0.42450  0.00000  0.15100
      19     C     3.15137  3.15137  0.00000 -0.30275
      20     H     0.42276  0.42276  0.00000  0.15448
      21     H     0.42361  0.42361  0.00000  0.15278
      22     C     3.23919  3.23919  0.00000 -0.47837
      23     H     0.42285  0.42285  0.00000  0.15431
      24     H     0.42347  0.42347  0.00000  0.15305
      25     H     0.42142  0.42142  0.00000  0.15717
      26     H     0.41925  0.41925  0.00000  0.16150
      27     H     0.42234  0.42234  0.00000  0.15531

   Total alpha = 37.00000, Total beta = 37.00000, Total charge = -0.00000
