                              Psi4 1.0.54 Driver

  ==> Input File <==

--------------------------------------------------------------------------
set {
	reference rhf
	basis cc-pvtz
}

set_num_threads( 4 )
memory 2 gb

molecule MOL {
0 1

H	 1.651322	 -0.822465	 0.000000
O	 0.729993	 -1.034364	 0.000000
C	 0.037305	 0.100061	 0.000000
C	 -1.370419	 -0.100877	 0.475407
O	 0.507959	 1.129014	 -0.341373
H	 -1.868699	 -0.818204	 -0.163832
H	 -1.894620	 0.840236	 0.459736
H	 -1.358451	 -0.506644	 1.478741

	symmetry c1
}
set optking {
	frozen_dihedral = ("
		4 3 2 1
	")
}

ee,wfn = optimize('scf', return_wfn=True)
oeprop( wfn, 'DIPOLE', 'QUADRUPOLE', 'MULLIKEN_CHARGES')
f=open( 'psi4out.xyz', 'w' )
f.write( "8  " )
f.write( str(ee) + "\n" )
f.write( MOL.save_string_xyz() )
f.close()
--------------------------------------------------------------------------

    Molecular point group: c1
  Charge       = 0
  Multiplicity = 1
  Basis Set: CC-PVTZ
  Basis Set:
  @DF-RHF Final Energy:  -227.90232177359110
    Total Energy =                       -227.9023217735909839
    Molecular point group: c1
  Basis Set: CC-PVTZ
  Basis Set:
  Basis Set: CC-PVTZ
  Basis Set:
  @DF-RHF Final Energy:  -227.90017229358409
    Total Energy =                       -227.9001722935841485
  Basis Set: CC-PVTZ
  Basis Set:
  Basis Set: CC-PVTZ
  Basis Set:
  @DF-RHF Final Energy:  -227.90249214051659
    Total Energy =                       -227.9024921405165856
  Basis Set: CC-PVTZ
  Basis Set:
  Basis Set: CC-PVTZ
  Basis Set:
  @DF-RHF Final Energy:  -227.90256046209927
    Total Energy =                       -227.9025604620993590
  Basis Set: CC-PVTZ
  Basis Set:
  Basis Set: CC-PVTZ
  Basis Set:
  @DF-RHF Final Energy:  -227.90260960445204
    Total Energy =                       -227.9026096044521239
  Basis Set: CC-PVTZ
  Basis Set:
  Basis Set: CC-PVTZ
  Basis Set:
  @DF-RHF Final Energy:  -227.90263653165579
    Total Energy =                       -227.9026365316557872
  Basis Set: CC-PVTZ
  Basis Set:
  Basis Set: CC-PVTZ
  Basis Set:
  @DF-RHF Final Energy:  -227.90264046787999
    Total Energy =                       -227.9026404678800191
  Basis Set: CC-PVTZ
  Basis Set:
  Charge       = 0
  Multiplicity = 1
  Basis Set: CC-PVTZ
  Basis Set:

    Orbital Energies (a.u.)
    -----------------------

    Doubly Occupied:

       1A    -20.605446     2A    -20.542953     3A    -11.378614
       4A    -11.239472     5A     -1.478831     6A     -1.371918
       7A     -1.028088     8A     -0.834341     9A     -0.707164
      10A     -0.685631    11A     -0.658255    12A     -0.584628
      13A     -0.576244    14A     -0.558614    15A     -0.486662
      16A     -0.452427

  @DF-RHF Final Energy:  -227.90264062746178

   => Energetics <=

    Nuclear Repulsion Energy =            122.7374429955418691
    One-Electron Energy =                -554.9015925174301174
    Two-Electron Energy =                 204.2615088944264130
    DFT Exchange-Correlation Energy =       0.0000000000000000
    Empirical Dispersion Energy =           0.0000000000000000
    PCM Polarization Energy =               0.0000000000000000
    EFP Energy =                            0.0000000000000000
    Total Energy =                       -227.9026406274618353
    Molecular point group: c1
  Basis Set: CC-PVTZ
  Basis Set:

  -Total Gradient:
     Atom            X                  Y                   Z
    ------   -----------------  -----------------  -----------------
       1       -0.000028492222    -0.000550184347     0.006868704384
       2        0.000595113086     0.000791407708    -0.006652940860
       3       -0.001835134290    -0.000707648588    -0.004418092230
       4        0.001233707550     0.000421834262     0.004198263825
       5       -0.000009002394     0.000027194223    -0.000010877872
       6        0.000030797825     0.000043077440     0.000030380023
       7        0.000009156130    -0.000046050175     0.000023196498
       8        0.000003854315     0.000020369475    -0.000038633770

  **** Optimization is complete! (in 8 steps) ****
    Final optimized geometry and variables:
    Molecular point group: c1

    Geometry (in Angstrom), charge = 0, multiplicity = 1:

    H            1.627242944403    -0.860901572301    -0.112951769067
    O            0.701271515643    -1.049148594450    -0.133007865210
    C            0.029738554083     0.097693553811    -0.041510415746
    C           -1.384446346891    -0.111170590397     0.411149384060
    O            0.537373370499     1.145715581363    -0.238514097559
    H           -1.851055968054    -0.910321791305    -0.148262963420
    H           -1.941633500720     0.804854935568     0.303055747349
    H           -1.362473075728    -0.405750965426     1.453254270591

  Mulliken Charges: (a.u.)
   Center  Symbol    Alpha    Beta     Spin     Total
       1     H     0.37926  0.37926  0.00000  0.24149
       2     O     4.16389  4.16389  0.00000 -0.32779
       3     C     2.80316  2.80316  0.00000  0.39368
       4     C     3.13815  3.13815  0.00000 -0.27630
       5     O     4.18879  4.18879  0.00000 -0.37758
       6     H     0.44387  0.44387  0.00000  0.11226
       7     H     0.43777  0.43777  0.00000  0.12447
       8     H     0.44511  0.44511  0.00000  0.10977

   Total alpha = 16.00000, Total beta = 16.00000, Total charge = -0.00000

*** Psi4 exiting successfully. Buy a developer a beer!
