  ==> Input File <==

--------------------------------------------------------------------------
set {
	reference rhf
	basis 6-31G*
}

set_num_threads( 1 )
memory 2 gb

molecule MOL {
0 1

H	 -0.000158	 1.970498	 0.756846
O	 -0.000074	 1.880206	 -0.189275
C	 -0.000015	 0.544847	 -0.545111
C	 -1.278788	 -0.123820	 -0.051541
C	 1.278802	 -0.123718	 -0.051505
H	 -0.000001	 0.490777	 -1.623619
F	 -1.321207	 -0.080911	 1.262957
F	 -2.360721	 0.466354	 -0.513575
F	 -1.315140	 -1.395766	 -0.415450
F	 2.323327	 0.466644	 -0.591854
F	 1.326242	 -1.401483	 -0.363667
F	 1.388946	 -0.015632	 1.262939

	symmetry c1
}
set optking {
	frozen_dihedral = ("
		6 3 2 1
	")
}

ee = energy('scf')
oeprop('DIPOLE', 'QUADRUPOLE', 'MULLIKEN_CHARGES')
f=open( 'psi4out.xyz', 'w' )
f.write( "12  " )
f.write( str(ee) + "\n" )
f.write( MOL.save_string_xyz() )
f.close()
--------------------------------------------------------------------------

    Molecular point group: c1

    Geometry (in Angstrom), charge = 0, multiplicity = 1:

       Center              X                  Y                   Z               Mass
    ------------   -----------------  -----------------  -----------------  -----------------
           H         -0.004836966347     1.977224020474     0.753835607415     1.007825032070
           O         -0.004752966347     1.886932020474    -0.192285392585    15.994914619560
           C         -0.004693966347     0.551573020474    -0.548121392585    12.000000000000
           C         -1.283466966347    -0.117093979526    -0.054551392585    12.000000000000
           C          1.274123033653    -0.116991979526    -0.054515392585    12.000000000000
           H         -0.004679966347     0.497503020474    -1.626629392585     1.007825032070
           F         -1.325885966347    -0.074184979526     1.259946607415    18.998403224000
           F         -2.365399966347     0.473080020474    -0.516585392585    18.998403224000
           F         -1.319818966347    -1.389039979526    -0.418460392585    18.998403224000
           F          2.318648033653     0.473370020474    -0.594864392585    18.998403224000
           F          1.321563033653    -1.394756979526    -0.366677392585    18.998403224000
           F          1.384267033653    -0.008905979526     1.259928607415    18.998403224000

  Charge       = 0
  Multiplicity = 1
  Basis Set: 6-31G*
  Basis Set:

    Orbital Energies (a.u.)
    -----------------------

    Doubly Occupied:

       1A    -26.363655     2A    -26.362254     3A    -26.361299
       4A    -26.361137     5A    -26.358404     6A    -26.358093
       7A    -20.617088     8A    -11.526330     9A    -11.525778
      10A    -11.349175    11A     -1.764892    12A     -1.758611
      13A     -1.662027    14A     -1.659028    15A     -1.656299
      16A     -1.654218    17A     -1.435633    18A     -1.101757
      19A     -0.996877    20A     -0.938625    21A     -0.863643
      22A     -0.862674    23A     -0.851770    24A     -0.843882
      25A     -0.832265    26A     -0.816119    27A     -0.744514
      28A     -0.727555    29A     -0.723957    30A     -0.717018
      31A     -0.689068    32A     -0.685519    33A     -0.683695
      34A     -0.673145    35A     -0.669326    36A     -0.663500
      37A     -0.655938    38A     -0.653086    39A     -0.622168
      40A     -0.550325    41A     -0.506296

  @DF-RHF Final Energy:  -786.27743737730384

   => Energetics <=

    Nuclear Repulsion Energy =            671.2165955782588753
    One-Electron Energy =               -2429.2946153160373797
    Two-Electron Energy =                 971.8005823604758007
    DFT Exchange-Correlation Energy =       0.0000000000000000
    Empirical Dispersion Energy =           0.0000000000000000
    PCM Polarization Energy =               0.0000000000000000
    EFP Energy =                            0.0000000000000000
    Total Energy =                       -786.2774373773027037

  Mulliken Charges: (a.u.)
   Center  Symbol    Alpha    Beta     Spin     Total
       1     H     0.26594  0.26594  0.00000  0.46812
       2     O     4.36326  4.36326  0.00000 -0.72652
       3     C     3.04452  3.04452  0.00000 -0.08904
       4     C     2.44687  2.44687  0.00000  1.10626
       5     C     2.44527  2.44527  0.00000  1.10947
       6     H     0.37604  0.37604  0.00000  0.24792
       7     F     4.67809  4.67809  0.00000 -0.35618
       8     F     4.67329  4.67329  0.00000 -0.34659
       9     F     4.67794  4.67794  0.00000 -0.35587
      10     F     4.67476  4.67476  0.00000 -0.34952
      11     F     4.67344  4.67344  0.00000 -0.34688
      12     F     4.68058  4.68058  0.00000 -0.36116

   Total alpha = 41.00000, Total beta = 41.00000, Total charge =  0.00000
