  ==> Input File <==

--------------------------------------------------------------------------
set {
	reference rhf
	basis 6-31G*
}

set_num_threads( 1 )
memory 2 gb

molecule MOL {
0 1

H	 2.591676	 2.013956	 0.335017
O	 3.341076	 1.666752	 -0.126416
C	 3.569581	 0.339145	 0.272707
C	 2.539767	 -0.640285	 -0.279495
H	 4.553106	 0.084646	 -0.100901
H	 3.608576	 0.269204	 1.359154
C	 1.115811	 -0.397273	 0.226630
H	 2.556196	 -0.582511	 -1.364741
H	 2.852081	 -1.648031	 -0.010655
C	 0.054491	 -1.071621	 -0.647253
H	 0.928152	 0.672153	 0.265065
H	 1.026182	 -0.768408	 1.247692
C	 -1.384230	 -0.931125	 -0.136683
H	 0.117905	 -0.673859	 -1.658496
H	 0.290849	 -2.130890	 -0.723314
C	 -1.938529	 0.496057	 -0.156246
H	 -2.026898	 -1.560995	 -0.748286
H	 -1.446930	 -1.328643	 0.875189
C	 -3.408732	 0.570317	 0.261395
H	 -1.829236	 0.909938	 -1.157679
H	 -1.353862	 1.133714	 0.502436
C	 -3.962727	 1.994606	 0.248910
H	 -4.003378	 -0.053637	 -0.402356
H	 -3.521428	 0.148311	 1.257937
H	 -3.894210	 2.433240	 -0.742619
H	 -5.006373	 2.013789	 0.547354
H	 -3.412079	 2.635914	 0.931460

	symmetry c1
}
set optking {
	frozen_dihedral = ("
		14 10 7 4,
		14 10 13 16,
		8 4 3 2,
		10 13 16 20,
		20 16 19 22,
		4 3 2 1
	")
}

ee = energy('scf')
oeprop('DIPOLE', 'QUADRUPOLE', 'MULLIKEN_CHARGES')
f=open( 'psi4out.xyz', 'w' )
f.write( "27  " )
f.write( str(ee) + "\n" )
f.write( MOL.save_string_xyz() )
f.close()
--------------------------------------------------------------------------

    Molecular point group: c1

    Geometry (in Angstrom), charge = 0, multiplicity = 1:

       Center              X                  Y                   Z               Mass
    ------------   -----------------  -----------------  -----------------  -----------------
           H          2.557608690221     1.748285623058     0.366729651753     1.007825032070
           O          3.307008690221     1.401081623058    -0.094703348247    15.994914619560
           C          3.535513690221     0.073474623058     0.304419651753    12.000000000000
           C          2.505699690221    -0.905955376942    -0.247782348247    12.000000000000
           H          4.519038690221    -0.181024376942    -0.069188348247     1.007825032070
           H          3.574508690221     0.003533623058     1.390866651753     1.007825032070
           C          1.081743690221    -0.662943376942     0.258342651753    12.000000000000
           H          2.522128690221    -0.848181376942    -1.333028348247     1.007825032070
           H          2.818013690221    -1.913701376942     0.021057651753     1.007825032070
           C          0.020423690221    -1.337291376942    -0.615540348247    12.000000000000
           H          0.894084690221     0.406482623058     0.296777651753     1.007825032070
           H          0.992114690221    -1.034078376942     1.279404651753     1.007825032070
           C         -1.418297309779    -1.196795376942    -0.104970348247    12.000000000000
           H          0.083837690221    -0.939529376942    -1.626783348247     1.007825032070
           H          0.256781690221    -2.396560376942    -0.691601348247     1.007825032070
           C         -1.972596309779     0.230386623058    -0.124533348247    12.000000000000
           H         -2.060965309779    -1.826665376942    -0.716573348247     1.007825032070
           H         -1.480997309779    -1.594313376942     0.906901651753     1.007825032070
           C         -3.442799309779     0.304646623058     0.293107651753    12.000000000000
           H         -1.863303309779     0.644267623058    -1.125966348247     1.007825032070
           H         -1.387929309779     0.868043623058     0.534148651753     1.007825032070
           C         -3.996794309779     1.728935623058     0.280622651753    12.000000000000
           H         -4.037445309779    -0.319307376942    -0.370643348247     1.007825032070
           H         -3.555495309779    -0.117359376942     1.289649651753     1.007825032070
           H         -3.928277309779     2.167569623058    -0.710906348247     1.007825032070
           H         -5.040440309779     1.748118623058     0.579066651753     1.007825032070
           H         -3.446146309779     2.370243623058     0.963172651753     1.007825032070

  Charge       = 0
  Multiplicity = 1
  Basis Set: 6-31G*
  Basis Set:

    Orbital Energies (a.u.)
    -----------------------

    Doubly Occupied:

       1A    -20.552388     2A    -11.267183     3A    -11.220101
       4A    -11.217069     5A    -11.216177     6A    -11.215492
       7A    -11.215114     8A    -11.214432     9A    -11.209513
      10A     -1.359279    11A     -1.095203    12A     -1.061608
      13A     -1.011569    14A     -0.948669    15A     -0.888188
      16A     -0.819912    17A     -0.801766    18A     -0.778255
      19A     -0.692664    20A     -0.654059    21A     -0.640886
      22A     -0.612798    23A     -0.597561    24A     -0.582188
      25A     -0.581522    26A     -0.553347    27A     -0.540778
      28A     -0.533582    29A     -0.506576    30A     -0.491797
      31A     -0.486353    32A     -0.470973    33A     -0.469278
      34A     -0.461153    35A     -0.453802    36A     -0.441403
      37A     -0.423321

  @DF-RHF Final Energy:  -388.28028371486607

   => Energetics <=

    Nuclear Repulsion Energy =            461.1210687847425334
    One-Electron Energy =               -1440.2308470925452184
    Two-Electron Energy =                 590.8294945929343385
    DFT Exchange-Correlation Energy =       0.0000000000000000
    Empirical Dispersion Energy =           0.0000000000000000
    PCM Polarization Energy =               0.0000000000000000
    EFP Energy =                            0.0000000000000000
    Total Energy =                       -388.2802837148683466

  Mulliken Charges: (a.u.)
   Center  Symbol    Alpha    Beta     Spin     Total
       1     H     0.27916  0.27916  0.00000  0.44169
       2     O     4.37086  4.37086  0.00000 -0.74173
       3     C     2.99826  2.99826  0.00000  0.00348
       4     C     3.16167  3.16167  0.00000 -0.32333
       5     H     0.41425  0.41425  0.00000  0.17151
       6     H     0.43223  0.43223  0.00000  0.13553
       7     C     3.15874  3.15874  0.00000 -0.31748
       8     H     0.41491  0.41491  0.00000  0.17019
       9     H     0.42336  0.42336  0.00000  0.15328
      10     C     3.15311  3.15311  0.00000 -0.30623
      11     H     0.43027  0.43027  0.00000  0.13946
      12     H     0.42263  0.42263  0.00000  0.15474
      13     C     3.15376  3.15376  0.00000 -0.30752
      14     H     0.42084  0.42084  0.00000  0.15833
      15     H     0.42113  0.42113  0.00000  0.15774
      16     C     3.15230  3.15230  0.00000 -0.30461
      17     H     0.42118  0.42118  0.00000  0.15764
      18     H     0.42421  0.42421  0.00000  0.15157
      19     C     3.15118  3.15118  0.00000 -0.30235
      20     H     0.42344  0.42344  0.00000  0.15311
      21     H     0.42437  0.42437  0.00000  0.15126
      22     C     3.23919  3.23919  0.00000 -0.47838
      23     H     0.42273  0.42273  0.00000  0.15454
      24     H     0.42322  0.42322  0.00000  0.15356
      25     H     0.42140  0.42140  0.00000  0.15721
      26     H     0.41915  0.41915  0.00000  0.16171
      27     H     0.42245  0.42245  0.00000  0.15510

   Total alpha = 37.00000, Total beta = 37.00000, Total charge = -0.00000
