  ==> Input File <==

--------------------------------------------------------------------------
set {
	reference rhf
	basis cc-pvtz
}

set_num_threads( 4 )
memory 2 gb

molecule MOL {
0 1

H	 -1.141440	 -2.033368	 1.247087
N	 -0.369283	 -1.408268	 1.154370
C	 -0.561396	 -0.500007	 0.035200
H	 0.448132	 -1.966947	 1.023813
C	 0.575129	 0.507849	 -0.048832
H	 -1.495675	 0.028617	 0.192990
H	 -0.652278	 -1.016903	 -0.921342
C	 1.951750	 -0.141983	 0.035101
H	 0.478254	 1.061643	 -0.975981
H	 0.467676	 1.231891	 0.755499
H	 2.101550	 -0.848142	 -0.774949
H	 2.738260	 0.600794	 -0.026526
H	 2.078939	 -0.679792	 0.968824

	symmetry c1
}
set optking {
	frozen_dihedral = ("
		6 3 5 9
	")
}

ee = optimize('scf')
oeprop('DIPOLE', 'QUADRUPOLE', 'MULLIKEN_CHARGES')
f=open( 'psi4out.xyz', 'w' )
f.write( "13  " )
f.write( str(ee) + "\n" )
f.write( MOL.save_string_xyz() )
f.close()
--------------------------------------------------------------------------

    Molecular point group: c1
  Charge       = 0
  Multiplicity = 1
  Basis Set: CC-PVTZ
  Basis Set:
  @DF-RHF Final Energy:  -173.34961106510394
    Total Energy =                       -173.3496110651037725
    Molecular point group: c1
  Basis Set: CC-PVTZ
  Basis Set:
  Basis Set: CC-PVTZ
  Basis Set:
  @DF-RHF Final Energy:  -173.35020962087569
    Total Energy =                       -173.3502096208756882
  Basis Set: CC-PVTZ
  Basis Set:
  Basis Set: CC-PVTZ
  Basis Set:
  @DF-RHF Final Energy:  -173.35069466694867
    Total Energy =                       -173.3506946669486126
  Basis Set: CC-PVTZ
  Basis Set:
  Basis Set: CC-PVTZ
  Basis Set:
  @DF-RHF Final Energy:  -173.35072960297578
    Total Energy =                       -173.3507296029758322
  Basis Set: CC-PVTZ
  Basis Set:
  Basis Set: CC-PVTZ
  Basis Set:
  @DF-RHF Final Energy:  -173.35073273763675
    Total Energy =                       -173.3507327376367471
  Basis Set: CC-PVTZ
  Basis Set:
  Charge       = 0
  Multiplicity = 1
  Basis Set: CC-PVTZ
  Basis Set:

    Orbital Energies (a.u.)
    -----------------------

    Doubly Occupied:

       1A    -15.526545     2A    -11.238965     3A    -11.210188
       4A    -11.205098     5A     -1.178404     6A     -1.031398
       7A     -0.908747     8A     -0.787058     9A     -0.670302
      10A     -0.643066    11A     -0.574814    12A     -0.562905
      13A     -0.554752    14A     -0.483629    15A     -0.478492
      16A     -0.468768    17A     -0.383748

  @DF-RHF Final Energy:  -173.35073290094215

   => Energetics <=

    Nuclear Repulsion Energy =            134.1864565677595920
    One-Electron Energy =                -499.2606184115609267
    Two-Electron Energy =                 191.7234289428593002
    DFT Exchange-Correlation Energy =       0.0000000000000000
    Empirical Dispersion Energy =           0.0000000000000000
    PCM Polarization Energy =               0.0000000000000000
    EFP Energy =                            0.0000000000000000
    Total Energy =                       -173.3507329009420346
    Molecular point group: c1
  Basis Set: CC-PVTZ
  Basis Set:

  -Total Gradient:
     Atom            X                  Y                   Z
    ------   -----------------  -----------------  -----------------
       1        0.000005845478     0.000007270869    -0.000008195873
       2        0.000016497981     0.000013054903    -0.000003392819
       3       -0.000049716402    -0.000218555873    -0.004754240931
       4        0.000002359051     0.000000694513     0.000005748871
       5       -0.002477057760     0.002870289764     0.002846035755
       6        0.000408742770    -0.000258758137     0.003574877823
       7       -0.000005593060     0.000003412689    -0.000006407258
       8       -0.000006115579    -0.000003355664    -0.000012249990
       9        0.002099993814    -0.002413786957    -0.001647363629
      10       -0.000003393314     0.000008293487     0.000003141137
      11        0.000009039857    -0.000004762127    -0.000001034114
      12       -0.000001130468    -0.000001305643     0.000002223949
      13        0.000000527633    -0.000002491825     0.000000857077

  **** Optimization is complete! (in 6 steps) ****
    Final optimized geometry and variables:
    Molecular point group: c1

    Geometry (in Angstrom), charge = 0, multiplicity = 1:

    H           -1.636513282874    -1.542869630640     0.978086669746
    N           -0.806177632566    -1.003990307576     0.854620273111
    C           -0.945035894133    -0.095733895602    -0.275894100916
    H           -0.058281513989    -1.649284551178     0.715705137969
    C            0.184079796869     0.929782483301    -0.326707574280
    H           -1.881032391189     0.431190930911    -0.131469955427
    H           -1.004117805572    -0.617142054488    -1.231634728690
    C            1.583038474339     0.317777669590    -0.287897671852
    H            0.088805823313     1.486522791244    -1.254517156478
    H            0.072258557234     1.627926371642     0.495018202688
    H            1.718628700773    -0.405946173722    -1.086759370665
    H            2.339283952386     1.084215805694    -0.410720002879
    H            1.773888337586    -0.179418408917     0.654920950956

  Mulliken Charges: (a.u.)
   Center  Symbol    Alpha    Beta     Spin     Total
       1     H     0.42891  0.42891  0.00000  0.14218
       2     N     3.69295  3.69295  0.00000 -0.38590
       3     C     3.03359  3.03359  0.00000 -0.06718
       4     H     0.42808  0.42808  0.00000  0.14383
       5     C     3.07304  3.07304  0.00000 -0.14608
       6     H     0.45353  0.45353  0.00000  0.09294
       7     H     0.46495  0.46495  0.00000  0.07009
       8     C     3.16115  3.16115  0.00000 -0.32229
       9     H     0.45661  0.45661  0.00000  0.08678
      10     H     0.45378  0.45378  0.00000  0.09243
      11     H     0.45613  0.45613  0.00000  0.08773
      12     H     0.44663  0.44663  0.00000  0.10673
      13     H     0.45064  0.45064  0.00000  0.09873

   Total alpha = 17.00000, Total beta = 17.00000, Total charge = -0.00000
