                              Psi4 1.0.54 Driver

  ==> Input File <==

--------------------------------------------------------------------------
set {
	reference rhf
	basis cc-pvtz
}

set_num_threads( 4 )
memory 2 gb

molecule MOL {
0 1

O	 -1.510770	 1.240811	 -0.054933
C	 -1.081510	 0.147522	 0.122720
C	 0.327029	 -0.064006	 0.641890
C	 -1.903028	 -1.084121	 -0.174656
C	 1.349460	 -0.017068	 -0.500215
H	 0.399029	 -1.014606	 1.159950
H	 0.538021	 0.726928	 1.350471
C	 1.451788	 -1.343361	 -1.244676
H	 1.081212	 0.768849	 -1.200369
H	 2.315885	 0.249562	 -0.088807
H	 2.187876	 -1.286504	 -2.037753
H	 0.502433	 -1.617553	 -1.692220
H	 1.746193	 -2.143960	 -0.575170
H	 -1.341891	 -1.779207	 -0.789259
H	 -2.820449	 -0.808163	 -0.671328
H	 -2.133314	 -1.593056	 0.755831

	symmetry c1
}
set optking {
	frozen_dihedral = ("
		9 5 3 2
	")
}

ee,wfn = optimize('scf', return_wfn=True)
oeprop( wfn, 'DIPOLE', 'QUADRUPOLE', 'MULLIKEN_CHARGES')
f=open( 'psi4out.xyz', 'w' )
f.write( "16  " )
f.write( str(ee) + "\n" )
f.write( MOL.save_string_xyz() )
f.close()
--------------------------------------------------------------------------

    Molecular point group: c1
  Charge       = 0
  Multiplicity = 1
  Basis Set: CC-PVTZ
  Basis Set:
  @DF-RHF Final Energy:  -270.12481166494263
    Total Energy =                       -270.1248116649425128
    Molecular point group: c1
  Basis Set: CC-PVTZ
  Basis Set:
  Basis Set: CC-PVTZ
  Basis Set:
  @DF-RHF Final Energy:  -270.12622680442263
    Total Energy =                       -270.1262268044226289
  Basis Set: CC-PVTZ
  Basis Set:
  Basis Set: CC-PVTZ
  Basis Set:
  @DF-RHF Final Energy:  -270.12416572577581
    Total Energy =                       -270.1241657257758106
  Basis Set: CC-PVTZ
  Basis Set:
  Basis Set: CC-PVTZ
  Basis Set:
  @DF-RHF Final Energy:  -270.12694272796972
    Total Energy =                       -270.1269427279700608
  Basis Set: CC-PVTZ
  Basis Set:
  @DF-RHF Final Energy:  -270.12673068218078
    Total Energy =                       -270.1267306821811189
  @DF-RHF Final Energy:  -270.12750544732523
    Total Energy =                       -270.1275054473251203
  @DF-RHF Final Energy:  -270.12701433014121
    Total Energy =                       -270.1270143301411508
  @DF-RHF Final Energy:  -270.12824066736391
    Total Energy =                       -270.1282406673639116
  @DF-RHF Final Energy:  -270.12844142467145
    Total Energy =                       -270.1284414246715642
  @DF-RHF Final Energy:  -270.12923883406575
    Total Energy =                       -270.1292388340655748
  @DF-RHF Final Energy:  -270.12968325943859
    Total Energy =                       -270.1296832594388206
  @DF-RHF Final Energy:  -270.12999489819771
    Total Energy =                       -270.1299948981974808
  Basis Set: CC-PVTZ
  Basis Set:
  @DF-RHF Final Energy:  -270.13004452944642
    Total Energy =                       -270.1300445294461952
  Basis Set: CC-PVTZ
  Basis Set:
  Basis Set: CC-PVTZ
  Basis Set:
  @DF-RHF Final Energy:  -270.13007286372982
    Total Energy =                       -270.1300728637295947
  Basis Set: CC-PVTZ
  Basis Set:
  Basis Set: CC-PVTZ
  Basis Set:
  @DF-RHF Final Energy:  -270.13008169160560
    Total Energy =                       -270.1300816916058238
  Basis Set: CC-PVTZ
  Basis Set:
  Charge       = 0
  Multiplicity = 1
  Basis Set: CC-PVTZ
  Basis Set:

    Orbital Energies (a.u.)
    -----------------------

    Doubly Occupied:

       1A    -20.539848     2A    -11.322136     3A    -11.231096
       4A    -11.227520     5A    -11.217729     6A    -11.206923
       7A     -1.400333     8A     -1.077065     9A     -1.016280
      10A     -0.945728    11A     -0.826863    12A     -0.729489
      13A     -0.667124    14A     -0.638738    15A     -0.625405
      16A     -0.594531    17A     -0.583282    18A     -0.554402
      19A     -0.548067    20A     -0.504535    21A     -0.487897
      22A     -0.480681    23A     -0.476213    24A     -0.403977

  @DF-RHF Final Energy:  -270.13008233570804

   => Energetics <=

    Nuclear Repulsion Energy =            240.9522872764628119
    One-Electron Energy =                -843.5530202841051732
    Two-Electron Energy =                 332.4706506719343793
    DFT Exchange-Correlation Energy =       0.0000000000000000
    Empirical Dispersion Energy =           0.0000000000000000
    PCM Polarization Energy =               0.0000000000000000
    EFP Energy =                            0.0000000000000000
    Total Energy =                       -270.1300823357079821
    Molecular point group: c1
  Basis Set: CC-PVTZ
  Basis Set:

  -Total Gradient:
     Atom            X                  Y                   Z
    ------   -----------------  -----------------  -----------------
       1       -0.000015100824     0.000007649556    -0.000031680718
       2        0.000520611812     0.001352647817     0.000958943560
       3       -0.001061560175    -0.002047268248    -0.001753022712
       4        0.000040131010     0.000042277569     0.000057005284
       5        0.002038270913     0.001209312216     0.002608210614
       6        0.000006969842    -0.000007349562     0.000003210860
       7       -0.000011348469    -0.000012753062    -0.000017163647
       8       -0.000008543307     0.000004568135    -0.000003244296
       9       -0.001463815285    -0.000528840733    -0.001794076636
      10       -0.000019103720     0.000006443582     0.000002154656
      11       -0.000011142955    -0.000002956265     0.000010219720
      12        0.000005036452    -0.000006274891    -0.000002002452
      13       -0.000004896637     0.000012041985     0.000001836657
      14       -0.000006790447     0.000014646380    -0.000027795958
      15        0.000007464530    -0.000015078032    -0.000000872476
      16       -0.000016182739    -0.000029066446    -0.000011722455

  **** Optimization is complete! (in 16 steps) ****
    Final optimized geometry and variables:
    Molecular point group: c1

    Geometry (in Angstrom), charge = 0, multiplicity = 1:

    O           -0.882326175157     1.178478673714    -0.430021264159
    C           -0.792151753886     0.335752548496     0.401575462712
    C            0.514692750258    -0.371447677537     0.708603808669
    C           -1.985493769021    -0.084726224456     1.228544100100
    C            1.641764836696    -0.097340725569    -0.282953913937
    H            0.320704579139    -1.436259778139     0.803318140429
    H            0.798286047438    -0.039691128081     1.705372139652
    C            1.540962033780    -0.942221520793    -1.550533879071
    H            1.616303771754     0.948307030279    -0.558647431609
    H            2.592122370571    -0.287498571243     0.203117819418
    H            2.350001871459    -0.711780430418    -2.233623917435
    H            0.608629933251    -0.755501930158    -2.069862723575
    H            1.594119230878    -2.002084338098    -1.321831225895
    H           -2.291679530624    -1.082088622464     0.929944933661
    H           -2.803430597601     0.601043299871     1.069446204267
    H           -1.733493598713    -0.126031284859     2.281762104255

  Mulliken Charges: (a.u.)
   Center  Symbol    Alpha    Beta     Spin     Total
       1     O     4.17292  4.17292  0.00000 -0.34584
       2     C     2.86147  2.86147  0.00000  0.27706
       3     C     3.11381  3.11381  0.00000 -0.22761
       4     C     3.15063  3.15063  0.00000 -0.30126
       5     C     3.08685  3.08685  0.00000 -0.17371
       6     H     0.44572  0.44572  0.00000  0.10856
       7     H     0.43774  0.43774  0.00000  0.12453
       8     C     3.15076  3.15076  0.00000 -0.30152
       9     H     0.44309  0.44309  0.00000  0.11382
      10     H     0.44769  0.44769  0.00000  0.10462
      11     H     0.44760  0.44760  0.00000  0.10480
      12     H     0.44746  0.44746  0.00000  0.10507
      13     H     0.45891  0.45891  0.00000  0.08219
      14     H     0.44887  0.44887  0.00000  0.10226
      15     H     0.43560  0.43560  0.00000  0.12880
      16     H     0.45088  0.45088  0.00000  0.09823

   Total alpha = 24.00000, Total beta = 24.00000, Total charge = -0.00000

*** Psi4 exiting successfully. Buy a developer a beer!
