  ==> Input File <==

--------------------------------------------------------------------------
set {
	reference rhf
	basis 6-31G*
}

set_num_threads( 4 )
memory 2 gb

molecule MOL {
0 1

O	 3.225979	 0.970355	 -0.599647
C	 2.701189	 0.057885	 -0.047330
C	 1.245376	 -0.013843	 0.345420
O	 3.347903	 -1.046386	 0.304773
C	 0.455112	 1.231400	 -0.050772
H	 0.838542	 -0.913825	 -0.103701
H	 1.208210	 -0.175333	 1.419774
C	 -0.998893	 1.219485	 0.433193
H	 0.482531	 1.345121	 -1.130325
H	 0.957290	 2.103070	 0.354729
C	 -1.496863	 -0.134321	 0.947338
H	 -1.631901	 1.530894	 -0.394484
H	 -1.128343	 1.970859	 1.210810
C	 -2.982100	 -0.121503	 1.314633
H	 -1.321415	 -0.892668	 0.185795
H	 -0.922229	 -0.438356	 1.819308
C	 -3.489532	 -1.467709	 1.834609
H	 -3.565790	 0.169146	 0.442817
H	 -3.160058	 0.643957	 2.068358
C	 -4.974469	 -1.447478	 2.195516
H	 -3.311565	 -2.233955	 1.083052
H	 -2.910185	 -1.757839	 2.708657
H	 -5.304165	 -2.415231	 2.560704
H	 -5.584178	 -1.194428	 1.332721
H	 -5.179692	 -0.714194	 2.970405
C	 4.728119	 -1.109107	 -0.004993
H	 4.882018	 -1.033965	 -1.071845
H	 5.068212	 -2.067527	 0.355250
H	 5.265056	 -0.311663	 0.488280

	symmetry c1
}
set optking {
	frozen_dihedral = ("
		11 8 5 9
	")
}

ee = optimize('scf')
oeprop('DIPOLE', 'QUADRUPOLE', 'MULLIKEN_CHARGES')
f=open( 'psi4out.xyz', 'w' )
f.write( "29  " )
f.write( str(ee) + "\n" )
f.write( MOL.save_string_xyz() )
f.close()
--------------------------------------------------------------------------

    Molecular point group: c1
  Charge       = 0
  Multiplicity = 1
  Basis Set: 6-31G*
  Basis Set:
  @DF-RHF Final Energy:  -501.03443582235013
    Total Energy =                       -501.0344358223500194
    Molecular point group: c1
  Basis Set: 6-31G*
  Basis Set:
  Basis Set: 6-31G*
  Basis Set:
  @DF-RHF Final Energy:  -501.03474275994188
    Total Energy =                       -501.0347427599415369
  Basis Set: 6-31G*
  Basis Set:
  Basis Set: 6-31G*
  Basis Set:
  @DF-RHF Final Energy:  -501.03642776107881
    Total Energy =                       -501.0364277610790396
  Basis Set: 6-31G*
  Basis Set:
  Basis Set: 6-31G*
  Basis Set:
  @DF-RHF Final Energy:  -501.03646748558685
    Total Energy =                       -501.0364674855868543
  Basis Set: 6-31G*
  Basis Set:
  Basis Set: 6-31G*
  Basis Set:
  @DF-RHF Final Energy:  -501.03653846380666
    Total Energy =                       -501.0365384638065507
  Basis Set: 6-31G*
  Basis Set:
  Basis Set: 6-31G*
  Basis Set:
  @DF-RHF Final Energy:  -501.03655453679812
    Total Energy =                       -501.0365545367983486
  Basis Set: 6-31G*
  Basis Set:
  Charge       = 0
  Multiplicity = 1
  Basis Set: 6-31G*
  Basis Set:

    Orbital Energies (a.u.)
    -----------------------

    Doubly Occupied:

       1A    -20.603220     2A    -20.545168     3A    -11.371912
       4A    -11.280588     5A    -11.235029     6A    -11.218819
       7A    -11.217681     8A    -11.216832     9A    -11.216201
      10A    -11.214714    11A    -11.209311    12A     -1.468985
      13A     -1.362445    14A     -1.096084    15A     -1.065964
      16A     -1.018559    17A     -0.976876    18A     -0.928598
      19A     -0.864823    20A     -0.799003    21A     -0.791224
      22A     -0.759204    23A     -0.698969    24A     -0.683203
      25A     -0.670672    26A     -0.656817    27A     -0.628378
      28A     -0.602783    29A     -0.591160    30A     -0.580009
      31A     -0.566748    32A     -0.552658    33A     -0.531220
      34A     -0.524811    35A     -0.520998    36A     -0.512482
      37A     -0.499809    38A     -0.480548    39A     -0.467262
      40A     -0.460473    41A     -0.457531    42A     -0.449198
      43A     -0.439822    44A     -0.437239

  @DF-RHF Final Energy:  -501.03655452135990

   => Energetics <=

    Nuclear Repulsion Energy =            612.1164990547677007
    One-Electron Energy =               -1895.3580477737591536
    Two-Electron Energy =                 782.2049941976315495
    DFT Exchange-Correlation Energy =       0.0000000000000000
    Empirical Dispersion Energy =           0.0000000000000000
    PCM Polarization Energy =               0.0000000000000000
    EFP Energy =                            0.0000000000000000
    Total Energy =                       -501.0365545213599034
    Molecular point group: c1
  Basis Set: 6-31G*
  Basis Set:

  -Total Gradient:
     Atom            X                  Y                   Z
    ------   -----------------  -----------------  -----------------
       1        0.000004269492    -0.000011246446     0.000004571855
       2       -0.000001364816     0.000024570897     0.000029065461
       3       -0.000037436648    -0.000042077339    -0.000093245269
       4       -0.000004147085    -0.000001291800    -0.000029544335
       5        0.000292051355    -0.005036792646     0.000705467431
       6        0.000029457194     0.000009874152     0.000011228064
       7       -0.000031831623     0.000002329736     0.000036451715
       8       -0.001291692844    -0.000023260888    -0.004276079245
       9        0.000075087909     0.004289127745     0.000548451362
      10       -0.000000707929     0.000038293358     0.000002433286
      11        0.000925730550     0.000743487448     0.003044337656
      12        0.000002409343     0.000009800497    -0.000001426702
      13       -0.000000430176    -0.000008531820     0.000003213577
      14        0.000001361342     0.000012831951    -0.000011990191
      15       -0.000003339486    -0.000002660177    -0.000004537532
      16        0.000027174564    -0.000003919050     0.000011566033
      17        0.000004543363     0.000000416350    -0.000000973269
      18        0.000001096061     0.000004230138    -0.000001547076
      19       -0.000004052051    -0.000003387977    -0.000000159358
      20       -0.000001307963    -0.000002393674     0.000002091408
      21       -0.000002863445     0.000000239603     0.000000875563
      22        0.000000654703    -0.000001913427    -0.000001290629
      23       -0.000002359063    -0.000000111229     0.000000900532
      24        0.000001648426     0.000000137801     0.000000861327
      25        0.000000024075    -0.000000388766    -0.000000035273
      26        0.000012572171     0.000008158051     0.000030513515
      27       -0.000009249811     0.000000004432    -0.000000888507
      28        0.000003969173    -0.000001855592    -0.000005105194
      29        0.000008733218    -0.000003671327    -0.000005206207

  **** Optimization is complete! (in 7 steps) ****
    Final optimized geometry and variables:
    Molecular point group: c1

    Geometry (in Angstrom), charge = 0, multiplicity = 1:

    O            3.018510016104     1.173190194817    -1.264677094390
    C            2.563051246765     0.257063094195    -0.659473808987
    C            1.129395636718     0.123999232979    -0.203847986869
    O            3.279602674738    -0.799123891006    -0.294669823171
    C            0.270327044813     1.317670260371    -0.614563905989
    H            0.753119820384    -0.810507164989    -0.605915996719
    H            1.150460145592    -0.003475452502     0.874258757501
    C           -1.214000019187     1.288313159230    -0.163687560728
    H            0.326711652867     1.448204799870    -1.689348518529
    H            0.734590731534     2.212365575720    -0.214354030723
    C           -1.776032944135    -0.050683684745     0.327910688543
    H           -1.831415725103     1.645785452419    -0.982549028406
    H           -1.345925027768     2.009702110475     0.638948352392
    C           -3.250279743066     0.051046873736     0.725188309721
    H           -1.671689421780    -0.808635676528    -0.446365087498
    H           -1.204599481958    -0.403761536629     1.182446299649
    C           -3.834153892795    -1.270260079950     1.228762772919
    H           -3.830567530743     0.397173703940    -0.128441206299
    H           -3.363581758031     0.810259935998     1.497390897367
    C           -5.306333638715    -1.160380668911     1.624234777089
    H           -3.723882140922    -2.029896624657     0.457756234572
    H           -3.256506420538    -1.617087859773     2.083035466250
    H           -5.691464572522    -2.112247867752     1.976705638850
    H           -5.916481364901    -0.848521690749     0.781228050776
    H           -5.445610127591    -0.432664248030     2.418748236456
    C            4.648117870204    -0.803725924972    -0.657875817026
    H            4.756390236415    -0.760682352993    -1.732094815601
    H            5.051118236843    -1.729758177802    -0.278311589596
    H            5.161853909010     0.037526858532    -0.215246653157

  Mulliken Charges: (a.u.)
   Center  Symbol    Alpha    Beta     Spin     Total
       1     O     4.28590  4.28590  0.00000 -0.57180
       2     C     2.60420  2.60420  0.00000  0.79160
       3     C     3.21099  3.21099  0.00000 -0.42198
       4     O     4.30778  4.30778  0.00000 -0.61556
       5     C     3.15810  3.15810  0.00000 -0.31620
       6     H     0.39879  0.39879  0.00000  0.20241
       7     H     0.40017  0.40017  0.00000  0.19965
       8     C     3.15658  3.15658  0.00000 -0.31316
       9     H     0.40966  0.40966  0.00000  0.18068
      10     H     0.40937  0.40937  0.00000  0.18125
      11     C     3.15730  3.15730  0.00000 -0.31461
      12     H     0.41808  0.41808  0.00000  0.16383
      13     H     0.42058  0.42058  0.00000  0.15883
      14     C     3.15016  3.15016  0.00000 -0.30031
      15     H     0.42370  0.42370  0.00000  0.15261
      16     H     0.42297  0.42297  0.00000  0.15407
      17     C     3.15135  3.15135  0.00000 -0.30269
      18     H     0.42332  0.42332  0.00000  0.15335
      19     H     0.42361  0.42361  0.00000  0.15278
      20     C     3.23934  3.23934  0.00000 -0.47869
      21     H     0.42314  0.42314  0.00000  0.15372
      22     H     0.42330  0.42330  0.00000  0.15341
      23     H     0.41922  0.41922  0.00000  0.16156
      24     H     0.42158  0.42158  0.00000  0.15684
      25     H     0.42167  0.42167  0.00000  0.15667
      26     C     3.09233  3.09233  0.00000 -0.18466
      27     H     0.40911  0.40911  0.00000  0.18177
      28     H     0.40851  0.40851  0.00000  0.18299
      29     H     0.40918  0.40918  0.00000  0.18165

   Total alpha = 44.00000, Total beta = 44.00000, Total charge = -0.00000
