                              Psi4 1.0.54 Driver

  ==> Input File <==

--------------------------------------------------------------------------
set {
	reference rhf
	basis cc-pvtz
}

set_num_threads( 4 )
memory 2 gb

molecule MOL {
0 1

H	 -1.752232	 -2.214755	 -0.011938
C	 -1.343852	 -1.221619	 -0.018179
N	 -0.058800	 -1.097635	 -0.261688
C	 -2.148159	 -0.124236	 0.219734
C	 0.449026	 0.119242	 -0.273393
H	 -3.196988	 -0.237571	 0.417076
N	 -1.655094	 1.094230	 0.209506
C	 -0.370318	 1.215445	 -0.035100
C	 1.924033	 0.265863	 -0.538106
H	 0.033214	 2.210441	 -0.046812
C	 2.756968	 0.254410	 0.744680
H	 2.235473	 -0.552154	 -1.176554
H	 2.101601	 1.185108	 -1.083698
H	 3.812648	 0.327436	 0.511995
H	 2.592773	 -0.661352	 1.297309
H	 2.496020	 1.088079	 1.386901

	symmetry c1
}
set optking {
	frozen_dihedral = ("
		12 9 5 3
	")
}

ee,wfn = optimize('scf', return_wfn=True)
oeprop( wfn, 'DIPOLE', 'QUADRUPOLE', 'MULLIKEN_CHARGES')
f=open( 'psi4out.xyz', 'w' )
f.write( "16  " )
f.write( str(ee) + "\n" )
f.write( MOL.save_string_xyz() )
f.close()
--------------------------------------------------------------------------

    Molecular point group: c1
  Charge       = 0
  Multiplicity = 1
  Basis Set: CC-PVTZ
  Basis Set:
  @DF-RHF Final Energy:  -340.87198755671329
    Total Energy =                       -340.8719875567134068
    Molecular point group: c1
  Basis Set: CC-PVTZ
  Basis Set:
  Basis Set: CC-PVTZ
  Basis Set:
  @DF-RHF Final Energy:  -340.87201465321914
    Total Energy =                       -340.8720146532190256
  Basis Set: CC-PVTZ
  Basis Set:
  Basis Set: CC-PVTZ
  Basis Set:
  @DF-RHF Final Energy:  -340.87202785721257
    Total Energy =                       -340.8720278572126858
  Basis Set: CC-PVTZ
  Basis Set:
  Basis Set: CC-PVTZ
  Basis Set:
  @DF-RHF Final Energy:  -340.87202339888967
    Total Energy =                       -340.8720233988893824
  Basis Set: CC-PVTZ
  Basis Set:
  Basis Set: CC-PVTZ
  Basis Set:
  @DF-RHF Final Energy:  -340.87203437873711
    Total Energy =                       -340.8720343787371121
  Basis Set: CC-PVTZ
  Basis Set:
  Basis Set: CC-PVTZ
  Basis Set:
  @DF-RHF Final Energy:  -340.87203799408400
    Total Energy =                       -340.8720379940837120
  Basis Set: CC-PVTZ
  Basis Set:
  Charge       = 0
  Multiplicity = 1
  Basis Set: CC-PVTZ
  Basis Set:

    Orbital Energies (a.u.)
    -----------------------

    Doubly Occupied:

       1A    -15.580662     2A    -15.576044     3A    -11.278491
       4A    -11.271786     5A    -11.268938     6A    -11.267438
       7A    -11.231378     8A    -11.219443     9A     -1.315991
      10A     -1.224048    11A     -1.086677    12A     -1.015908
      13A     -0.905536    14A     -0.896764    15A     -0.830561
      16A     -0.718593    17A     -0.713477    18A     -0.659508
      19A     -0.611380    20A     -0.606656    21A     -0.586202
      22A     -0.563901    23A     -0.524085    24A     -0.508838
      25A     -0.503706    26A     -0.487315    27A     -0.433538
      28A     -0.397859    29A     -0.346622

  @DF-RHF Final Energy:  -340.87203833653791

   => Energetics <=

    Nuclear Repulsion Energy =            350.5211022596250814
    One-Electron Energy =               -1155.5235884068583800
    Two-Electron Energy =                 464.1304478106952729
    DFT Exchange-Correlation Energy =       0.0000000000000000
    Empirical Dispersion Energy =           0.0000000000000000
    PCM Polarization Energy =               0.0000000000000000
    EFP Energy =                            0.0000000000000000
    Total Energy =                       -340.8720383365380258
    Molecular point group: c1
  Basis Set: CC-PVTZ
  Basis Set:

  -Total Gradient:
     Atom            X                  Y                   Z
    ------   -----------------  -----------------  -----------------
       1        0.000003882403    -0.000003543278     0.000036179339
       2        0.000028164664    -0.000010625037    -0.000099900494
       3       -0.000174384238     0.000023206402    -0.000770159183
       4       -0.000000386977     0.000056098471    -0.000010156342
       5        0.000252500697    -0.000134886510     0.001344246669
       6        0.000002894063    -0.000003877591     0.000019082568
       7       -0.000042656039    -0.000032082397     0.000001199735
       8        0.000054901414    -0.000018351737     0.000027907243
       9       -0.000297177439     0.000629652681    -0.001284448023
      10       -0.000009571306     0.000000077549    -0.000025010282
      11       -0.000001561506     0.000000721169     0.000037734288
      12        0.000182508270    -0.000499797755     0.000729695129
      13        0.000004809254    -0.000010020317     0.000007247564
      14        0.000002756710     0.000001724671    -0.000010726208
      15       -0.000000323166    -0.000006458598    -0.000008057660
      16       -0.000006356799     0.000008162275     0.000005165657

  **** Optimization is complete! (in 7 steps) ****
    Final optimized geometry and variables:
    Molecular point group: c1

    Geometry (in Angstrom), charge = 0, multiplicity = 1:

    H           -1.750196832681    -2.279896893524    -0.019221452998
    C           -1.341810993569    -1.287025690198    -0.028816743574
    N           -0.054872768238    -1.165285146757    -0.280390083027
    C           -2.141981797346    -0.190723340998     0.209975411421
    C            0.452992440824     0.048636166693    -0.294875679133
    H           -3.189842758204    -0.301309902874     0.412876949236
    N           -1.647404580181     1.030183123711     0.192485618044
    C           -0.366490870982     1.148543395340    -0.057938803289
    C            1.927819015245     0.201219298088    -0.556857347154
    H            0.038667343913     2.143177604332    -0.079057499398
    C            2.755397632642     0.185671033002     0.731131095491
    H            2.239144618330    -0.616973110997    -1.191918747327
    H            2.107597627746     1.125270031333    -1.094332993957
    H            3.810991675614     0.278281535262     0.505173446902
    H            2.604853371303    -0.741479911728     1.270346004644
    H            2.479528929693     1.004141189903     1.386338430701

  Mulliken Charges: (a.u.)
   Center  Symbol    Alpha    Beta     Spin     Total
       1     H     0.41359  0.41359  0.00000  0.17283
       2     C     3.04369  3.04369  0.00000 -0.08738
       3     N     3.59745  3.59745  0.00000 -0.19490
       4     C     3.04781  3.04781  0.00000 -0.09563
       5     C     2.93651  2.93651  0.00000  0.12699
       6     H     0.41356  0.41356  0.00000  0.17288
       7     N     3.58687  3.58687  0.00000 -0.17373
       8     C     3.07868  3.07868  0.00000 -0.15736
       9     C     3.08418  3.08418  0.00000 -0.16837
      10     H     0.41501  0.41501  0.00000  0.16999
      11     C     3.14411  3.14411  0.00000 -0.28823
      12     H     0.44205  0.44205  0.00000  0.11590
      13     H     0.44744  0.44744  0.00000  0.10512
      14     H     0.44847  0.44847  0.00000  0.10306
      15     H     0.44734  0.44734  0.00000  0.10532
      16     H     0.45325  0.45325  0.00000  0.09350

   Total alpha = 29.00000, Total beta = 29.00000, Total charge =  0.00000

*** Psi4 exiting successfully. Buy a developer a beer!
