                              Psi4 1.0.54 Driver

  ==> Input File <==

--------------------------------------------------------------------------
set {
	reference rhf
	basis cc-pvtz
}

set_num_threads( 4 )
memory 2 gb

molecule MOL {
0 1

O	 -2.081319	 -0.951530	 -0.502732
N	 -1.613558	 0.006676	 0.014756
C	 -0.329345	 -0.171618	 0.743966
O	 -2.068523	 1.100482	 -0.024385
C	 0.835904	 0.041968	 -0.213982
H	 -0.346048	 -1.174374	 1.137184
H	 -0.333613	 0.555559	 1.538590
C	 2.177039	 -0.130175	 0.494460
H	 0.754456	 -0.665923	 -1.030569
H	 0.765464	 1.037260	 -0.637266
C	 2.025144	 -0.249392	 2.006807
H	 2.819516	 0.713736	 0.261060
H	 2.677125	 -1.014475	 0.110618
H	 1.557911	 0.635871	 2.423582
H	 1.412556	 -1.103904	 2.271873
H	 2.989634	 -0.371615	 2.484283

	symmetry c1
}
set optking {
	frozen_dihedral = ("
		11 8 5 9
	")
}

ee,wfn = optimize('scf', return_wfn=True)
oeprop( wfn, 'DIPOLE', 'QUADRUPOLE', 'MULLIKEN_CHARGES')
f=open( 'psi4out.xyz', 'w' )
f.write( "16  " )
f.write( str(ee) + "\n" )
f.write( MOL.save_string_xyz() )
f.close()
--------------------------------------------------------------------------

    Molecular point group: c1
  Charge       = 0
  Multiplicity = 1
  Basis Set: CC-PVTZ
  Basis Set:
  @DF-RHF Final Energy:  -360.89584107417329
    Total Energy =                       -360.8958410741734042
    Molecular point group: c1
  Basis Set: CC-PVTZ
  Basis Set:
  Basis Set: CC-PVTZ
  Basis Set:
  @DF-RHF Final Energy:  -360.51341330004476
    Total Energy =                       -360.5134133000451016
  Basis Set: CC-PVTZ
  Basis Set:
  Basis Set: CC-PVTZ
  Basis Set:
  @DF-RHF Final Energy:  -360.69987777974012
    Total Energy =                       -360.6998777797401772
  Basis Set: CC-PVTZ
  Basis Set:
  Basis Set: CC-PVTZ
  Basis Set:
  @DF-RHF Final Energy:  -360.86888323996538
    Total Energy =                       -360.8688832399653847
  Basis Set: CC-PVTZ
  Basis Set:
  @DF-RHF Final Energy:  -360.89799334083165
    Total Energy =                       -360.8979933408314196
  @DF-RHF Final Energy:  -360.89876364775955
    Total Energy =                       -360.8987636477598357
  @DF-RHF Final Energy:  -360.89941090678764
    Total Energy =                       -360.8994109067873524
  @DF-RHF Final Energy:  -360.90004772388789
    Total Energy =                       -360.9000477238880649
  Basis Set: CC-PVTZ
  Basis Set:
  @DF-RHF Final Energy:  -360.90001187001161
    Total Energy =                       -360.9000118700113262
  Basis Set: CC-PVTZ
  Basis Set:
  Basis Set: CC-PVTZ
  Basis Set:
  @DF-RHF Final Energy:  -360.90022825763322
    Total Energy =                       -360.9002282576328184
  Basis Set: CC-PVTZ
  Basis Set:
  Basis Set: CC-PVTZ
  Basis Set:
  @DF-RHF Final Energy:  -360.90023051083887
    Total Energy =                       -360.9002305108383553
  Basis Set: CC-PVTZ
  Basis Set:
  Charge       = 0
  Multiplicity = 1
  Basis Set: CC-PVTZ
  Basis Set:

    Orbital Energies (a.u.)
    -----------------------

    Doubly Occupied:

       1A    -20.589250     2A    -20.589117     3A    -15.835538
       4A    -11.295405     5A    -11.251004     6A    -11.242053
       7A    -11.230452     8A     -1.634709     9A     -1.418986
      10A     -1.134255    11A     -1.055562    12A     -0.952809
      13A     -0.857571    14A     -0.815041    15A     -0.760855
      16A     -0.737448    17A     -0.720264    18A     -0.676729
      19A     -0.615496    20A     -0.608059    21A     -0.575640
      22A     -0.558821    23A     -0.509789    24A     -0.501223
      25A     -0.490666    26A     -0.481382    27A     -0.471689
      28A     -0.451008

  @DF-RHF Final Energy:  -360.90023093387333

   => Energetics <=

    Nuclear Repulsion Energy =            316.8210967572312029
    One-Electron Energy =               -1119.3210166282033242
    Two-Electron Energy =                 441.5996889370988470
    DFT Exchange-Correlation Energy =       0.0000000000000000
    Empirical Dispersion Energy =           0.0000000000000000
    PCM Polarization Energy =               0.0000000000000000
    EFP Energy =                            0.0000000000000000
    Total Energy =                       -360.9002309338732744
    Molecular point group: c1
  Basis Set: CC-PVTZ
  Basis Set:

  -Total Gradient:
     Atom            X                  Y                   Z
    ------   -----------------  -----------------  -----------------
       1       -0.000015695911     0.000072062685     0.000032806296
       2       -0.000069889537     0.000039289177    -0.000161004040
       3       -0.000044145836    -0.000059934194     0.000016706066
       4        0.000054677013    -0.000093903716     0.000077179903
       5        0.001552901032     0.001316280098    -0.002578438008
       6       -0.000010550042     0.000028602179     0.000022717564
       7        0.000026849808    -0.000014225868     0.000028010988
       8       -0.001388240619     0.002697800681    -0.000450606138
       9       -0.000950357004    -0.001837172207     0.002337976888
      10        0.000024684572     0.000000135565    -0.000020823438
      11        0.000790481943    -0.002159698799     0.000705187369
      12        0.000042902729    -0.000019156847    -0.000011046061
      13       -0.000007170652     0.000005757434    -0.000014415887
      14       -0.000017728392    -0.000024104423    -0.000009641725
      15       -0.000004645133     0.000021827226     0.000015962454
      16        0.000015926029     0.000026441007     0.000009427767

  **** Optimization is complete! (in 12 steps) ****
    Final optimized geometry and variables:
    Molecular point group: c1

    Geometry (in Angstrom), charge = 0, multiplicity = 1:

    O           -0.962738131374    -1.886299314810    -0.874533113872
    N           -1.137529147263    -0.735726600912    -0.649119275901
    C           -0.269779027096    -0.103059497758     0.381507077848
    O           -1.928398164060    -0.041181064380    -1.194079937270
    C            0.991616896891     0.423865954267    -0.301265937431
    H           -0.055211687849    -0.876695897720     1.098274201991
    H           -0.861483297274     0.679471197100     0.822320952517
    C            2.007732871198     1.103080596749     0.652223530273
    H            1.461821055117    -0.423067722612    -0.782876623094
    H            0.686111858240     1.114563524238    -1.075740919330
    C            1.546538814847     1.383040957488     2.082539088774
    H            2.327629439128     2.034063566456     0.201341774592
    H            2.892486441679     0.479901896460     0.705731817454
    H            0.692236380980     2.049782011763     2.114450603280
    H            1.284384643076     0.474894100861     2.612075009196
    H            2.346780719778     1.858431822635     2.636136537921

  Mulliken Charges: (a.u.)
   Center  Symbol    Alpha    Beta     Spin     Total
       1     O     4.17449  4.17449  0.00000 -0.34898
       2     N     3.27347  3.27347  0.00000  0.45305
       3     C     3.04477  3.04477  0.00000 -0.08953
       4     O     4.17415  4.17415  0.00000 -0.34831
       5     C     3.11259  3.11259  0.00000 -0.22518
       6     H     0.43225  0.43225  0.00000  0.13549
       7     H     0.43270  0.43270  0.00000  0.13459
       8     C     3.09175  3.09175  0.00000 -0.18351
       9     H     0.43452  0.43452  0.00000  0.13096
      10     H     0.43497  0.43497  0.00000  0.13005
      11     C     3.15986  3.15986  0.00000 -0.31972
      12     H     0.44497  0.44497  0.00000  0.11006
      13     H     0.44657  0.44657  0.00000  0.10686
      14     H     0.45063  0.45063  0.00000  0.09874
      15     H     0.45306  0.45306  0.00000  0.09387
      16     H     0.43923  0.43923  0.00000  0.12153

   Total alpha = 28.00000, Total beta = 28.00000, Total charge =  0.00000

*** Psi4 exiting successfully. Buy a developer a beer!
