  ==> Input File <==

--------------------------------------------------------------------------
set {
	reference rhf
	basis 6-31G*
}

set_num_threads( 4 )
memory 2 gb

molecule MOL {
0 1

H	 -1.836216	 1.387520	 -0.000064
C	 -1.301823	 0.443321	 -0.000031
O	 -0.003969	 0.658512	 0.000451
O	 -1.829879	 -0.616434	 -0.000857
C	 0.435842	 2.016360	 0.001447
C	 1.949166	 2.003389	 0.002678
H	 0.037546	 2.511126	 0.876595
H	 0.038780	 2.512512	 -0.873465
H	 2.328954	 1.495608	 0.881856
H	 2.325908	 3.020885	 0.003900
H	 2.330357	 1.497024	 -0.876626

	symmetry c1
}
set optking {
	frozen_dihedral = ("
		5 3 2 4
	")
}

ee = optimize('scf')
oeprop('DIPOLE', 'QUADRUPOLE', 'MULLIKEN_CHARGES')
f=open( 'psi4out.xyz', 'w' )
f.write( "11  " )
f.write( str(ee) + "\n" )
f.write( MOL.save_string_xyz() )
f.close()
--------------------------------------------------------------------------

    Molecular point group: c1
  Charge       = 0
  Multiplicity = 1
  Basis Set: 6-31G*
  Basis Set:
  @DF-RHF Final Energy:  -266.81837018773149
    Total Energy =                       -266.8183701877313183
    Molecular point group: c1
  Basis Set: 6-31G*
  Basis Set:
  Basis Set: 6-31G*
  Basis Set:
  @DF-RHF Final Energy:  -266.81938731943558
    Total Energy =                       -266.8193873194354637
  Basis Set: 6-31G*
  Basis Set:
  Basis Set: 6-31G*
  Basis Set:
  @DF-RHF Final Energy:  -266.81953220188905
    Total Energy =                       -266.8195322018889328
  Basis Set: 6-31G*
  Basis Set:
  Basis Set: 6-31G*
  Basis Set:
  @DF-RHF Final Energy:  -266.81942877455600
    Total Energy =                       -266.8194287745561155
  Basis Set: 6-31G*
  Basis Set:
  Basis Set: 6-31G*
  Basis Set:
  @DF-RHF Final Energy:  -266.81953996046605
    Total Energy =                       -266.8195399604660452
  Basis Set: 6-31G*
  Basis Set:
  Charge       = 0
  Multiplicity = 1
  Basis Set: 6-31G*
  Basis Set:

    Orbital Energies (a.u.)
    -----------------------

    Doubly Occupied:

       1A    -20.612291     2A    -20.554850     3A    -11.379476
       4A    -11.307032     5A    -11.233964     6A     -1.473672
       7A     -1.379645     8A     -1.056046     9A     -0.888551
      10A     -0.848334    11A     -0.737646    12A     -0.697397
      13A     -0.667020    14A     -0.596272    15A     -0.578730
      16A     -0.565635    17A     -0.529005    18A     -0.523986
      19A     -0.455418    20A     -0.450064

  @DF-RHF Final Energy:  -266.81954077824400

   => Energetics <=

    Nuclear Repulsion Energy =            176.2795790444870931
    One-Electron Energy =                -713.1281750654252392
    Two-Electron Energy =                 270.0290552426941986
    DFT Exchange-Correlation Energy =       0.0000000000000000
    Empirical Dispersion Energy =           0.0000000000000000
    PCM Polarization Energy =               0.0000000000000000
    EFP Energy =                            0.0000000000000000
    Total Energy =                       -266.8195407782440043
    Molecular point group: c1
  Basis Set: 6-31G*
  Basis Set:

  -Total Gradient:
     Atom            X                  Y                   Z
    ------   -----------------  -----------------  -----------------
       1        0.000024423045     0.000007895469     0.000001186344
       2        0.000098439428     0.000055943784    -0.000003048548
       3       -0.000155230584    -0.000108019931     0.000003359305
       4        0.000039036694    -0.000004935842     0.000001101908
       5       -0.000011710637     0.000080135321    -0.000002318600
       6        0.000005535373    -0.000005976129    -0.000000685329
       7        0.000002204621    -0.000014111498    -0.000010370637
       8        0.000004337561    -0.000010682930     0.000010635842
       9       -0.000003774457     0.000000630815    -0.000000534795
      10        0.000000327873    -0.000001073931     0.000000486000
      11       -0.000003588912     0.000000194875     0.000000188510

  **** Optimization is complete! (in 6 steps) ****
    Final optimized geometry and variables:
    Molecular point group: c1

    Geometry (in Angstrom), charge = 0, multiplicity = 1:

    H           -1.772228308514     0.458155105357    -0.000872584480
    C           -1.171095873283    -0.451463079006    -0.000997303204
    O            0.132400331626    -0.230515228696    -0.000035683894
    O           -1.643596375515    -1.530869022213    -0.001886997522
    C            0.582024299765     1.116107096737     0.000984641006
    C            2.095536717157     1.096425838991     0.001929917554
    H            0.201253821003     1.623907930448     0.880562296810
    H            0.202375953350     1.624901645425    -0.878504785249
    H            2.466944423606     0.583446784175     0.880848162174
    H            2.480152073819     2.110820756574     0.002759932333
    H            2.468057517937     0.584456960994    -0.877107103335

  Mulliken Charges: (a.u.)
   Center  Symbol    Alpha    Beta     Spin     Total
       1     H     0.43226  0.43226  0.00000  0.13548
       2     C     2.71780  2.71780  0.00000  0.56439
       3     O     4.28331  4.28331  0.00000 -0.56663
       4     O     4.25040  4.25040  0.00000 -0.50080
       5     C     3.01137  3.01137  0.00000 -0.02273
       6     C     3.24689  3.24689  0.00000 -0.49378
       7     H     0.41539  0.41539  0.00000  0.16922
       8     H     0.41539  0.41539  0.00000  0.16922
       9     H     0.40583  0.40583  0.00000  0.18834
      10     H     0.41552  0.41552  0.00000  0.16896
      11     H     0.40583  0.40583  0.00000  0.18834

   Total alpha = 20.00000, Total beta = 20.00000, Total charge =  0.00000
