                              Psi4 1.0.54 Driver

  ==> Input File <==

--------------------------------------------------------------------------
set {
	reference rhf
	basis cc-pvtz
}

set_num_threads( 4 )
memory 2 gb

molecule MOL {
0 1

H	 -3.401682	 -1.036167	 0.000000
O	 -3.113760	 -0.140926	 0.000000
C	 -1.775087	 -0.058754	 0.000000
C	 -0.992086	 -0.768791	 0.901771
C	 -1.184594	 0.768457	 -0.940863
H	 -1.457520	 -1.408533	 1.628770
C	 0.376563	 -0.648030	 0.858058
H	 -1.806648	 1.307151	 -1.627068
C	 0.187274	 0.878328	 -0.971389
H	 0.991750	 -1.190504	 1.548258
C	 0.983373	 0.176861	 -0.078855
H	 0.646451	 1.519800	 -1.700901
C	 2.451134	 0.310496	 -0.130646
O	 3.210603	 -0.247768	 0.588871
H	 2.822481	 0.986872	 -0.908090

	symmetry c1
}
set optking {
	frozen_dihedral = ("
		5 3 2 1
	")
}

ee,wfn = optimize('scf', return_wfn=True)
oeprop( wfn, 'DIPOLE', 'QUADRUPOLE', 'MULLIKEN_CHARGES')
f=open( 'psi4out.xyz', 'w' )
f.write( "15  " )
f.write( str(ee) + "\n" )
f.write( MOL.save_string_xyz() )
f.close()
--------------------------------------------------------------------------

    Molecular point group: c1
  Charge       = 0
  Multiplicity = 1
  Basis Set: CC-PVTZ
  Basis Set:
  @DF-RHF Final Energy:  -418.43878807463261
    Total Energy =                       -418.4387880746323845
    Molecular point group: c1
  Basis Set: CC-PVTZ
  Basis Set:
  Basis Set: CC-PVTZ
  Basis Set:
  @DF-RHF Final Energy:  -418.43902451181020
    Total Energy =                       -418.4390245118102030
  Basis Set: CC-PVTZ
  Basis Set:
  Basis Set: CC-PVTZ
  Basis Set:
  @DF-RHF Final Energy:  -418.43903591324619
    Total Energy =                       -418.4390359132462436
  Basis Set: CC-PVTZ
  Basis Set:
  Basis Set: CC-PVTZ
  Basis Set:
  @DF-RHF Final Energy:  -418.43904528283025
    Total Energy =                       -418.4390452828301932
  Basis Set: CC-PVTZ
  Basis Set:
  Basis Set: CC-PVTZ
  Basis Set:
  @DF-RHF Final Energy:  -418.43905665591285
    Total Energy =                       -418.4390566559127365
  Basis Set: CC-PVTZ
  Basis Set:
  Basis Set: CC-PVTZ
  Basis Set:
  @DF-RHF Final Energy:  -418.43905857432537
    Total Energy =                       -418.4390585743255997
  Basis Set: CC-PVTZ
  Basis Set:
  Charge       = 0
  Multiplicity = 1
  Basis Set: CC-PVTZ
  Basis Set:

    Orbital Energies (a.u.)
    -----------------------

    Doubly Occupied:

       1A    -20.594149     2A    -20.548812     3A    -11.325031
       4A    -11.316478     5A    -11.258078     6A    -11.253144
       7A    -11.241808     8A    -11.240879     9A    -11.238817
      10A     -1.424926    11A     -1.404992    12A     -1.175578
      13A     -1.045056    14A     -1.041566    15A     -0.890552
      16A     -0.866049    17A     -0.798521    18A     -0.758779
      19A     -0.715358    20A     -0.671219    21A     -0.652139
      22A     -0.633883    23A     -0.622581    24A     -0.610137
      25A     -0.567603    26A     -0.558787    27A     -0.549998
      28A     -0.505701    29A     -0.489540    30A     -0.423931
      31A     -0.361013    32A     -0.339912

  @DF-RHF Final Energy:  -418.43905920121728

   => Energetics <=

    Nuclear Repulsion Energy =            401.9439058798487281
    One-Electron Energy =               -1366.5158973995412452
    Two-Electron Energy =                 546.1329323184754685
    DFT Exchange-Correlation Energy =       0.0000000000000000
    Empirical Dispersion Energy =           0.0000000000000000
    PCM Polarization Energy =               0.0000000000000000
    EFP Energy =                            0.0000000000000000
    Total Energy =                       -418.4390592012171055
    Molecular point group: c1
  Basis Set: CC-PVTZ
  Basis Set:

  -Total Gradient:
     Atom            X                  Y                   Z
    ------   -----------------  -----------------  -----------------
       1       -0.000129303827    -0.000038157243    -0.003447752295
       2        0.000120884686    -0.000930577596     0.003539643646
       3       -0.000060448540     0.002865269834     0.001563816801
       4       -0.000069625290    -0.000007384739    -0.000044913159
       5        0.000120022336    -0.001898776683    -0.001597128424
       6        0.000003208757     0.000003164660    -0.000000634939
       7        0.000048058391     0.000045272278    -0.000022812528
       8       -0.000003616971    -0.000003127000     0.000010303177
       9       -0.000045208591    -0.000013540347    -0.000054624065
      10       -0.000002144120    -0.000002005655     0.000002167658
      11        0.000007711267    -0.000023452729     0.000056132043
      12        0.000010971855     0.000006103025     0.000004765422
      13        0.000003299284    -0.000017773144    -0.000019647638
      14       -0.000003854223     0.000007541488     0.000003605825
      15        0.000000044986     0.000007443850     0.000007078479

  **** Optimization is complete! (in 7 steps) ****
    Final optimized geometry and variables:
    Molecular point group: c1

    Geometry (in Angstrom), charge = 0, multiplicity = 1:

    H           -3.417122543681    -1.012564726491     0.031853802957
    O           -3.123727534464    -0.118578914676     0.014941842120
    C           -1.771874404839    -0.050992100792    -0.022949133127
    C           -0.992837504215    -0.762176384267     0.881088013881
    C           -1.180787115290     0.752220014953    -0.977866658299
    H           -1.468971148528    -1.374572044817     1.623003151945
    C            0.376491214617    -0.662955866335     0.825584566171
    H           -1.801085340434     1.286856844925    -1.668994117190
    C            0.195447605259     0.854206569971    -1.015570288641
    H            0.991387693209    -1.204883298183     1.516430520436
    C            0.984487301192     0.150008679010    -0.123384736007
    H            0.657957262433     1.481778605674    -1.754939521838
    C            2.456006016295     0.266828929164    -0.187443004155
    O            3.212714620116    -0.299067188983     0.527622312901
    H            2.828583341369     0.937031001068    -0.969562467643

  Mulliken Charges: (a.u.)
   Center  Symbol    Alpha    Beta     Spin     Total
       1     H     0.38352  0.38352  0.00000  0.23297
       2     O     4.17972  4.17972  0.00000 -0.35943
       3     C     2.85942  2.85942  0.00000  0.28116
       4     C     3.12133  3.12133  0.00000 -0.24266
       5     C     3.10747  3.10747  0.00000 -0.21495
       6     H     0.41998  0.41998  0.00000  0.16003
       7     C     3.06927  3.06927  0.00000 -0.13855
       8     H     0.41399  0.41399  0.00000  0.17202
       9     C     3.07192  3.07192  0.00000 -0.14384
      10     H     0.40704  0.40704  0.00000  0.18592
      11     C     2.99870  2.99870  0.00000  0.00260
      12     H     0.42097  0.42097  0.00000  0.15806
      13     C     2.91037  2.91037  0.00000  0.17926
      14     O     4.17664  4.17664  0.00000 -0.35327
      15     H     0.45966  0.45966  0.00000  0.08069

   Total alpha = 32.00000, Total beta = 32.00000, Total charge =  0.00000

*** Psi4 exiting successfully. Buy a developer a beer!
