  ==> Input File <==

--------------------------------------------------------------------------
set {
	reference rhf
	basis cc-pvtz
}

set_num_threads( 4 )
memory 2 gb

molecule MOL {
0 1

O	 -2.440701	 -0.934798	 -0.415053
C	 -1.922978	 0.063265	 -0.045005
C	 -2.632749	 1.372204	 0.158357
O	 -0.637375	 0.157174	 0.243149
H	 -2.187724	 2.129143	 -0.474664
H	 -3.677681	 1.257276	 -0.079438
H	 -2.516788	 1.693160	 1.185542
C	 0.162530	 -1.009518	 0.097799
C	 1.587210	 -0.664190	 0.477086
H	 0.096803	 -1.356267	 -0.924704
H	 -0.233803	 -1.785900	 0.736810
C	 2.256770	 0.342732	 -0.454344
H	 2.154716	 -1.590834	 0.479041
H	 1.598751	 -0.289614	 1.496104
C	 1.302064	 1.435769	 -0.922772
H	 3.100821	 0.796050	 0.058665
H	 2.662173	 -0.177443	 -1.314524
H	 1.803385	 2.138154	 -1.578300
H	 0.901715	 1.994881	 -0.083422
H	 0.463864	 1.015300	 -1.468338

	symmetry c1
}
set optking {
	frozen_dihedral = ("
		16 12 9 8
	")
}

ee = optimize('scf')
oeprop('DIPOLE', 'QUADRUPOLE', 'MULLIKEN_CHARGES')
f=open( 'psi4out.xyz', 'w' )
f.write( "20  " )
f.write( str(ee) + "\n" )
f.write( MOL.save_string_xyz() )
f.close()
--------------------------------------------------------------------------

    Molecular point group: c1
  Charge       = 0
  Multiplicity = 1
  Basis Set: CC-PVTZ
  Basis Set:
  @DF-RHF Final Energy:  -384.07358026402892
    Total Energy =                       -384.0735802640292604
    Molecular point group: c1
  Basis Set: CC-PVTZ
  Basis Set:
  Basis Set: CC-PVTZ
  Basis Set:
  @DF-RHF Final Energy:  -384.07930318657958
    Total Energy =                       -384.0793031865797502
  Basis Set: CC-PVTZ
  Basis Set:
  Basis Set: CC-PVTZ
  Basis Set:
  @DF-RHF Final Energy:  -384.08034622201779
    Total Energy =                       -384.0803462220176243
  Basis Set: CC-PVTZ
  Basis Set:
  Basis Set: CC-PVTZ
  Basis Set:
  @DF-RHF Final Energy:  -384.08101991945534
    Total Energy =                       -384.0810199194552297
  Basis Set: CC-PVTZ
  Basis Set:
  @DF-RHF Final Energy:  -384.08147536839704
    Total Energy =                       -384.0814753683968092
  @DF-RHF Final Energy:  -384.08160275841237
    Total Energy =                       -384.0816027584123731
  Basis Set: CC-PVTZ
  Basis Set:
  @DF-RHF Final Energy:  -384.08163310544421
    Total Energy =                       -384.0816331054444390
  Basis Set: CC-PVTZ
  Basis Set:
  Basis Set: CC-PVTZ
  Basis Set:
  @DF-RHF Final Energy:  -384.08164044229505
    Total Energy =                       -384.0816404422951109
  Basis Set: CC-PVTZ
  Basis Set:
  Basis Set: CC-PVTZ
  Basis Set:
  @DF-RHF Final Energy:  -384.08164152530890
    Total Energy =                       -384.0816415253093510
  Basis Set: CC-PVTZ
  Basis Set:
  Charge       = 0
  Multiplicity = 1
  Basis Set: CC-PVTZ
  Basis Set:

    Orbital Energies (a.u.)
    -----------------------

    Doubly Occupied:

       1A    -20.594048     2A    -20.532743     3A    -11.366666
       4A    -11.280484     5A    -11.231646     6A    -11.224262
       7A    -11.221077     8A    -11.208228     9A     -1.471225
      10A     -1.365298    11A     -1.084220    12A     -1.027433
      13A     -0.980025    14A     -0.892701    15A     -0.797960
      16A     -0.779950    17A     -0.692707    18A     -0.690664
      19A     -0.668133    20A     -0.625287    21A     -0.610814
      22A     -0.585123    23A     -0.572473    24A     -0.555686
      25A     -0.550333    26A     -0.529841    27A     -0.516232
      28A     -0.481695    29A     -0.477177    30A     -0.467702
      31A     -0.448644    32A     -0.441256

  @DF-RHF Final Energy:  -384.08164162574224

   => Energetics <=

    Nuclear Repulsion Energy =            395.1844856297524302
    One-Electron Energy =               -1306.5887820141406337
    Two-Electron Energy =                 527.3226547586461948
    DFT Exchange-Correlation Energy =       0.0000000000000000
    Empirical Dispersion Energy =           0.0000000000000000
    PCM Polarization Energy =               0.0000000000000000
    EFP Energy =                            0.0000000000000000
    Total Energy =                       -384.0816416257420087
    Molecular point group: c1
  Basis Set: CC-PVTZ
  Basis Set:

  -Total Gradient:
     Atom            X                  Y                   Z
    ------   -----------------  -----------------  -----------------
       1       -0.000004556877    -0.000013088782    -0.000004068937
       2        0.000046848423     0.000027041981     0.000023773584
       3       -0.000006171208     0.000008561128    -0.000025215987
       4       -0.000036911573    -0.000016027296    -0.000007621789
       5       -0.000002641866    -0.000006379573     0.000010349107
       6       -0.000002772786     0.000002114336    -0.000000223923
       7       -0.000001189008    -0.000002068331     0.000008931844
       8       -0.001299775746     0.003051193671     0.001788498992
       9        0.001292142465    -0.003639780374    -0.002356651287
      10       -0.000004150742     0.000006981333     0.000005886709
      11       -0.000007730993     0.000001897242     0.000000001508
      12        0.002930694931    -0.003262523531    -0.000553959980
      13       -0.000011937790    -0.000005859882     0.000004908110
      14        0.000007362559    -0.000001262520    -0.000006231611
      15       -0.000006424572     0.000011589571    -0.000000081376
      16       -0.002921434666     0.003826117974     0.001103954558
      17        0.000025809583     0.000003383946     0.000011747789
      18       -0.000001011391     0.000000680509     0.000000564734
      19       -0.000003012928     0.000002180349    -0.000004780363
      20        0.000006864184     0.000005248244     0.000000218317

  **** Optimization is complete! (in 10 steps) ****
    Final optimized geometry and variables:
    Molecular point group: c1

    Geometry (in Angstrom), charge = 0, multiplicity = 1:

    O           -2.156723021809    -1.046471994495    -0.369290665011
    C           -1.693325403192    -0.070105364140     0.113630193202
    C           -2.471065020525     1.170588958835     0.450537861975
    O           -0.415638950095     0.057606668325     0.422871455612
    H           -2.067929010945     2.011584537223    -0.098941087014
    H           -3.508898678817     1.026117470036     0.198140884437
    H           -2.370002081236     1.388371497068     1.505880408915
    C            0.441061228735    -1.047251015517     0.165941706218
    C            1.851717748827    -0.690835724933     0.599763332459
    H            0.386862829875    -1.302820692962    -0.883748399375
    H            0.078263704853    -1.897064249337     0.726458363597
    C            2.670351171368     0.209034787425    -0.340364977734
    H            2.393327332170    -1.619344286434     0.745520388318
    H            1.777908048029    -0.225321498189     1.577241707705
    C            1.916882545022     1.359920443964    -1.007359026767
    H            3.470107052636     0.650772714795     0.244737796346
    H            3.133329863373    -0.400201534662    -1.109864262039
    H            2.602695684173     1.949849145596    -1.604777342495
    H            1.463405594830     2.014933027503    -0.273691581093
    H            1.131731730951     1.007684469712    -1.664775171823

  Mulliken Charges: (a.u.)
   Center  Symbol    Alpha    Beta     Spin     Total
       1     O     4.19719  4.19719  0.00000 -0.39437
       2     C     2.80800  2.80800  0.00000  0.38401
       3     C     3.13872  3.13872  0.00000 -0.27743
       4     O     4.15258  4.15258  0.00000 -0.30515
       5     H     0.44585  0.44585  0.00000  0.10831
       6     H     0.43737  0.43737  0.00000  0.12525
       7     H     0.44563  0.44563  0.00000  0.10875
       8     C     3.00486  3.00486  0.00000 -0.00972
       9     C     3.09161  3.09161  0.00000 -0.18322
      10     H     0.44627  0.44627  0.00000  0.10747
      11     H     0.43995  0.43995  0.00000  0.12010
      12     C     3.09141  3.09141  0.00000 -0.18283
      13     H     0.44569  0.44569  0.00000  0.10863
      14     H     0.45156  0.45156  0.00000  0.09688
      15     C     3.14922  3.14922  0.00000 -0.29843
      16     H     0.45014  0.45014  0.00000  0.09972
      17     H     0.45117  0.45117  0.00000  0.09765
      18     H     0.44643  0.44643  0.00000  0.10714
      19     H     0.45047  0.45047  0.00000  0.09906
      20     H     0.45591  0.45591  0.00000  0.08819

   Total alpha = 32.00000, Total beta = 32.00000, Total charge =  0.00000
