                              Psi4 1.0.54 Driver

  ==> Input File <==

--------------------------------------------------------------------------
set {
	reference rhf
	basis cc-pvtz
}

set_num_threads( 4 )
memory 2 gb

molecule MOL {
0 1

H	 2.751583	 -0.210472	 -0.702643
O	 1.911421	 -0.642685	 -0.735138
C	 1.050374	 0.054877	 0.000135
C	 -0.318151	 -0.570512	 0.000144
O	 1.364360	 1.042685	 0.569007
C	 -1.454884	 0.441630	 -0.000560
H	 -0.371613	 -1.223646	 -0.864985
H	 -0.371920	 -1.222758	 0.865929
C	 -2.822577	 -0.232186	 0.000063
H	 -1.359760	 1.084704	 -0.867077
H	 -1.359641	 1.085996	 0.864983
H	 -2.954352	 -0.858985	 -0.875745
H	 -3.615886	 0.505352	 0.000019
H	 -2.953878	 -0.858359	 0.876394

	symmetry c1
}
set optking {
	frozen_dihedral = ("
		2 3 4 7
	")
}

ee,wfn = optimize('scf', return_wfn=True)
oeprop( wfn, 'DIPOLE', 'QUADRUPOLE', 'MULLIKEN_CHARGES')
f=open( 'psi4out.xyz', 'w' )
f.write( "14  " )
f.write( str(ee) + "\n" )
f.write( MOL.save_string_xyz() )
f.close()
--------------------------------------------------------------------------

    Molecular point group: c1
  Charge       = 0
  Multiplicity = 1
  Basis Set: CC-PVTZ
  Basis Set:
  @DF-RHF Final Energy:  -305.99970461379280
    Total Energy =                       -305.9997046137928578
    Molecular point group: c1
  Basis Set: CC-PVTZ
  Basis Set:
  Basis Set: CC-PVTZ
  Basis Set:
  @DF-RHF Final Energy:  -305.99994328323316
    Total Energy =                       -305.9999432832329376
  Basis Set: CC-PVTZ
  Basis Set:
  Basis Set: CC-PVTZ
  Basis Set:
  @DF-RHF Final Energy:  -305.99953974596622
    Total Energy =                       -305.9995397459659330
  Basis Set: CC-PVTZ
  Basis Set:
  Basis Set: CC-PVTZ
  Basis Set:
  @DF-RHF Final Energy:  -306.00003651549173
    Total Energy =                       -306.0000365154915016
  Basis Set: CC-PVTZ
  Basis Set:
  Basis Set: CC-PVTZ
  Basis Set:
  @DF-RHF Final Energy:  -306.00004245393734
    Total Energy =                       -306.0000424539372830
  Basis Set: CC-PVTZ
  Basis Set:
  Charge       = 0
  Multiplicity = 1
  Basis Set: CC-PVTZ
  Basis Set:

    Orbital Energies (a.u.)
    -----------------------

    Doubly Occupied:

       1A    -20.606092     2A    -20.539253     3A    -11.374067
       4A    -11.239242     5A    -11.226619     6A    -11.216287
       7A     -1.478587     8A     -1.369099     9A     -1.084782
      10A     -0.980635    11A     -0.858645    12A     -0.797690
      13A     -0.705754    14A     -0.691527    15A     -0.661865
      16A     -0.623489    17A     -0.596660    18A     -0.574127
      19A     -0.548208    20A     -0.509784    21A     -0.493759
      22A     -0.486163    23A     -0.479094    24A     -0.445813

  @DF-RHF Final Energy:  -306.00004269499186

   => Energetics <=

    Nuclear Repulsion Energy =            240.3968725096132459
    One-Electron Energy =                -893.6193443004194705
    Two-Electron Energy =                 347.2224290958142774
    DFT Exchange-Correlation Energy =       0.0000000000000000
    Empirical Dispersion Energy =           0.0000000000000000
    PCM Polarization Energy =               0.0000000000000000
    EFP Energy =                            0.0000000000000000
    Total Energy =                       -306.0000426949919756
    Molecular point group: c1
  Basis Set: CC-PVTZ
  Basis Set:

  -Total Gradient:
     Atom            X                  Y                   Z
    ------   -----------------  -----------------  -----------------
       1       -0.000035889597     0.000007660922     0.000009605617
       2       -0.000240467071     0.000494369385    -0.000836434111
       3        0.000417366708    -0.000906849805     0.001271630932
       4       -0.000491518913     0.001339941598    -0.001159716688
       5       -0.000055689139    -0.000010479850     0.000010158454
       6        0.000016977674    -0.000001058106    -0.000023124705
       7        0.000372973472    -0.000913976703     0.000704319360
       8        0.000009777867    -0.000009889243     0.000007805068
       9        0.000001224582    -0.000005039404     0.000014994137
      10       -0.000000294907     0.000004189086     0.000002995038
      11       -0.000003309565    -0.000001256850    -0.000003531124
      12        0.000004509352     0.000006875570     0.000000803503
      13        0.000007031056    -0.000000232014     0.000002122011
      14       -0.000002691515    -0.000004254586    -0.000001627492

  **** Optimization is complete! (in 6 steps) ****
    Final optimized geometry and variables:
    Molecular point group: c1

    Geometry (in Angstrom), charge = 0, multiplicity = 1:

    H            2.791262862551    -0.291365766252    -0.526699600007
    O            1.944708927049    -0.701722205885    -0.623379169727
    C            1.052894029472     0.015296887593     0.051609839409
    C           -0.327544017090    -0.585227895924     0.005221308828
    O            1.348463281203     1.004658570303     0.628868394376
    C           -1.435545125596     0.462769184195    -0.022583413208
    H           -0.390221612550    -1.263065530069    -0.835311807177
    H           -0.416710959111    -1.195673352208     0.900282236351
    C           -2.823051943720    -0.167819799811     0.002484064831
    H           -1.328104198591     1.072933328037    -0.913458722768
    H           -1.312328411056     1.128128050391     0.821564471714
    H           -2.976031247901    -0.821944342527    -0.849360648329
    H           -3.592989030713     0.593690821644    -0.023431383865
    H           -2.970142739690    -0.756364060322     0.901938227284

  Mulliken Charges: (a.u.)
   Center  Symbol    Alpha    Beta     Spin     Total
       1     H     0.38097  0.38097  0.00000  0.23806
       2     O     4.15805  4.15805  0.00000 -0.31610
       3     C     2.80938  2.80938  0.00000  0.38124
       4     C     3.09600  3.09600  0.00000 -0.19199
       5     O     4.19517  4.19517  0.00000 -0.39034
       6     C     3.08406  3.08406  0.00000 -0.16812
       7     H     0.43679  0.43679  0.00000  0.12642
       8     H     0.44409  0.44409  0.00000  0.11182
       9     C     3.14993  3.14993  0.00000 -0.29985
      10     H     0.45066  0.45066  0.00000  0.09868
      11     H     0.43989  0.43989  0.00000  0.12023
      12     H     0.45526  0.45526  0.00000  0.08948
      13     H     0.44534  0.44534  0.00000  0.10932
      14     H     0.45442  0.45442  0.00000  0.09116

   Total alpha = 24.00000, Total beta = 24.00000, Total charge =  0.00000

*** Psi4 exiting successfully. Buy a developer a beer!
