                              Psi4 1.0.54 Driver

  ==> Input File <==

--------------------------------------------------------------------------
set {
	reference rhf
	basis cc-pvtz
}

set_num_threads( 4 )
memory 2 gb

molecule MOL {
0 1

H	 2.250409	 -0.534293	 -0.044319
O	 1.408729	 -0.422188	 0.356495
C	 0.700177	 0.619554	 -0.266242
C	 -0.713111	 0.588314	 0.266177
H	 0.685114	 0.482270	 -1.343206
H	 1.152139	 1.582972	 -0.045030
O	 -1.421673	 -0.521378	 -0.196983
H	 -1.244794	 1.469161	 -0.069059
H	 -0.685100	 0.604721	 1.352683
H	 -0.933408	 -1.297830	 0.014544

	symmetry c1
}
set optking {
	frozen_dihedral = ("
		5 3 4 7
	")
}

ee,wfn = optimize('scf', return_wfn=True)
oeprop( wfn, 'DIPOLE', 'QUADRUPOLE', 'MULLIKEN_CHARGES')
f=open( 'psi4out.xyz', 'w' )
f.write( "10  " )
f.write( str(ee) + "\n" )
f.write( MOL.save_string_xyz() )
f.close()
--------------------------------------------------------------------------

    Molecular point group: c1
  Charge       = 0
  Multiplicity = 1
  Basis Set: CC-PVTZ
  Basis Set:
  @DF-RHF Final Energy:  -229.02842578757853
    Total Energy =                       -229.0284257875784135
    Molecular point group: c1
  Basis Set: CC-PVTZ
  Basis Set:
  Basis Set: CC-PVTZ
  Basis Set:
  @DF-RHF Final Energy:  -229.02850633308151
    Total Energy =                       -229.0285063330814523
  Basis Set: CC-PVTZ
  Basis Set:
  Basis Set: CC-PVTZ
  Basis Set:
  @DF-RHF Final Energy:  -229.02853705462698
    Total Energy =                       -229.0285370546269519
  Basis Set: CC-PVTZ
  Basis Set:
  Charge       = 0
  Multiplicity = 1
  Basis Set: CC-PVTZ
  Basis Set:

    Orbital Energies (a.u.)
    -----------------------

    Doubly Occupied:

       1A    -20.558834     2A    -20.544208     3A    -11.272897
       4A    -11.266825     5A     -1.383051     6A     -1.356931
       7A     -1.003517     8A     -0.844805     9A     -0.729257
      10A     -0.681925    11A     -0.650273    12A     -0.608116
      13A     -0.576662    14A     -0.531834    15A     -0.493161
      16A     -0.456570    17A     -0.437189

  @DF-RHF Final Energy:  -229.02853721930941

   => Energetics <=

    Nuclear Repulsion Energy =            134.1680168738517693
    One-Electron Energy =                -579.6009969132285278
    Two-Electron Energy =                 216.4044428200672883
    DFT Exchange-Correlation Energy =       0.0000000000000000
    Empirical Dispersion Energy =           0.0000000000000000
    PCM Polarization Energy =               0.0000000000000000
    EFP Energy =                            0.0000000000000000
    Total Energy =                       -229.0285372193094418
    Molecular point group: c1
  Basis Set: CC-PVTZ
  Basis Set:

  -Total Gradient:
     Atom            X                  Y                   Z
    ------   -----------------  -----------------  -----------------
       1       -0.000008942394     0.000006613266     0.000002887606
       2       -0.000025308838     0.000018959413    -0.000023654509
       3       -0.000390370646     0.003475687444    -0.000892759798
       4        0.000891118185    -0.002040181373     0.002188914454
       5        0.000171927936    -0.002528273337     0.000315141891
       6        0.000000305774     0.000017302127    -0.000007702698
       7       -0.000620209992     0.001029812764    -0.001564526252
       8        0.000006193073     0.000013258021     0.000005151703
       9       -0.000003217352    -0.000011892962    -0.000010717397
      10       -0.000021495747     0.000018714636    -0.000012735000

  **** Optimization is complete! (in 4 steps) ****
    Final optimized geometry and variables:
    Molecular point group: c1

    Geometry (in Angstrom), charge = 0, multiplicity = 1:

    H            2.233148463633    -0.563298080524    -0.094979392892
    O            1.392170007420    -0.455404947953     0.308695230402
    C            0.687303235397     0.601823218094    -0.295220113155
    C           -0.728042138537     0.559941436033     0.229849524925
    H            0.670583075256     0.469057753514    -1.372442180519
    H            1.144455133205     1.558592129091    -0.058080879142
    O           -1.430957770847    -0.551536532454    -0.240859429711
    H           -1.264878046961     1.435317339404    -0.112018998981
    H           -0.706221400839     0.580505800733     1.315857977087
    H           -0.976426130670    -1.332215636198     0.023416485261

  Mulliken Charges: (a.u.)
   Center  Symbol    Alpha    Beta     Spin     Total
       1     H     0.39130  0.39130  0.00000  0.21740
       2     O     4.20689  4.20689  0.00000 -0.41378
       3     C     2.97535  2.97535  0.00000  0.04929
       4     C     2.96448  2.96448  0.00000  0.07104
       5     H     0.46809  0.46809  0.00000  0.06382
       6     H     0.47150  0.47150  0.00000  0.05700
       7     O     4.20897  4.20897  0.00000 -0.41794
       8     H     0.45836  0.45836  0.00000  0.08327
       9     H     0.46873  0.46873  0.00000  0.06255
      10     H     0.38633  0.38633  0.00000  0.22733

   Total alpha = 17.00000, Total beta = 17.00000, Total charge =  0.00000

*** Psi4 exiting successfully. Buy a developer a beer!
