  ==> Input File <==

--------------------------------------------------------------------------
set {
	reference rhf
	basis cc-pvtz
}

set_num_threads( 4 )
memory 2 gb

molecule MOL {
0 1

O	 0.312534	 0.896309	 0.806131
C	 0.029490	 0.077183	 0.000078
C	 -1.232113	 -0.748027	 0.000015
O	 0.803347	 -0.226117	 -1.028701
C	 -2.501422	 0.088592	 -0.000052
H	 -1.188777	 -1.400384	 -0.865133
H	 -1.188857	 -1.400312	 0.865225
H	 -2.548170	 0.725504	 -0.873205
H	 -3.371613	 -0.556398	 -0.000040
H	 -2.548215	 0.725571	 0.873047
C	 2.023982	 0.475720	 -1.151650
H	 1.845445	 1.535697	 -1.255614
H	 2.501346	 0.090009	 -2.037752
H	 2.649410	 0.306797	 -0.287619

	symmetry c1
}
set optking {
	frozen_dihedral = ("
		4 2 3 6
	")
}

ee = optimize('scf')
oeprop('DIPOLE', 'QUADRUPOLE', 'MULLIKEN_CHARGES')
f=open( 'psi4out.xyz', 'w' )
f.write( "14  " )
f.write( str(ee) + "\n" )
f.write( MOL.save_string_xyz() )
f.close()
--------------------------------------------------------------------------

    Molecular point group: c1
  Charge       = 0
  Multiplicity = 1
  Basis Set: CC-PVTZ
  Basis Set:
  @DF-RHF Final Energy:  -305.98545719721142
    Total Energy =                       -305.9854571972112467
    Molecular point group: c1
  Basis Set: CC-PVTZ
  Basis Set:
  Basis Set: CC-PVTZ
  Basis Set:
  @DF-RHF Final Energy:  -305.98599227617785
    Total Energy =                       -305.9859922761780808
  Basis Set: CC-PVTZ
  Basis Set:
  Basis Set: CC-PVTZ
  Basis Set:
  @DF-RHF Final Energy:  -305.98547468449306
    Total Energy =                       -305.9854746844930560
  Basis Set: CC-PVTZ
  Basis Set:
  Basis Set: CC-PVTZ
  Basis Set:
  @DF-RHF Final Energy:  -305.98604935811875
    Total Energy =                       -305.9860493581185210
  Basis Set: CC-PVTZ
  Basis Set:
  Basis Set: CC-PVTZ
  Basis Set:
  @DF-RHF Final Energy:  -305.98605258120676
    Total Energy =                       -305.9860525812068772
  Basis Set: CC-PVTZ
  Basis Set:
  Charge       = 0
  Multiplicity = 1
  Basis Set: CC-PVTZ
  Basis Set:

    Orbital Energies (a.u.)
    -----------------------

    Doubly Occupied:

       1A    -20.599753     2A    -20.532160     3A    -11.364963
       4A    -11.279299     5A    -11.235978     6A    -11.221082
       7A     -1.473624     8A     -1.365646     9A     -1.065743
      10A     -0.980915    11A     -0.881061    12A     -0.774471
      13A     -0.701234    14A     -0.684033    15A     -0.675829
      16A     -0.618739    17A     -0.602923    18A     -0.561435
      19A     -0.540693    20A     -0.520235    21A     -0.512447
      22A     -0.500303    23A     -0.459856    24A     -0.439862

  @DF-RHF Final Energy:  -305.98605283571209

   => Energetics <=

    Nuclear Repulsion Energy =            247.7527941163105538
    One-Electron Energy =                -908.2931249364430641
    Two-Electron Energy =                 354.5542779844201391
    DFT Exchange-Correlation Energy =       0.0000000000000000
    Empirical Dispersion Energy =           0.0000000000000000
    PCM Polarization Energy =               0.0000000000000000
    EFP Energy =                            0.0000000000000000
    Total Energy =                       -305.9860528357124281
    Molecular point group: c1
  Basis Set: CC-PVTZ
  Basis Set:

  -Total Gradient:
     Atom            X                  Y                   Z
    ------   -----------------  -----------------  -----------------
       1        0.000005070909    -0.000017739217    -0.000022606771
       2        0.000352658302    -0.000526924277     0.000524085492
       3       -0.000431453036     0.000637291037    -0.000544041759
       4       -0.000200418497     0.000330004304    -0.000286790371
       5        0.000014557952     0.000007729939     0.000024834074
       6        0.000281105106    -0.000442319065     0.000320273843
       7       -0.000006183537     0.000015620410    -0.000011233287
       8        0.000012516589    -0.000014221150     0.000003958068
       9        0.000004168561    -0.000005981119    -0.000002608178
      10       -0.000009125362     0.000010438560     0.000005885700
      11       -0.000040876087     0.000008692053    -0.000012940443
      12        0.000014244842     0.000004203892    -0.000002150320
      13        0.000004961562    -0.000002007862    -0.000000005958
      14       -0.000001227305    -0.000004787503     0.000003339909

  **** Optimization is complete! (in 6 steps) ****
    Final optimized geometry and variables:
    Molecular point group: c1

    Geometry (in Angstrom), charge = 0, multiplicity = 1:

    O            0.356815586802     0.769983945759     1.039532517743
    C            0.096351478967    -0.046448332766     0.221726735056
    C           -1.163606952324    -0.876771678468     0.228159188643
    O            0.886120784773    -0.325450191552    -0.799696672415
    C           -2.416320397784    -0.003220282090     0.250621399844
    H           -1.162349784152    -1.543586832569    -0.621465218914
    H           -1.126718224704    -1.483637879734     1.125846463733
    H           -2.488390927962     0.599263260210    -0.647426792676
    H           -3.302032509995    -0.623117562309     0.308693093202
    H           -2.403521259932     0.660785134689     1.103552692941
    C            2.100842639396     0.392393009509    -0.893090051728
    H            1.910904758775     1.451552770696    -0.982470547869
    H            2.595349996051     0.025908980349    -1.777916525674
    H            2.714423463961     0.216568376582    -0.022132522745

  Mulliken Charges: (a.u.)
   Center  Symbol    Alpha    Beta     Spin     Total
       1     O     4.20422  4.20422  0.00000 -0.40844
       2     C     2.80435  2.80435  0.00000  0.39130
       3     C     3.08582  3.08582  0.00000 -0.17165
       4     O     4.14392  4.14392  0.00000 -0.28785
       5     C     3.14523  3.14523  0.00000 -0.29046
       6     H     0.43941  0.43941  0.00000  0.12117
       7     H     0.44564  0.44564  0.00000  0.10873
       8     H     0.45330  0.45330  0.00000  0.09340
       9     H     0.44926  0.44926  0.00000  0.10149
      10     H     0.44172  0.44172  0.00000  0.11656
      11     C     3.03379  3.03379  0.00000 -0.06759
      12     H     0.45398  0.45398  0.00000  0.09204
      13     H     0.44525  0.44525  0.00000  0.10950
      14     H     0.45410  0.45410  0.00000  0.09181

   Total alpha = 24.00000, Total beta = 24.00000, Total charge = -0.00000
