  ==> Input File <==

--------------------------------------------------------------------------
set {
	reference rhf
	basis 6-31G*
}

set_num_threads( 4 )
memory 2 gb

molecule MOL {
0 1

O	 1.113539	 -0.322081	 -0.279688
C	 0.028650	 0.075053	 -0.000277
C	 -1.233602	 -0.752807	 0.000328
O	 -0.217966	 1.329135	 0.355196
C	 -2.501530	 0.091881	 0.000126
H	 -1.193807	 -1.406641	 -0.865785
H	 -1.193516	 -1.405779	 0.867015
H	 -2.545121	 0.729328	 -0.874513
H	 -3.377167	 -0.548497	 0.000561
H	 -2.544818	 0.730135	 0.874258
C	 0.886261	 2.214997	 0.394200
H	 1.623926	 1.871260	 1.104909
H	 0.487941	 3.169612	 0.700654
H	 1.343356	 2.295543	 -0.581529

	symmetry c1
}
set optking {
	frozen_dihedral = ("
		4 2 3 6
	")
}

ee = optimize('scf')
oeprop('DIPOLE', 'QUADRUPOLE', 'MULLIKEN_CHARGES')
f=open( 'psi4out.xyz', 'w' )
f.write( "14  " )
f.write( str(ee) + "\n" )
f.write( MOL.save_string_xyz() )
f.close()
--------------------------------------------------------------------------

    Molecular point group: c1
  Charge       = 0
  Multiplicity = 1
  Basis Set: 6-31G*
  Basis Set:
  @DF-RHF Final Energy:  -305.86857467469281
    Total Energy =                       -305.8685746746929226
    Molecular point group: c1
  Basis Set: 6-31G*
  Basis Set:
  Basis Set: 6-31G*
  Basis Set:
  @DF-RHF Final Energy:  -305.86933874224985
    Total Energy =                       -305.8693387422497381
  Basis Set: 6-31G*
  Basis Set:
  Basis Set: 6-31G*
  Basis Set:
  @DF-RHF Final Energy:  -305.86916024514039
    Total Energy =                       -305.8691602451405629
  Basis Set: 6-31G*
  Basis Set:
  Basis Set: 6-31G*
  Basis Set:
  @DF-RHF Final Energy:  -305.86970749477962
    Total Energy =                       -305.8697074947798455
  Basis Set: 6-31G*
  Basis Set:
  Basis Set: 6-31G*
  Basis Set:
  @DF-RHF Final Energy:  -305.86971676872110
    Total Energy =                       -305.8697167687211618
  Basis Set: 6-31G*
  Basis Set:
  Charge       = 0
  Multiplicity = 1
  Basis Set: 6-31G*
  Basis Set:

    Orbital Energies (a.u.)
    -----------------------

    Doubly Occupied:

       1A    -20.607302     2A    -20.541558     3A    -11.373128
       4A    -11.282252     5A    -11.239055     6A    -11.220977
       7A     -1.471089     8A     -1.361881     9A     -1.066121
      10A     -0.975120    11A     -0.887191    12A     -0.775297
      13A     -0.695213    14A     -0.682844    15A     -0.670997
      16A     -0.621722    17A     -0.585862    18A     -0.558744
      19A     -0.546785    20A     -0.522083    21A     -0.516558
      22A     -0.499242    23A     -0.453992    24A     -0.433579

  @DF-RHF Final Energy:  -305.86972093318622

   => Energetics <=

    Nuclear Repulsion Energy =            248.4629704749331154
    One-Electron Energy =                -909.4882005830463640
    Two-Electron Energy =                 355.1555091749272037
    DFT Exchange-Correlation Energy =       0.0000000000000000
    Empirical Dispersion Energy =           0.0000000000000000
    PCM Polarization Energy =               0.0000000000000000
    EFP Energy =                            0.0000000000000000
    Total Energy =                       -305.8697209331859881
    Molecular point group: c1
  Basis Set: 6-31G*
  Basis Set:

  -Total Gradient:
     Atom            X                  Y                   Z
    ------   -----------------  -----------------  -----------------
       1       -0.000078065535     0.000050871573     0.000024579075
       2        0.000161100683    -0.000265540887     0.000449483310
       3        0.000285085422    -0.000383457898     0.000192235614
       4       -0.000060053755     0.000250881233    -0.000376211276
       5       -0.000029929008     0.000008749504     0.000002849919
       6       -0.000239636295     0.000360987458    -0.000282808250
       7       -0.000001962686     0.000011771904    -0.000001618779
       8        0.000003180663    -0.000004437938     0.000004295196
       9       -0.000008471761    -0.000001101155     0.000002380045
      10       -0.000000185988    -0.000001615387    -0.000007143289
      11       -0.000053679261    -0.000049190066    -0.000017835634
      12        0.000009751844     0.000004870306     0.000006390117
      13        0.000001877074     0.000006030181     0.000003440218
      14        0.000010988603     0.000011181172    -0.000000036265

  **** Optimization is complete! (in 6 steps) ****
    Final optimized geometry and variables:
    Molecular point group: c1

    Geometry (in Angstrom), charge = 0, multiplicity = 1:

    O            1.400409122416    -0.799895327131    -0.340360255257
    C            0.324590659439    -0.363262036697    -0.081674288251
    C           -0.936180609980    -1.199884195078    -0.086795888516
    O            0.119272549890     0.899562381444     0.259103425742
    C           -2.256685780767    -0.434257338305    -0.080620532559
    H           -0.864424934986    -1.847078690079    -0.953076763950
    H           -0.869526534260    -1.850034557492     0.781429302507
    H           -2.339336771093     0.217792741007    -0.942774988830
    H           -3.085748154145    -1.133379225345    -0.108395228617
    H           -2.357375165282     0.175947905582     0.807883248530
    C            1.256459398355     1.742804980710     0.310018602823
    H            1.965874133866     1.378189039258     1.038660487302
    H            0.889279877176     2.715497557256     0.597896195839
    H            1.734427549465     1.792738537994    -0.657475391668

  Mulliken Charges: (a.u.)
   Center  Symbol    Alpha    Beta     Spin     Total
       1     O     4.28808  4.28808  0.00000 -0.57615
       2     C     2.60753  2.60753  0.00000  0.78495
       3     C     3.20799  3.20799  0.00000 -0.41599
       4     O     4.30373  4.30373  0.00000 -0.60745
       5     C     3.23885  3.23885  0.00000 -0.47770
       6     H     0.39701  0.39701  0.00000  0.20598
       7     H     0.39853  0.39853  0.00000  0.20294
       8     H     0.41429  0.41429  0.00000  0.17142
       9     H     0.41660  0.41660  0.00000  0.16679
      10     H     0.40992  0.40992  0.00000  0.18015
      11     C     3.09281  3.09281  0.00000 -0.18562
      12     H     0.40822  0.40822  0.00000  0.18356
      13     H     0.40851  0.40851  0.00000  0.18297
      14     H     0.40792  0.40792  0.00000  0.18416

   Total alpha = 24.00000, Total beta = 24.00000, Total charge = -0.00000
