  ==> Input File <==

--------------------------------------------------------------------------
set {
	reference rhf
	basis cc-pvtz
}

set_num_threads( 4 )
memory 2 gb

molecule MOL {
0 1

H	 -2.123894	 -0.667238	 -0.609809
O	 -2.041679	 -0.058866	 0.103463
C	 -0.959304	 0.780994	 -0.094939
C	 0.354905	 0.037902	 -0.006215
H	 -0.985899	 1.279578	 -1.057596
H	 -0.969809	 1.529522	 0.682889
F	 1.233212	 0.525822	 -0.864296
F	 0.867988	 0.158560	 1.200344
F	 0.226304	 -1.241899	 -0.262227

	symmetry c1
}
set optking {
	frozen_dihedral = ("
		7 4 3 5
	")
}

ee = optimize('scf')
oeprop('DIPOLE', 'QUADRUPOLE', 'MULLIKEN_CHARGES')
f=open( 'psi4out.xyz', 'w' )
f.write( "9  " )
f.write( str(ee) + "\n" )
f.write( MOL.save_string_xyz() )
f.close()
--------------------------------------------------------------------------

    Molecular point group: c1
  Charge       = 0
  Multiplicity = 1
  Basis Set: CC-PVTZ
  Basis Set:
  @DF-RHF Final Energy:  -450.84202221218726
    Total Energy =                       -450.8420222121871461
    Molecular point group: c1
  Basis Set: CC-PVTZ
  Basis Set:
  Basis Set: CC-PVTZ
  Basis Set:
  @DF-RHF Final Energy:  -450.84263738657529
    Total Energy =                       -450.8426373865753476
  Basis Set: CC-PVTZ
  Basis Set:
  Basis Set: CC-PVTZ
  Basis Set:
  @DF-RHF Final Energy:  -450.84294642707283
    Total Energy =                       -450.8429464270729454
  Basis Set: CC-PVTZ
  Basis Set:
  Basis Set: CC-PVTZ
  Basis Set:
  @DF-RHF Final Energy:  -450.84298019001551
    Total Energy =                       -450.8429801900155098
  Basis Set: CC-PVTZ
  Basis Set:
  Basis Set: CC-PVTZ
  Basis Set:
  @DF-RHF Final Energy:  -450.84298498068915
    Total Energy =                       -450.8429849806890388
  Basis Set: CC-PVTZ
  Basis Set:
  Charge       = 0
  Multiplicity = 1
  Basis Set: CC-PVTZ
  Basis Set:

    Orbital Energies (a.u.)
    -----------------------

    Doubly Occupied:

       1A    -26.339291     2A    -26.338664     3A    -26.338225
       4A    -20.583467     5A    -11.495928     6A    -11.309808
       7A     -1.748742     8A     -1.644862     9A     -1.643729
      10A     -1.407328    11A     -1.047413    12A     -0.930598
      13A     -0.838256    14A     -0.835656    15A     -0.815678
      16A     -0.729300    17A     -0.719106    18A     -0.705308
      19A     -0.671239    20A     -0.667491    21A     -0.649604
      22A     -0.631988    23A     -0.619381    24A     -0.529913
      25A     -0.484435

  @DF-RHF Final Energy:  -450.84298533202173

   => Energetics <=

    Nuclear Repulsion Energy =            277.0886887882738847
    One-Electron Energy =               -1176.4125290126869459
    Two-Electron Energy =                 448.4808548923913349
    DFT Exchange-Correlation Energy =       0.0000000000000000
    Empirical Dispersion Energy =           0.0000000000000000
    PCM Polarization Energy =               0.0000000000000000
    EFP Energy =                            0.0000000000000000
    Total Energy =                       -450.8429853320217262
    Molecular point group: c1
  Basis Set: CC-PVTZ
  Basis Set:

  -Total Gradient:
     Atom            X                  Y                   Z
    ------   -----------------  -----------------  -----------------
       1       -0.000018619557    -0.000004864160     0.000005437038
       2        0.000056960041     0.000028979743    -0.000013376536
       3       -0.003313272290    -0.006542580648    -0.003867440738
       4        0.002300039934     0.004946868332     0.004929065191
       5        0.002336639893     0.004591993559     0.002364608023
       6        0.000003854935     0.000005107667    -0.000002550915
       7       -0.001317709187    -0.002982258194    -0.003343137944
       8       -0.000026664220     0.000006709715    -0.000103198063
       9       -0.000021229555    -0.000049956017     0.000030593947

  **** Optimization is complete! (in 6 steps) ****
    Final optimized geometry and variables:
    Molecular point group: c1

    Geometry (in Angstrom), charge = 0, multiplicity = 1:

    H           -2.107759217801    -0.719949289969    -0.543558565963
    O           -2.066318360379    -0.032474080108     0.097343561499
    C           -0.970735182571     0.778493080200    -0.123175957412
    C            0.359841103865     0.038190287398    -0.004218727042
    H           -0.981687071308     1.285357921452    -1.081128241026
    H           -0.978848220885     1.543537341149     0.639084180654
    F            1.249129175301     0.542826136960    -0.836290231997
    F            0.865547080995     0.093461145394     1.205672963516
    F            0.226649128585    -1.236665571020    -0.318586396394

  Mulliken Charges: (a.u.)
   Center  Symbol    Alpha    Beta     Spin     Total
       1     H     0.38572  0.38572  0.00000  0.22856
       2     O     4.18814  4.18814  0.00000 -0.37629
       3     C     3.00030  3.00030  0.00000 -0.00060
       4     C     2.67869  2.67869  0.00000  0.64263
       5     H     0.46268  0.46268  0.00000  0.07464
       6     H     0.44984  0.44984  0.00000  0.10033
       7     F     4.61166  4.61166  0.00000 -0.22332
       8     F     4.60758  4.60758  0.00000 -0.21517
       9     F     4.61539  4.61539  0.00000 -0.23077

   Total alpha = 25.00000, Total beta = 25.00000, Total charge = -0.00000
