  ==> Input File <==

--------------------------------------------------------------------------
set {
	reference rhf
	basis 6-31G*
}

set_num_threads( 4 )
memory 2 gb

molecule MOL {
0 1

O	 -2.324811	 1.361668	 -0.277141
C	 -2.105949	 0.203097	 -0.092081
C	 -0.889235	 -0.467034	 -0.705952
C	 -3.002726	 -0.644460	 0.782455
C	 -1.068392	 -1.993147	 -0.750955
H	 -0.032004	 -0.221399	 -0.088601
H	 -0.706375	 -0.084964	 -1.706257
C	 0.155319	 -2.703313	 -1.334745
H	 -1.266545	 -2.340188	 0.256855
H	 -1.945056	 -2.241723	 -1.347124
C	 0.002380	 -4.222873	 -1.467415
H	 1.025096	 -2.482328	 -0.718806
H	 0.365115	 -2.288871	 -2.318651
C	 -0.110362	 -4.967756	 -0.136086
H	 0.862036	 -4.606618	 -2.010943
H	 -0.867912	 -4.444296	 -2.081947
H	 0.742569	 -4.755954	 0.502955
H	 -0.142628	 -6.040699	 -0.297802
H	 -1.007683	 -4.694460	 0.408813
H	 -3.496582	 -1.399307	 0.176174
H	 -3.747939	 -0.023774	 1.260148
H	 -2.421318	 -1.168775	 1.535358

	symmetry c1
}
set optking {
	frozen_dihedral = ("
		6 3 2 1
	")
}

ee = optimize('scf')
oeprop('DIPOLE', 'QUADRUPOLE', 'MULLIKEN_CHARGES')
f=open( 'psi4out.xyz', 'w' )
f.write( "22  " )
f.write( str(ee) + "\n" )
f.write( MOL.save_string_xyz() )
f.close()
--------------------------------------------------------------------------

    Molecular point group: c1
  Charge       = 0
  Multiplicity = 1
  Basis Set: 6-31G*
  Basis Set:
  @DF-RHF Final Energy:  -348.09217433370532
    Total Energy =                       -348.0921743337053158
    Molecular point group: c1
  Basis Set: 6-31G*
  Basis Set:
  Basis Set: 6-31G*
  Basis Set:
  @DF-RHF Final Energy:  -348.09474461557352
    Total Energy =                       -348.0947446155734042
  Basis Set: 6-31G*
  Basis Set:
  Basis Set: 6-31G*
  Basis Set:
  @DF-RHF Final Energy:  -348.09630239071902
    Total Energy =                       -348.0963023907188472
  Basis Set: 6-31G*
  Basis Set:
  Basis Set: 6-31G*
  Basis Set:
  @DF-RHF Final Energy:  -348.09641832408033
    Total Energy =                       -348.0964183240803322
  Basis Set: 6-31G*
  Basis Set:
  @DF-RHF Final Energy:  -348.09638251947189
    Total Energy =                       -348.0963825194717742
  @DF-RHF Final Energy:  -348.09649045388983
    Total Energy =                       -348.0964904538898281
  @DF-RHF Final Energy:  -348.09650187493355
    Total Energy =                       -348.0965018749333808
  @DF-RHF Final Energy:  -348.09647877703884
    Total Energy =                       -348.0964787770391808
  Basis Set: 6-31G*
  Basis Set:
  @DF-RHF Final Energy:  -348.09650876847405
    Total Energy =                       -348.0965087684744503
  Basis Set: 6-31G*
  Basis Set:
  Basis Set: 6-31G*
  Basis Set:
  @DF-RHF Final Energy:  -348.09650269696238
    Total Energy =                       -348.0965026969626024
  Basis Set: 6-31G*
  Basis Set:
  Basis Set: 6-31G*
  Basis Set:
  @DF-RHF Final Energy:  -348.09651040968794
    Total Energy =                       -348.0965104096878235
  Basis Set: 6-31G*
  Basis Set:
  Charge       = 0
  Multiplicity = 1
  Basis Set: 6-31G*
  Basis Set:

    Orbital Energies (a.u.)
    -----------------------

    Doubly Occupied:

       1A    -20.545887     2A    -11.325412     3A    -11.231075
       4A    -11.230330     5A    -11.227561     6A    -11.224853
       7A    -11.223289     8A    -11.215523     9A     -1.392502
      10A     -1.098965    11A     -1.045559    12A     -0.996484
      13A     -0.941414    14A     -0.864086    15A     -0.789618
      16A     -0.731717    17A     -0.660451    18A     -0.648536
      19A     -0.630996    20A     -0.618207    21A     -0.601327
      22A     -0.585426    23A     -0.556612    24A     -0.544671
      25A     -0.538594    26A     -0.513443    27A     -0.510759
      28A     -0.480888    29A     -0.474878    30A     -0.467109
      31A     -0.465060    32A     -0.396162

  @DF-RHF Final Energy:  -348.09651045270959

   => Energetics <=

    Nuclear Repulsion Energy =            372.5721118794140239
    One-Electron Energy =               -1209.7824595024537757
    Two-Electron Energy =                 489.1138371703305552
    DFT Exchange-Correlation Energy =       0.0000000000000000
    Empirical Dispersion Energy =           0.0000000000000000
    PCM Polarization Energy =               0.0000000000000000
    EFP Energy =                            0.0000000000000000
    Total Energy =                       -348.0965104527091967
    Molecular point group: c1
  Basis Set: 6-31G*
  Basis Set:

  -Total Gradient:
     Atom            X                  Y                   Z
    ------   -----------------  -----------------  -----------------
       1        0.000849744957     0.000395327259     0.001233937005
       2       -0.001126221455    -0.000344815373    -0.001898882190
       3       -0.000061729156    -0.001194848988     0.001595812522
       4       -0.000002083221     0.000004725671     0.000010335125
       5        0.000008453288    -0.000013656046     0.000047055277
       6        0.000329090826     0.001137092279    -0.000943475263
       7        0.000004358581    -0.000011052969    -0.000014593153
       8        0.000008373897     0.000004167778    -0.000005418808
       9       -0.000005650951     0.000004057349    -0.000010704237
      10       -0.000002825955     0.000024944823    -0.000003120623
      11       -0.000006386127     0.000002245085     0.000005338824
      12       -0.000004104273     0.000005366413     0.000000224722
      13        0.000012615833    -0.000009909306    -0.000011623554
      14        0.000002201250    -0.000000981909    -0.000002645015
      15       -0.000001940444    -0.000000609972    -0.000003124994
      16       -0.000003115038     0.000002072286     0.000005336345
      17       -0.000001917779     0.000004630556     0.000001259468
      18        0.000005039641     0.000000023444    -0.000001098048
      19        0.000000716247    -0.000005127327    -0.000004512447
      20       -0.000001853972    -0.000000766003    -0.000005087475
      21       -0.000000019136    -0.000001778957     0.000001445534
      22       -0.000002747012    -0.000001106094     0.000003540984

  **** Optimization is complete! (in 12 steps) ****
    Final optimized geometry and variables:
    Molecular point group: c1

    Geometry (in Angstrom), charge = 0, multiplicity = 1:

    O           -1.103037446252     3.071452823746     0.097320313457
    C           -0.964896623769     1.922700033832     0.390204090373
    C            0.223603799287     1.140502688559    -0.152655998101
    C           -1.920849378075     1.245582364743     1.349025341871
    C            0.089626727933    -0.382177853885    -0.228955649362
    H            1.073316444289     1.410577415895     0.473444597127
    H            0.438047101719     1.554468868515    -1.131995353639
    C            1.340402962865    -1.033406317882    -0.826329771370
    H           -0.098320250621    -0.787209154351     0.760066999191
    H           -0.772339113759    -0.643084583954    -0.840300712637
    C            1.241199890272    -2.551702896346    -1.011504011935
    H            2.199611324566    -0.803535479905    -0.198282449565
    H            1.541476954533    -0.579072107474    -1.793813053228
    C            1.143276850967    -3.347016361529     0.291609040919
    H            2.118129075670    -2.886930846180    -1.559266415660
    H            0.384613919201    -2.781868287489    -1.641655297416
    H            1.980472715624    -3.125480185521     0.948082159376
    H            1.154568512818    -4.413980155341     0.092409598945
    H            0.229576838232    -3.128920980809     0.834749423528
    H           -2.434943335741     0.421664894255     0.864319938674
    H           -2.646279372935     1.968462312837     1.694800257018
    H           -1.382929548670     0.834915088216     2.198607042866

  Mulliken Charges: (a.u.)
   Center  Symbol    Alpha    Beta     Spin     Total
       1     O     4.26342  4.26342  0.00000 -0.52683
       2     C     2.73330  2.73330  0.00000  0.53340
       3     C     3.20664  3.20664  0.00000 -0.41328
       4     C     3.29226  3.29226  0.00000 -0.58452
       5     C     3.16416  3.16416  0.00000 -0.32831
       6     H     0.40403  0.40403  0.00000  0.19195
       7     H     0.39908  0.39908  0.00000  0.20184
       8     C     3.15319  3.15319  0.00000 -0.30638
       9     H     0.41734  0.41734  0.00000  0.16532
      10     H     0.41920  0.41920  0.00000  0.16160
      11     C     3.15308  3.15308  0.00000 -0.30616
      12     H     0.42218  0.42218  0.00000  0.15563
      13     H     0.41866  0.41866  0.00000  0.16269
      14     C     3.24186  3.24186  0.00000 -0.48371
      15     H     0.41855  0.41855  0.00000  0.16289
      16     H     0.42210  0.42210  0.00000  0.15581
      17     H     0.42139  0.42139  0.00000  0.15722
      18     H     0.41724  0.41724  0.00000  0.16553
      19     H     0.42111  0.42111  0.00000  0.15778
      20     H     0.40657  0.40657  0.00000  0.18685
      21     H     0.39563  0.39563  0.00000  0.20873
      22     H     0.40901  0.40901  0.00000  0.18197

   Total alpha = 32.00000, Total beta = 32.00000, Total charge =  0.00000
