  ==> Input File <==

--------------------------------------------------------------------------
set {
	reference rhf
	basis 6-31G*
}

set_num_threads( 4 )
memory 2 gb

molecule MOL {
0 1

H	 -2.965344	 -0.015013	 -0.582479
O	 -2.347518	 -0.290803	 0.079804
C	 -1.184022	 0.487508	 -0.006784
C	 0.062599	 -0.378592	 0.031606
H	 -1.176523	 1.099369	 -0.904519
H	 -1.187323	 1.153111	 0.844927
O	 1.171513	 0.459272	 -0.058250
H	 0.050699	 -1.089204	 -0.797170
H	 0.078739	 -0.954914	 0.954740
C	 2.397842	 -0.198080	 -0.002151
H	 2.508049	 -0.905315	 -0.822092
H	 3.173794	 0.550865	 -0.078850
H	 2.517602	 -0.735921	 0.936026

	symmetry c1
}
set optking {
	frozen_dihedral = ("
		1 2 3 5
	")
}

ee = optimize('scf')
oeprop('DIPOLE', 'QUADRUPOLE', 'MULLIKEN_CHARGES')
f=open( 'psi4out.xyz', 'w' )
f.write( "13  " )
f.write( str(ee) + "\n" )
f.write( MOL.save_string_xyz() )
f.close()
--------------------------------------------------------------------------

    Molecular point group: c1
  Charge       = 0
  Multiplicity = 1
  Basis Set: 6-31G*
  Basis Set:
  @DF-RHF Final Energy:  -267.94880896959410
    Total Energy =                       -267.9488089695942108
    Molecular point group: c1
  Basis Set: 6-31G*
  Basis Set:
  Basis Set: 6-31G*
  Basis Set:
  @DF-RHF Final Energy:  -267.94943190057728
    Total Energy =                       -267.9494319005772240
  Basis Set: 6-31G*
  Basis Set:
  Basis Set: 6-31G*
  Basis Set:
  @DF-RHF Final Energy:  -267.94963215510523
    Total Energy =                       -267.9496321551054052
  Basis Set: 6-31G*
  Basis Set:
  Basis Set: 6-31G*
  Basis Set:
  @DF-RHF Final Energy:  -267.94963933573524
    Total Energy =                       -267.9496393357349575
  Basis Set: 6-31G*
  Basis Set:
  Charge       = 0
  Multiplicity = 1
  Basis Set: 6-31G*
  Basis Set:

    Orbital Energies (a.u.)
    -----------------------

    Doubly Occupied:

       1A    -20.558822     2A    -20.557976     3A    -11.269113
       4A    -11.267405     5A    -11.266039     6A     -1.385144
       7A     -1.362831     8A     -1.017733     9A     -0.911324
      10A     -0.833039    11A     -0.711926    12A     -0.678238
      13A     -0.643960    14A     -0.640724    15A     -0.606875
      16A     -0.550429    17A     -0.544740    18A     -0.492132
      19A     -0.475666    20A     -0.437817    21A     -0.418311

  @DF-RHF Final Energy:  -267.94964001921170

   => Energetics <=

    Nuclear Repulsion Energy =            190.2638074377885005
    One-Electron Energy =                -743.1664083870734885
    Two-Electron Energy =                 284.9529609300732318
    DFT Exchange-Correlation Energy =       0.0000000000000000
    Empirical Dispersion Energy =           0.0000000000000000
    PCM Polarization Energy =               0.0000000000000000
    EFP Energy =                            0.0000000000000000
    Total Energy =                       -267.9496400192117562
    Molecular point group: c1
  Basis Set: 6-31G*
  Basis Set:

  -Total Gradient:
     Atom            X                  Y                   Z
    ------   -----------------  -----------------  -----------------
       1        0.000267532670    -0.000443339764    -0.000403445808
       2       -0.000384479838     0.000705823444     0.000579470159
       3        0.000404691007    -0.000708798181    -0.000425150501
       4       -0.000007175816    -0.000019085908    -0.000041478036
       5       -0.000259064445     0.000422156454     0.000271583869
       6       -0.000009060705    -0.000009079970     0.000002445106
       7        0.000028256091     0.000028713895     0.000011629019
       8       -0.000018355621    -0.000013567217    -0.000007017436
       9       -0.000005401118     0.000035265968    -0.000001113578
      10       -0.000010610443     0.000000844740     0.000019686042
      11       -0.000010823667     0.000003896720    -0.000001966630
      12       -0.000001527039     0.000001844100    -0.000002460323
      13        0.000006018923    -0.000004674279    -0.000002181883

  **** Optimization is complete! (in 5 steps) ****
    Final optimized geometry and variables:
    Molecular point group: c1

    Geometry (in Angstrom), charge = 0, multiplicity = 1:

    H           -2.946473673614    -0.103250240480    -0.570968631255
    O           -2.314774831886    -0.320832440053     0.096581974756
    C           -1.178982527477     0.500117878044    -0.019096203192
    C            0.056115639045    -0.376778400759     0.010044866330
    H           -1.192323859449     1.076479046022    -0.938690824109
    H           -1.143041015138     1.202105695824     0.806875408241
    O            1.173679662318     0.455090728804    -0.047712639862
    H            0.038937994950    -1.066198538613    -0.832593096895
    H            0.058060468739    -0.970592631798     0.922147107873
    C            2.392456063011    -0.216649863614    -0.005769394179
    H            2.499233443708    -0.899646566352    -0.846360929196
    H            3.177084811809     0.525750757356    -0.055607605536
    H            2.501749442011    -0.784393208841     0.916074667970

  Mulliken Charges: (a.u.)
   Center  Symbol    Alpha    Beta     Spin     Total
       1     H     0.27736  0.27736  0.00000  0.44528
       2     O     4.37547  4.37547  0.00000 -0.75093
       3     C     3.00496  3.00496  0.00000 -0.00993
       4     C     2.99118  2.99118  0.00000  0.01764
       5     H     0.42398  0.42398  0.00000  0.15204
       6     H     0.41695  0.41695  0.00000  0.16610
       7     O     4.30938  4.30938  0.00000 -0.61876
       8     H     0.42900  0.42900  0.00000  0.14200
       9     H     0.42340  0.42340  0.00000  0.15321
      10     C     3.07944  3.07944  0.00000 -0.15888
      11     H     0.42911  0.42911  0.00000  0.14179
      12     H     0.41170  0.41170  0.00000  0.17660
      13     H     0.42808  0.42808  0.00000  0.14385

   Total alpha = 21.00000, Total beta = 21.00000, Total charge =  0.00000
