  ==> Input File <==

--------------------------------------------------------------------------
set {
	reference rhf
	basis cc-pvtz
}

set_num_threads( 4 )
memory 2 gb

molecule MOL {
0 1

H	 0.300555	 -3.283573	 -1.517521
O	 0.482707	 -2.581961	 -0.910646
C	 -0.532029	 -1.722971	 -0.943290
C	 -0.318151	 -0.570512	 0.000144
O	 -1.470490	 -1.883853	 -1.644272
C	 -1.454884	 0.441630	 -0.000560
H	 -0.165239	 -0.990579	 0.989109
H	 0.623919	 -0.105126	 -0.271552
C	 -2.822577	 -0.232186	 0.000063
H	 -1.359760	 1.084704	 -0.867077
H	 -1.359641	 1.085996	 0.864983
H	 -2.954352	 -0.858985	 -0.875745
H	 -3.615886	 0.505352	 0.000019
H	 -2.953878	 -0.858359	 0.876394

	symmetry c1
}
set optking {
	frozen_dihedral = ("
		7 4 6 10
	")
}

ee = optimize('scf')
oeprop('DIPOLE', 'QUADRUPOLE', 'MULLIKEN_CHARGES')
f=open( 'psi4out.xyz', 'w' )
f.write( "14  " )
f.write( str(ee) + "\n" )
f.write( MOL.save_string_xyz() )
f.close()
--------------------------------------------------------------------------

    Molecular point group: c1
  Charge       = 0
  Multiplicity = 1
  Basis Set: CC-PVTZ
  Basis Set:
  @DF-RHF Final Energy:  -305.98849228940924
    Total Energy =                       -305.9884922894093506
    Molecular point group: c1
  Basis Set: CC-PVTZ
  Basis Set:
  Basis Set: CC-PVTZ
  Basis Set:
  @DF-RHF Final Energy:  -305.99569442711771
    Total Energy =                       -305.9956944271182238
  Basis Set: CC-PVTZ
  Basis Set:
  Basis Set: CC-PVTZ
  Basis Set:
  @DF-RHF Final Energy:  -305.99696702713777
    Total Energy =                       -305.9969670271377709
  Basis Set: CC-PVTZ
  Basis Set:
  Basis Set: CC-PVTZ
  Basis Set:
  @DF-RHF Final Energy:  -305.99724402794618
    Total Energy =                       -305.9972440279462944
  Basis Set: CC-PVTZ
  Basis Set:
  @DF-RHF Final Energy:  -305.99770594798912
    Total Energy =                       -305.9977059479892887
  @DF-RHF Final Energy:  -305.99797283288297
    Total Energy =                       -305.9979728328828514
  Basis Set: CC-PVTZ
  Basis Set:
  @DF-RHF Final Energy:  -305.99806569826023
    Total Energy =                       -305.9980656982602341
  Basis Set: CC-PVTZ
  Basis Set:
  Basis Set: CC-PVTZ
  Basis Set:
  @DF-RHF Final Energy:  -305.99808340208756
    Total Energy =                       -305.9980834020878433
  Basis Set: CC-PVTZ
  Basis Set:
  Basis Set: CC-PVTZ
  Basis Set:
  @DF-RHF Final Energy:  -305.99808471976274
    Total Energy =                       -305.9980847197626872
  Basis Set: CC-PVTZ
  Basis Set:
  Charge       = 0
  Multiplicity = 1
  Basis Set: CC-PVTZ
  Basis Set:

    Orbital Energies (a.u.)
    -----------------------

    Doubly Occupied:

       1A    -20.605718     2A    -20.540051     3A    -11.374923
       4A    -11.240067     5A    -11.226879     6A    -11.208334
       7A     -1.478846     8A     -1.369678     9A     -1.081912
      10A     -0.977829    11A     -0.865160    12A     -0.789610
      13A     -0.706595    14A     -0.691731    15A     -0.661717
      16A     -0.617138    17A     -0.595433    18A     -0.569957
      19A     -0.556067    20A     -0.501934    21A     -0.490768
      22A     -0.484059    23A     -0.480789    24A     -0.443932

  @DF-RHF Final Energy:  -305.99808478932721

   => Energetics <=

    Nuclear Repulsion Energy =            245.3144111917582961
    One-Electron Energy =                -903.5067345340106613
    Two-Electron Energy =                 352.1942385529249577
    DFT Exchange-Correlation Energy =       0.0000000000000000
    Empirical Dispersion Energy =           0.0000000000000000
    PCM Polarization Energy =               0.0000000000000000
    EFP Energy =                            0.0000000000000000
    Total Energy =                       -305.9980847893274358
    Molecular point group: c1
  Basis Set: CC-PVTZ
  Basis Set:

  -Total Gradient:
     Atom            X                  Y                   Z
    ------   -----------------  -----------------  -----------------
       1       -0.000005214780     0.000007955476     0.000002035649
       2        0.000013507304    -0.000003180469     0.000013057995
       3       -0.000017096602    -0.000005592826    -0.000020472237
       4       -0.003519941109    -0.004176477476    -0.000627573208
       5        0.000004591805     0.000006563708     0.000007213587
       6       -0.002669617503    -0.003199341298    -0.003020291829
       7        0.003330365350     0.003960718398     0.000985598899
       8        0.000002204098    -0.000000556171     0.000005339945
       9       -0.000012548320    -0.000005161498    -0.000011581184
      10        0.002868766874     0.003406595078     0.002656780153
      11       -0.000001085910     0.000003191778     0.000001679851
      12        0.000001893813     0.000004050071     0.000005387801
      13        0.000003385825     0.000001573519     0.000000836595
      14        0.000000789158    -0.000000338292     0.000001987982

  **** Optimization is complete! (in 10 steps) ****
    Final optimized geometry and variables:
    Molecular point group: c1

    Geometry (in Angstrom), charge = 0, multiplicity = 1:

    H            1.227113455037    -2.265171222137    -0.733519157937
    O            1.277239023913    -1.620476208056    -0.043548845964
    C            0.545287823970    -0.569668666800    -0.398298322104
    C            0.628998720329     0.545815390586     0.606932145762
    O           -0.052508243630    -0.535439027925    -1.418594275919
    C           -0.540263630736     1.530580651202     0.604635560015
    H            0.811788791593     0.145754452296     1.595560459880
    H            1.542317632924     1.078694272911     0.351908081660
    C           -1.921918069157     0.900153545035     0.738785212771
    H           -0.480897936286     2.163330383175    -0.272385400630
    H           -0.378220387427     2.197452622719     1.446322691699
    H           -2.165383964751     0.289157755697    -0.118605290065
    H           -2.679507233539     1.669603358823     0.828514383812
    H           -1.979829625657     0.278798903916     1.627428439378

  Mulliken Charges: (a.u.)
   Center  Symbol    Alpha    Beta     Spin     Total
       1     H     0.38139  0.38139  0.00000  0.23723
       2     O     4.15940  4.15940  0.00000 -0.31880
       3     C     2.80187  2.80187  0.00000  0.39626
       4     C     3.11254  3.11254  0.00000 -0.22508
       5     O     4.19577  4.19577  0.00000 -0.39154
       6     C     3.08078  3.08078  0.00000 -0.16156
       7     H     0.43394  0.43394  0.00000  0.13212
       8     H     0.43700  0.43700  0.00000  0.12599
       9     C     3.15636  3.15636  0.00000 -0.31273
      10     H     0.44733  0.44733  0.00000  0.10535
      11     H     0.44947  0.44947  0.00000  0.10105
      12     H     0.43966  0.43966  0.00000  0.12069
      13     H     0.44805  0.44805  0.00000  0.10390
      14     H     0.45644  0.45644  0.00000  0.08711

   Total alpha = 24.00000, Total beta = 24.00000, Total charge =  0.00000
