  ==> Input File <==

--------------------------------------------------------------------------
set {
	reference rhf
	basis cc-pvtz
}

set_num_threads( 4 )
memory 2 gb

molecule MOL {
0 1

O	 1.847685	 1.294399	 -0.000190
C	 1.704209	 0.119472	 -0.000093
C	 0.380337	 -0.600947	 -0.000234
O	 2.715427	 -0.733672	 0.000025
C	 -0.824290	 0.329213	 -0.000115
H	 0.371455	 -1.255476	 -0.865660
H	 0.371410	 -1.255787	 0.864952
C	 -2.146151	 -0.432825	 -0.000068
H	 -0.773936	 0.979158	 -0.866319
H	 -0.773838	 0.979034	 0.866186
C	 -3.366283	 0.483552	 0.000557
H	 -2.189286	 -1.084450	 -0.869996
H	 -2.188867	 -1.085083	 0.869399
C	 -4.604073	 -0.166592	 -0.608213
H	 -3.131159	 1.392893	 -0.545312
H	 -3.583874	 0.789060	 1.020105
H	 -4.428996	 -0.452501	 -1.640123
H	 -5.450651	 0.510007	 -0.592278
H	 -4.885531	 -1.060890	 -0.062094
C	 4.020999	 -0.192556	 0.000019
H	 4.182809	 0.412891	 -0.879449
H	 4.692590	 -1.035653	 0.000152
H	 4.182726	 0.413087	 0.879368

	symmetry c1
}
set optking {
	frozen_dihedral = ("
		15 11 8 12
	")
}

ee = optimize('scf')
oeprop('DIPOLE', 'QUADRUPOLE', 'MULLIKEN_CHARGES')
f=open( 'psi4out.xyz', 'w' )
f.write( "23  " )
f.write( str(ee) + "\n" )
f.write( MOL.save_string_xyz() )
f.close()
--------------------------------------------------------------------------

    Molecular point group: c1
  Charge       = 0
  Multiplicity = 1
  Basis Set: CC-PVTZ
  Basis Set:
  @DF-RHF Final Energy:  -423.12886050838893
    Total Energy =                       -423.1288605083891525
    Molecular point group: c1
  Basis Set: CC-PVTZ
  Basis Set:
  Basis Set: CC-PVTZ
  Basis Set:
  @DF-RHF Final Energy:  -423.12910352454446
    Total Energy =                       -423.1291035245441208
  Basis Set: CC-PVTZ
  Basis Set:
  Basis Set: CC-PVTZ
  Basis Set:
  @DF-RHF Final Energy:  -423.12914084451944
    Total Energy =                       -423.1291408445197249
  Basis Set: CC-PVTZ
  Basis Set:
  Basis Set: CC-PVTZ
  Basis Set:
  @DF-RHF Final Energy:  -423.12898788957989
    Total Energy =                       -423.1289878895805714
  Basis Set: CC-PVTZ
  Basis Set:
  Basis Set: CC-PVTZ
  Basis Set:
  @DF-RHF Final Energy:  -423.12914682246935
    Total Energy =                       -423.1291468224695791
  Basis Set: CC-PVTZ
  Basis Set:
  Charge       = 0
  Multiplicity = 1
  Basis Set: CC-PVTZ
  Basis Set:

    Orbital Energies (a.u.)
    -----------------------

    Doubly Occupied:

       1A    -20.596346     2A    -20.534164     3A    -11.364618
       4A    -11.278505     5A    -11.233804     6A    -11.217620
       7A    -11.215636     8A    -11.214318     9A    -11.208165
      10A     -1.472246    11A     -1.365826    12A     -1.094068
      13A     -1.044391    14A     -0.988213    15A     -0.932822
      16A     -0.844805    17A     -0.796112    18A     -0.769474
      19A     -0.699238    20A     -0.686789    21A     -0.675560
      22A     -0.649720    23A     -0.609910    24A     -0.601242
      25A     -0.574255    26A     -0.564718    27A     -0.553105
      28A     -0.525528    29A     -0.522647    30A     -0.507786
      31A     -0.487226    32A     -0.471536    33A     -0.463690
      34A     -0.462875    35A     -0.457826    36A     -0.438481

  @DF-RHF Final Energy:  -423.12914698885544

   => Energetics <=

    Nuclear Repulsion Energy =            452.8921892125886757
    One-Electron Energy =               -1473.7961423179781377
    Two-Electron Energy =                 597.7748061165340232
    DFT Exchange-Correlation Energy =       0.0000000000000000
    Empirical Dispersion Energy =           0.0000000000000000
    PCM Polarization Energy =               0.0000000000000000
    EFP Energy =                            0.0000000000000000
    Total Energy =                       -423.1291469888554957
    Molecular point group: c1
  Basis Set: CC-PVTZ
  Basis Set:

  -Total Gradient:
     Atom            X                  Y                   Z
    ------   -----------------  -----------------  -----------------
       1       -0.000004730252     0.000000772404     0.000006981571
       2        0.000004074313     0.000003138179    -0.000017396199
       3       -0.000006721496    -0.000007181747     0.000009983410
       4       -0.000000159316    -0.000006068029     0.000006716356
       5        0.000003037662     0.000019190559    -0.000021352331
       6        0.000001730111     0.000003187660    -0.000000349250
       7       -0.000000826950    -0.000000548447    -0.000000798503
       8        0.002757662951     0.003826563857    -0.001857007682
       9        0.000003739099    -0.000005472310     0.000001621045
      10       -0.000010402593    -0.000003003130    -0.000002322222
      11       -0.002153581854    -0.002749461352    -0.003684498882
      12       -0.001973412594    -0.002750612701     0.002157550800
      13       -0.000003151303    -0.000005155360     0.000008511252
      14       -0.000002560879    -0.000013296506    -0.000016251714
      15        0.001368198784     0.001674845925     0.003390856785
      16        0.000001580099    -0.000000935194     0.000010222586
      17       -0.000000972415     0.000002014725     0.000001752114
      18        0.000008501378     0.000005474139     0.000005885425
      19        0.000009842871     0.000005887754     0.000000135288
      20       -0.000000700351     0.000001313726    -0.000000646646
      21       -0.000000236376    -0.000000123099     0.000000182076
      22       -0.000000828535    -0.000000494206     0.000000153522
      23       -0.000000082342    -0.000000036846     0.000000071199

  **** Optimization is complete! (in 6 steps) ****
    Final optimized geometry and variables:
    Molecular point group: c1

    Geometry (in Angstrom), charge = 0, multiplicity = 1:

    O            1.844130523753     1.280745444546     0.061203134062
    C            1.699521796674     0.105992815863     0.072212444189
    C            0.375079722092    -0.613158151885     0.059596100745
    O            2.709762504174    -0.747935545939     0.097982742548
    C           -0.827964243180     0.318251634603     0.029630223693
    H            0.378663388877    -1.277471684029    -0.798432459450
    H            0.351811954113    -1.257910925985     0.931966729032
    C           -2.150044218004    -0.440236618717     0.008129773818
    H           -0.760346059135     0.962727581222    -0.839225490423
    H           -0.794868976471     0.973831550872     0.892856036091
    C           -3.378443028691     0.472896771604     0.052084074469
    H           -2.204637797348    -1.085416115781    -0.865692412007
    H           -2.189694068641    -1.118088425268     0.858300484290
    C           -4.644750878970    -0.182803770974    -0.484032799531
    H           -3.169964825421     1.392580794478    -0.486786770467
    H           -3.545067044748     0.782769429173     1.080249135036
    H           -4.537568806708    -0.441564917916    -1.532053185025
    H           -5.499220089654     0.477448762112    -0.390911575733
    H           -4.871471216788    -1.094920722770     0.058612072055
    C            4.015655526604    -0.207967592432     0.112515854893
    H            4.192024736229     0.387399267425    -0.771040802932
    H            4.686354822345    -1.051550494855     0.132738417524
    H            4.164181593024     0.407418071978     0.987433317877

  Mulliken Charges: (a.u.)
   Center  Symbol    Alpha    Beta     Spin     Total
       1     O     4.19701  4.19701  0.00000 -0.39402
       2     C     2.80662  2.80662  0.00000  0.38676
       3     C     3.10195  3.10195  0.00000 -0.20390
       4     O     4.14646  4.14646  0.00000 -0.29293
       5     C     3.08296  3.08296  0.00000 -0.16591
       6     H     0.43983  0.43983  0.00000  0.12035
       7     H     0.43993  0.43993  0.00000  0.12015
       8     C     3.09135  3.09135  0.00000 -0.18270
       9     H     0.44622  0.44622  0.00000  0.10755
      10     H     0.44584  0.44584  0.00000  0.10833
      11     C     3.08510  3.08510  0.00000 -0.17020
      12     H     0.45594  0.45594  0.00000  0.08813
      13     H     0.45527  0.45527  0.00000  0.08946
      14     C     3.14906  3.14906  0.00000 -0.29812
      15     H     0.45315  0.45315  0.00000  0.09371
      16     H     0.45322  0.45322  0.00000  0.09356
      17     H     0.45520  0.45520  0.00000  0.08960
      18     H     0.44818  0.44818  0.00000  0.10364
      19     H     0.45496  0.45496  0.00000  0.09009
      20     C     3.03774  3.03774  0.00000 -0.07549
      21     H     0.45434  0.45434  0.00000  0.09132
      22     H     0.44533  0.44533  0.00000  0.10934
      23     H     0.45436  0.45436  0.00000  0.09128

   Total alpha = 36.00000, Total beta = 36.00000, Total charge = -0.00000
