  ==> Input File <==

--------------------------------------------------------------------------
set {
	reference rhf
	basis 6-31G*
}

set_num_threads( 4 )
memory 2 gb

molecule MOL {
0 1

H	 -6.072774	 -2.489177	 1.639428
O	 -6.093985	 -2.815925	 2.527041
C	 -5.076507	 -3.768256	 2.705535
C	 -3.682221	 -3.154186	 2.765631
H	 -5.298272	 -4.263880	 3.641938
H	 -5.119953	 -4.523744	 1.921870
C	 -3.248886	 -2.465917	 1.468953
H	 -3.654927	 -2.440101	 3.584597
H	 -2.974034	 -3.944250	 3.009836
C	 -1.825016	 -1.907438	 1.543214
H	 -3.942891	 -1.661241	 1.242637
H	 -3.311580	 -3.175612	 0.643882
C	 -1.309753	 -1.282496	 0.241564
H	 -1.770800	 -1.170375	 2.342367
H	 -1.151716	 -2.713081	 1.828358
C	 -2.037799	 -0.007733	 -0.193645
H	 -0.253728	 -1.052750	 0.367442
H	 -1.364788	 -2.020098	 -0.557655
C	 -3.489788	 0.042957	 0.286558
H	 -2.017067	 0.064384	 -1.280144
H	 -1.513726	 0.868678	 0.179924
C	 -4.216917	 1.317354	 -0.141063
H	 -4.025645	 -0.823308	 -0.095450
H	 -3.513059	 -0.038752	 1.371301
H	 -4.239342	 1.411634	 -1.223113
H	 -5.243387	 1.322503	 0.212445
H	 -3.726170	 2.201406	 0.256408

	symmetry c1
}
set optking {
	frozen_dihedral = ("
		10 13 16 20
	")
}

ee = optimize('scf')
oeprop('DIPOLE', 'QUADRUPOLE', 'MULLIKEN_CHARGES')
f=open( 'psi4out.xyz', 'w' )
f.write( "27  " )
f.write( str(ee) + "\n" )
f.write( MOL.save_string_xyz() )
f.close()
--------------------------------------------------------------------------

    Molecular point group: c1
  Charge       = 0
  Multiplicity = 1
  Basis Set: 6-31G*
  Basis Set:
  @DF-RHF Final Energy:  -388.24820447238670
    Total Energy =                       -388.2482044723855097
    Molecular point group: c1
  Basis Set: 6-31G*
  Basis Set:
  Basis Set: 6-31G*
  Basis Set:
  @DF-RHF Final Energy:  -388.26602907923950
    Total Energy =                       -388.2660290792397291
  Basis Set: 6-31G*
  Basis Set:
  Basis Set: 6-31G*
  Basis Set:
  @DF-RHF Final Energy:  -388.27025266758739
    Total Energy =                       -388.2702526675868739
  Basis Set: 6-31G*
  Basis Set:
  Basis Set: 6-31G*
  Basis Set:
  @DF-RHF Final Energy:  -388.27147245473191
    Total Energy =                       -388.2714724547320202
  Basis Set: 6-31G*
  Basis Set:
  @DF-RHF Final Energy:  -388.27196665200051
    Total Energy =                       -388.2719666520006285
  @DF-RHF Final Energy:  -388.27226139401239
    Total Energy =                       -388.2722613940121619
  @DF-RHF Final Energy:  -388.27230841343538
    Total Energy =                       -388.2723084134353257
  Basis Set: 6-31G*
  Basis Set:
  @DF-RHF Final Energy:  -388.27230851733117
    Total Energy =                       -388.2723085173311119
  Basis Set: 6-31G*
  Basis Set:
  Basis Set: 6-31G*
  Basis Set:
  @DF-RHF Final Energy:  -388.27231377675020
    Total Energy =                       -388.2723137767509343
  Basis Set: 6-31G*
  Basis Set:
  Basis Set: 6-31G*
  Basis Set:
  @DF-RHF Final Energy:  -388.27231482637148
    Total Energy =                       -388.2723148263715984
  Basis Set: 6-31G*
  Basis Set:
  Charge       = 0
  Multiplicity = 1
  Basis Set: 6-31G*
  Basis Set:

    Orbital Energies (a.u.)
    -----------------------

    Doubly Occupied:

       1A    -20.552233     2A    -11.266951     3A    -11.218862
       4A    -11.217390     5A    -11.216482     6A    -11.215927
       7A    -11.215206     8A    -11.214873     9A    -11.209084
      10A     -1.358965    11A     -1.092770    12A     -1.059264
      13A     -1.009537    14A     -0.950080    15A     -0.886921
      16A     -0.832927    17A     -0.795954    18A     -0.769541
      19A     -0.693786    20A     -0.651843    21A     -0.634332
      22A     -0.617125    23A     -0.600542    24A     -0.585336
      25A     -0.573077    26A     -0.566771    27A     -0.537827
      28A     -0.514079    29A     -0.507690    30A     -0.500864
      31A     -0.487717    32A     -0.481288    33A     -0.468697
      34A     -0.450758    35A     -0.444265    36A     -0.443325
      37A     -0.422693

  @DF-RHF Final Energy:  -388.27231490120334

   => Energetics <=

    Nuclear Repulsion Energy =            470.6773623643409792
    One-Electron Energy =               -1459.3693879826075772
    Two-Electron Energy =                 600.4197107170635945
    DFT Exchange-Correlation Energy =       0.0000000000000000
    Empirical Dispersion Energy =           0.0000000000000000
    PCM Polarization Energy =               0.0000000000000000
    EFP Energy =                            0.0000000000000000
    Total Energy =                       -388.2723149012030035
    Molecular point group: c1
  Basis Set: 6-31G*
  Basis Set:

  -Total Gradient:
     Atom            X                  Y                   Z
    ------   -----------------  -----------------  -----------------
       1        0.000002411409     0.000002856402    -0.000002368905
       2        0.000011002634     0.000002186192    -0.000003360235
       3        0.000002801513    -0.000005259744     0.000012789094
       4       -0.000017048183     0.000005998062    -0.000003971128
       5       -0.000000282706     0.000002342982     0.000001076460
       6        0.000000353184    -0.000002284593    -0.000001521083
       7        0.000039540051    -0.000037002277     0.000013665757
       8        0.000002520877     0.000001543755     0.000018816769
       9       -0.000011619855     0.000000654343    -0.000015098173
      10       -0.003606840768    -0.002233464360    -0.002164153793
      11       -0.000053977280     0.000031076261    -0.000010631457
      12        0.000011219108    -0.000008588053    -0.000017484839
      13        0.004123367666     0.002797679139     0.003239519771
      14        0.000012395206     0.000004203599    -0.000016789601
      15       -0.000013082141    -0.000000775970     0.000017511321
      16        0.005299608657     0.001745178738    -0.001213091843
      17        0.000006127362    -0.000018139888    -0.000004656744
      18       -0.000009270119     0.000003234892     0.000012312894
      19        0.000000838701    -0.000005140487     0.000015608172
      20       -0.005786288897    -0.002285361004     0.000160156348
      21       -0.000000084484     0.000002081934    -0.000018322898
      22       -0.000003779780     0.000001141036    -0.000007162003
      23       -0.000013020490    -0.000011700448    -0.000011063636
      24        0.000005138332    -0.000001239147     0.000006155204
      25       -0.000003542165     0.000009237403    -0.000007694813
      26        0.000002290465     0.000001733053     0.000001170390
      27       -0.000000778296    -0.000002191818    -0.000001411032

  **** Optimization is complete! (in 11 steps) ****
    Final optimized geometry and variables:
    Molecular point group: c1

    Geometry (in Angstrom), charge = 0, multiplicity = 1:

    H           -2.570416721875    -1.618104374252     0.335228794048
    O           -2.590977903447    -1.808684170561     1.261708293306
    C           -1.428439153042    -2.508189835887     1.626807736029
    C           -0.180120255465    -1.632851529595     1.640689135235
    H           -1.616660964838    -2.892630720631     2.620993620439
    H           -1.278062573242    -3.365617375475     0.971840800040
    C            0.200341595917    -1.071619092911     0.268336523164
    H           -0.340485557459    -0.814911021328     2.338332026969
    H            0.645394795051    -2.225593818629     2.031390551748
    C            1.500635185717    -0.262421679663     0.304444866044
    H           -0.611553644927    -0.457172348708    -0.104569453309
    H            0.319662068565    -1.893567983691    -0.437379891282
    C            1.970290087624     0.293774225547    -1.052460522221
    H            1.412891437144     0.540297379130     1.033083307101
    H            2.282131557251    -0.916854323965     0.684374203457
    C            1.413855165215     1.659774501013    -1.523583130704
    H            3.053236162586     0.372321808095    -1.037875022825
    H            1.746133646718    -0.455493906256    -1.809177412630
    C            0.003068591112     2.053525984180    -1.068074062447
    H            1.387260668770     1.651084001738    -2.610508968818
    H            2.099680743278     2.448304787907    -1.224492634698
    C           -0.385899713903     3.446291595208    -1.565725743647
    H           -0.718835306542     1.332932502358    -1.442850830275
    H           -0.070933674453     2.032766783748     0.015010949811
    H           -0.355323273004     3.499418129175    -2.650468501787
    H           -1.390758725685     3.709317559337    -1.250052035681
    H            0.290807915056     4.203542563243    -1.179927525959

  Mulliken Charges: (a.u.)
   Center  Symbol    Alpha    Beta     Spin     Total
       1     H     0.27980  0.27980  0.00000  0.44039
       2     O     4.37097  4.37097  0.00000 -0.74193
       3     C     2.99740  2.99740  0.00000  0.00519
       4     C     3.16148  3.16148  0.00000 -0.32296
       5     H     0.41447  0.41447  0.00000  0.17106
       6     H     0.43199  0.43199  0.00000  0.13601
       7     C     3.16366  3.16366  0.00000 -0.32732
       8     H     0.41530  0.41530  0.00000  0.16940
       9     H     0.42438  0.42438  0.00000  0.15123
      10     C     3.15638  3.15638  0.00000 -0.31276
      11     H     0.42053  0.42053  0.00000  0.15893
      12     H     0.42547  0.42547  0.00000  0.14906
      13     C     3.15672  3.15672  0.00000 -0.31344
      14     H     0.42010  0.42010  0.00000  0.15980
      15     H     0.42115  0.42115  0.00000  0.15770
      16     C     3.15201  3.15201  0.00000 -0.30401
      17     H     0.41843  0.41843  0.00000  0.16313
      18     H     0.42364  0.42364  0.00000  0.15272
      19     C     3.15543  3.15543  0.00000 -0.31086
      20     H     0.42213  0.42213  0.00000  0.15574
      21     H     0.42245  0.42245  0.00000  0.15510
      22     C     3.23900  3.23900  0.00000 -0.47799
      23     H     0.42471  0.42471  0.00000  0.15057
      24     H     0.42005  0.42005  0.00000  0.15989
      25     H     0.42220  0.42220  0.00000  0.15561
      26     H     0.41856  0.41856  0.00000  0.16289
      27     H     0.42158  0.42158  0.00000  0.15685

   Total alpha = 37.00000, Total beta = 37.00000, Total charge =  0.00000
