  ==> Input File <==

--------------------------------------------------------------------------
set {
	reference rhf
	basis 6-31G*
}

set_num_threads( 1 )
memory 2 gb

molecule MOL {
0 1

H	 -3.420663	 1.227371	 -1.044276
O	 -3.452007	 0.283848	 -0.965577
C	 -3.181085	 -0.079926	 0.364119
C	 -1.765924	 0.277073	 0.805136
H	 -3.327791	 -1.152017	 0.410903
H	 -3.905698	 0.375695	 1.036898
C	 -0.677594	 -0.417312	 -0.014550
H	 -1.637766	 1.358238	 0.744969
H	 -1.659588	 0.017670	 1.857098
C	 0.738335	 -0.034840	 0.421385
H	 -0.814977	 -0.178223	 -1.064632
H	 -0.802730	 -1.495410	 0.071702
C	 1.822265	 -0.738362	 -0.399735
H	 0.853533	 1.043532	 0.342250
H	 0.871597	 -0.279636	 1.474438
C	 3.150708	 0.021039	 -0.493033
H	 1.446462	 -0.927756	 -1.404024
H	 2.013454	 -1.714733	 0.040676
C	 3.075030	 1.343009	 -1.259240
H	 3.881054	 -0.621468	 -0.978904
H	 3.530289	 0.206172	 0.509887
H	 2.686479	 1.190464	 -2.262682
H	 4.059345	 1.791758	 -1.351892
H	 2.434797	 2.064607	 -0.762690

	symmetry c1
}
set optking {
	frozen_dihedral = ("
		20 16 13 17,
		13 10 7 11,
		11 7 4 3,
		1 2 3 5,
		7 4 3 2
	")
}

ee = energy('scf')
oeprop('DIPOLE', 'QUADRUPOLE', 'MULLIKEN_CHARGES')
f=open( 'psi4out.xyz', 'w' )
f.write( "24  " )
f.write( str(ee) + "\n" )
f.write( MOL.save_string_xyz() )
f.close()
--------------------------------------------------------------------------

    Molecular point group: c1

    Geometry (in Angstrom), charge = 0, multiplicity = 1:

       Center              X                  Y                   Z               Mass
    ------------   -----------------  -----------------  -----------------  -----------------
           H         -3.325783968853     1.124741906666    -0.831098098782     1.007825032070
           O         -3.357127968853     0.181218906666    -0.752399098782    15.994914619560
           C         -3.086205968853    -0.182555093334     0.577296901218    12.000000000000
           C         -1.671044968853     0.174443906666     1.018313901218    12.000000000000
           H         -3.232911968853    -1.254646093334     0.624080901218     1.007825032070
           H         -3.810818968853     0.273065906666     1.250075901218     1.007825032070
           C         -0.582714968853    -0.519941093334     0.198627901218    12.000000000000
           H         -1.542886968853     1.255608906666     0.958146901218     1.007825032070
           H         -1.564708968853    -0.084959093334     2.070275901218     1.007825032070
           C          0.833214031147    -0.137469093334     0.634562901218    12.000000000000
           H         -0.720097968853    -0.280852093334    -0.851454098782     1.007825032070
           H         -0.707850968853    -1.598039093334     0.284879901218     1.007825032070
           C          1.917144031147    -0.840991093334    -0.186557098782    12.000000000000
           H          0.948412031147     0.940902906666     0.555427901218     1.007825032070
           H          0.966476031147    -0.382265093334     1.687615901218     1.007825032070
           C          3.245587031147    -0.081590093334    -0.279855098782    12.000000000000
           H          1.541341031147    -1.030385093334    -1.190846098782     1.007825032070
           H          2.108333031147    -1.817362093334     0.253853901218     1.007825032070
           C          3.169909031147     1.240379906666    -1.046062098782    12.000000000000
           H          3.975933031147    -0.724097093334    -0.765726098782     1.007825032070
           H          3.625168031147     0.103542906666     0.723064901218     1.007825032070
           H          2.781358031147     1.087834906666    -2.049504098782     1.007825032070
           H          4.154224031147     1.689128906666    -1.138714098782     1.007825032070
           H          2.529676031147     1.961977906666    -0.549512098782     1.007825032070

  Charge       = 0
  Multiplicity = 1
  Basis Set: 6-31G*
  Basis Set:

    Orbital Energies (a.u.)
    -----------------------

    Doubly Occupied:

       1A    -20.553481     2A    -11.267568     3A    -11.217123
       4A    -11.214241     5A    -11.211648     6A    -11.211085
       7A    -11.210742     8A    -11.207589     9A     -1.360072
      10A     -1.088603    11A     -1.048113    12A     -0.985375
      13A     -0.915387    14A     -0.850343    15A     -0.800555
      16A     -0.776247    17A     -0.678881    18A     -0.654119
      19A     -0.624410    20A     -0.620068    21A     -0.599430
      22A     -0.578130    23A     -0.565486    24A     -0.536562
      25A     -0.514793    26A     -0.511653    27A     -0.496915
      28A     -0.474244    29A     -0.466951    30A     -0.458422
      31A     -0.455372    32A     -0.449919    33A     -0.418402

  @DF-RHF Final Energy:  -349.24484696565611

   => Energetics <=

    Nuclear Repulsion Energy =            386.4331516186536533
    One-Electron Energy =               -1239.3119919324694820
    Two-Electron Energy =                 503.6339933481597200
    DFT Exchange-Correlation Energy =       0.0000000000000000
    Empirical Dispersion Energy =           0.0000000000000000
    PCM Polarization Energy =               0.0000000000000000
    EFP Energy =                            0.0000000000000000
    Total Energy =                       -349.2448469656560519

  Mulliken Charges: (a.u.)
   Center  Symbol    Alpha    Beta     Spin     Total
       1     H     0.28338  0.28338  0.00000  0.43323
       2     O     4.36833  4.36833  0.00000 -0.73666
       3     C     2.99613  2.99613  0.00000  0.00774
       4     C     3.16917  3.16917  0.00000 -0.33835
       5     H     0.41636  0.41636  0.00000  0.16729
       6     H     0.42825  0.42825  0.00000  0.14350
       7     C     3.15302  3.15302  0.00000 -0.30604
       8     H     0.42837  0.42837  0.00000  0.14326
       9     H     0.42242  0.42242  0.00000  0.15516
      10     C     3.15434  3.15434  0.00000 -0.30868
      11     H     0.41185  0.41185  0.00000  0.17630
      12     H     0.42342  0.42342  0.00000  0.15316
      13     C     3.15380  3.15380  0.00000 -0.30760
      14     H     0.42293  0.42293  0.00000  0.15414
      15     H     0.42360  0.42360  0.00000  0.15280
      16     C     3.15305  3.15305  0.00000 -0.30611
      17     H     0.42233  0.42233  0.00000  0.15534
      18     H     0.42117  0.42117  0.00000  0.15767
      19     C     3.24076  3.24076  0.00000 -0.48152
      20     H     0.42118  0.42118  0.00000  0.15764
      21     H     0.42389  0.42389  0.00000  0.15222
      22     H     0.42179  0.42179  0.00000  0.15642
      23     H     0.41922  0.41922  0.00000  0.16155
      24     H     0.42123  0.42123  0.00000  0.15754

   Total alpha = 33.00000, Total beta = 33.00000, Total charge = -0.00000
