  ==> Input File <==

--------------------------------------------------------------------------
set {
	reference rhf
	basis 6-31G*
}

set_num_threads( 1 )
memory 2 gb

molecule MOL {
0 1

H	 3.463771	 0.168298	 -0.756243
C	 2.752674	 -0.045734	 0.033351
C	 1.322923	 0.120767	 -0.479465
H	 2.934561	 -1.059086	 0.377456
H	 2.958358	 0.631174	 0.856809
C	 0.306652	 -0.176050	 0.621399
H	 1.144658	 -0.551717	 -1.312180
H	 1.166477	 1.131798	 -0.836680
N	 -1.068537	 -0.011044	 0.085269
H	 0.372515	 -1.192590	 0.973735
H	 0.391664	 0.520566	 1.441230
O	 -1.787855	 -0.961439	 0.111758
O	 -1.348593	 1.057514	 -0.366148

	symmetry c1
}
set optking {
	frozen_dihedral = ("
		7 3 6 9
	")
}

ee = energy('scf')
oeprop('DIPOLE', 'QUADRUPOLE', 'MULLIKEN_CHARGES')
f=open( 'psi4out.xyz', 'w' )
f.write( "13  " )
f.write( str(ee) + "\n" )
f.write( MOL.save_string_xyz() )
f.close()
--------------------------------------------------------------------------

    Molecular point group: c1

    Geometry (in Angstrom), charge = 0, multiplicity = 1:

       Center              X                  Y                   Z               Mass
    ------------   -----------------  -----------------  -----------------  -----------------
           H          3.463925387254     0.170369367555    -0.756001012837     1.007825032070
           C          2.752828387254    -0.043662632445     0.033592987163    12.000000000000
           C          1.323077387254     0.122838367555    -0.479223012837    12.000000000000
           H          2.934715387254    -1.057014632445     0.377697987163     1.007825032070
           H          2.958512387254     0.633245367555     0.857050987163     1.007825032070
           C          0.306806387254    -0.173978632445     0.621640987163    12.000000000000
           H          1.144812387254    -0.549645632445    -1.311938012837     1.007825032070
           H          1.166631387254     1.133869367555    -0.836438012837     1.007825032070
           N         -1.068382612746    -0.008972632445     0.085510987163    14.003074004780
           H          0.372669387254    -1.190518632445     0.973976987163     1.007825032070
           H          0.391818387254     0.522637367555     1.441471987163     1.007825032070
           O         -1.787700612746    -0.959367632445     0.111999987163    15.994914619560
           O         -1.348438612746     1.059585367555    -0.365906012837    15.994914619560

  Charge       = 0
  Multiplicity = 1
  Basis Set: 6-31G*
  Basis Set:

    Orbital Energies (a.u.)
    -----------------------

    Doubly Occupied:

       1A    -20.603096     2A    -20.599463     3A    -15.847532
       4A    -11.299376     5A    -11.254151     6A    -11.238568
       7A     -1.631148     8A     -1.416788     9A     -1.134786
      10A     -1.027712    11A     -0.883643    12A     -0.831031
      13A     -0.759817    14A     -0.737952    15A     -0.724073
      16A     -0.668853    17A     -0.604588    18A     -0.586519
      19A     -0.549747    20A     -0.521356    21A     -0.512340
      22A     -0.484693    23A     -0.473336    24A     -0.448753

  @DF-RHF Final Energy:  -321.73531930525701

   => Energetics <=

    Nuclear Repulsion Energy =            247.6466733808051686
    One-Electron Energy =                -929.0853821136136048
    Two-Electron Energy =                 359.7033894275514285
    DFT Exchange-Correlation Energy =       0.0000000000000000
    Empirical Dispersion Energy =           0.0000000000000000
    PCM Polarization Energy =               0.0000000000000000
    EFP Energy =                            0.0000000000000000
    Total Energy =                       -321.7353193052570077

  Mulliken Charges: (a.u.)
   Center  Symbol    Alpha    Beta     Spin     Total
       1     H     0.40755  0.40755  0.00000  0.18489
       2     C     3.24834  3.24834  0.00000 -0.49668
       3     C     3.17275  3.17275  0.00000 -0.34550
       4     H     0.41553  0.41553  0.00000  0.16893
       5     H     0.41534  0.41534  0.00000  0.16932
       6     C     3.08661  3.08661  0.00000 -0.17322
       7     H     0.40456  0.40456  0.00000  0.19087
       8     H     0.39348  0.39348  0.00000  0.21303
       9     N     3.22212  3.22212  0.00000  0.55575
      10     H     0.38605  0.38605  0.00000  0.22790
      11     H     0.38835  0.38835  0.00000  0.22331
      12     O     4.22842  4.22842  0.00000 -0.45685
      13     O     4.23088  4.23088  0.00000 -0.46176

   Total alpha = 24.00000, Total beta = 24.00000, Total charge =  0.00000
