  ==> Input File <==

--------------------------------------------------------------------------
set {
	reference rhf
	basis cc-pvtz
}

set_num_threads( 4 )
memory 2 gb

molecule MOL {
0 1

H	 -3.262210	 0.988792	 -0.432359
C	 -2.751341	 1.871823	 -0.055329
O	 -1.392850	 1.833172	 -0.339142
H	 -3.165207	 2.745290	 -0.537677
H	 -2.934463	 1.944119	 1.015243
C	 -0.718530	 0.758693	 0.228682
C	 0.718529	 0.758687	 -0.228709
H	 -0.742799	 0.829992	 1.316017
H	 -1.184431	 -0.182163	 -0.056200
O	 1.401606	 -0.295166	 0.366636
H	 0.748705	 0.673477	 -1.312803
H	 1.176496	 1.708671	 0.046552
C	 2.714315	 -0.441627	 -0.061017
H	 2.765292	 -0.641548	 -1.128869
H	 3.305661	 0.447341	 0.150952
H	 3.143725	 -1.278506	 0.470147

	symmetry c1
}
set optking {
	frozen_dihedral = ("
		3 6 7 11
	")
}

ee = optimize('scf')
oeprop('DIPOLE', 'QUADRUPOLE', 'MULLIKEN_CHARGES')
f=open( 'psi4out.xyz', 'w' )
f.write( "16  " )
f.write( str(ee) + "\n" )
f.write( MOL.save_string_xyz() )
f.close()
--------------------------------------------------------------------------

    Molecular point group: c1
  Charge       = 0
  Multiplicity = 1
  Basis Set: CC-PVTZ
  Basis Set:
  @DF-RHF Final Energy:  -307.09903442996614
    Total Energy =                       -307.0990344299660251
    Molecular point group: c1
  Basis Set: CC-PVTZ
  Basis Set:
  Basis Set: CC-PVTZ
  Basis Set:
  @DF-RHF Final Energy:  -307.09944109830974
    Total Energy =                       -307.0994410983099101
  Basis Set: CC-PVTZ
  Basis Set:
  Basis Set: CC-PVTZ
  Basis Set:
  @DF-RHF Final Energy:  -307.09951956099371
    Total Energy =                       -307.0995195609934854
  Basis Set: CC-PVTZ
  Basis Set:
  Charge       = 0
  Multiplicity = 1
  Basis Set: CC-PVTZ
  Basis Set:

    Orbital Energies (a.u.)
    -----------------------

    Doubly Occupied:

       1A    -20.552660     2A    -20.552636     3A    -11.265964
       4A    -11.265297     5A    -11.264820     6A    -11.264815
       7A     -1.392564     8A     -1.381299     9A     -1.031867
      10A     -0.942397    11A     -0.883346    12A     -0.831801
      13A     -0.694163    14A     -0.676487    15A     -0.661802
      16A     -0.650295    17A     -0.621341    18A     -0.601382
      19A     -0.577371    20A     -0.517533    21A     -0.509449
      22A     -0.485384    23A     -0.468035    24A     -0.421524
      25A     -0.420830

  @DF-RHF Final Energy:  -307.09952213438714

   => Energetics <=

    Nuclear Repulsion Energy =            255.0716886448933565
    One-Electron Energy =                -924.4722964871082240
    Two-Electron Energy =                 362.3010857078278377
    DFT Exchange-Correlation Energy =       0.0000000000000000
    Empirical Dispersion Energy =           0.0000000000000000
    PCM Polarization Energy =               0.0000000000000000
    EFP Energy =                            0.0000000000000000
    Total Energy =                       -307.0995221343870298
    Molecular point group: c1
  Basis Set: CC-PVTZ
  Basis Set:

  -Total Gradient:
     Atom            X                  Y                   Z
    ------   -----------------  -----------------  -----------------
       1       -0.000022653423     0.000004281807    -0.000007480473
       2        0.000018300048    -0.000097530007     0.000041475884
       3        0.000053697643     0.000119656199     0.000092287818
       4        0.000073894193    -0.000004779445    -0.000006273550
       5       -0.000014964056     0.000020793320     0.000008126396
       6       -0.000102340242    -0.000109751062    -0.000138338286
       7        0.000085369496     0.000204658676     0.000073833766
       8        0.000006907309    -0.000009765195    -0.000017960096
       9        0.000008333857    -0.000014931382    -0.000001709743
      10       -0.000033348445    -0.000002695814     0.000007716860
      11       -0.000006515820    -0.000186956314     0.000004461492
      12       -0.000013734263     0.000004884029    -0.000014400460
      13       -0.000021669228     0.000072606893    -0.000074447429
      14        0.000016761663    -0.000014669597    -0.000004696847
      15        0.000021251844    -0.000003162370     0.000014650982
      16       -0.000069290572     0.000017360256     0.000022753685

  **** Optimization is complete! (in 4 steps) ****
    Final optimized geometry and variables:
    Molecular point group: c1

    Geometry (in Angstrom), charge = 0, multiplicity = 1:

    H           -3.284485645786     0.275038310398    -0.303058401734
    C           -2.726725857061     1.156988360021     0.003573062897
    O           -1.385834687564     1.057163402358    -0.345878580784
    H           -3.136168996448     2.020522492071    -0.499918803754
    H           -2.849521487578     1.285839298268     1.076560456439
    C           -0.718703491224    -0.017350568206     0.233078984995
    C            0.715730171637     0.010053575859    -0.243462636361
    H           -0.742940323429     0.049393754466     1.318496762785
    H           -1.180327658837    -0.960551478884    -0.050755323517
    O            1.387763548941    -1.052160578906     0.352370832682
    H            0.742228026196    -0.073734030839    -1.327718234415
    H            1.171628682127     0.959831710608     0.027033607676
    C            2.727711660411    -1.154700755824     0.000113943132
    H            2.847237442533    -1.304725172147    -1.070478143065
    H            3.283554392000    -0.264905979658     0.286967971459
    H            3.141848154785    -2.006461416420     0.519569167973

  Mulliken Charges: (a.u.)
   Center  Symbol    Alpha    Beta     Spin     Total
       1     H     0.47069  0.47069  0.00000  0.05861
       2     C     3.03171  3.03171  0.00000 -0.06341
       3     O     4.17528  4.17528  0.00000 -0.35056
       4     H     0.44690  0.44690  0.00000  0.10620
       5     H     0.47071  0.47071  0.00000  0.05858
       6     C     2.96359  2.96359  0.00000  0.07282
       7     C     2.96360  2.96360  0.00000  0.07280
       8     H     0.47053  0.47053  0.00000  0.05895
       9     H     0.47059  0.47059  0.00000  0.05881
      10     O     4.17529  4.17529  0.00000 -0.35059
      11     H     0.47064  0.47064  0.00000  0.05873
      12     H     0.47045  0.47045  0.00000  0.05910
      13     C     3.03170  3.03170  0.00000 -0.06340
      14     H     0.47071  0.47071  0.00000  0.05858
      15     H     0.47071  0.47071  0.00000  0.05857
      16     H     0.44690  0.44690  0.00000  0.10620

   Total alpha = 25.00000, Total beta = 25.00000, Total charge = -0.00000
