  ==> Input File <==

--------------------------------------------------------------------------
set {
	reference rhf
	basis 6-31G*
}

set_num_threads( 1 )
memory 2 gb

molecule MOL {
0 1

O	 0.749854	 1.307668	 -0.000040
C	 0.576249	 0.131685	 -0.000108
C	 -0.766779	 -0.556801	 -0.000461
O	 1.568443	 -0.749345	 -0.000005
C	 -1.945214	 0.412366	 0.000161
H	 -0.796911	 -1.211249	 -0.867467
H	 -0.796854	 -1.212390	 0.865687
C	 -3.287791	 -0.317055	 0.000105
H	 -1.876087	 1.060580	 -0.866812
H	 -1.875822	 1.059691	 0.867761
H	 -3.394745	 -0.949193	 -0.877058
H	 -4.111778	 0.388953	 0.000015
H	 -3.394954	 -0.949187	 0.877259
C	 2.468062	 -0.704260	 -1.092644
H	 1.946533	 -0.883514	 -2.021847
H	 3.190316	 -1.485135	 -0.912503
H	 2.959609	 0.256766	 -1.140817

	symmetry c1
}
set optking {
	frozen_dihedral = ("
		1 2 3 6,
		9 5 3 6
	")
}

ee = energy('scf')
oeprop('DIPOLE', 'QUADRUPOLE', 'MULLIKEN_CHARGES')
f=open( 'psi4out.xyz', 'w' )
f.write( "17  " )
f.write( str(ee) + "\n" )
f.write( MOL.save_string_xyz() )
f.close()
--------------------------------------------------------------------------

    Molecular point group: c1

    Geometry (in Angstrom), charge = 0, multiplicity = 1:

       Center              X                  Y                   Z               Mass
    ------------   -----------------  -----------------  -----------------  -----------------
           O          0.814508746957     1.380500172880     0.168707751210    15.994914619560
           C          0.640903746957     0.204517172880     0.168639751210    12.000000000000
           C         -0.702124253043    -0.483968827120     0.168286751210    12.000000000000
           O          1.633097746957    -0.676512827120     0.168742751210    15.994914619560
           C         -1.880559253043     0.485198172880     0.168908751210    12.000000000000
           H         -0.732256253043    -1.138416827120    -0.698719248790     1.007825032070
           H         -0.732199253043    -1.139557827120     1.034434751210     1.007825032070
           C         -3.223136253043    -0.244222827120     0.168852751210    12.000000000000
           H         -1.811432253043     1.133412172880    -0.698064248790     1.007825032070
           H         -1.811167253043     1.132523172880     1.036508751210     1.007825032070
           H         -3.330090253043    -0.876360827120    -0.708310248790     1.007825032070
           H         -4.047123253043     0.461785172880     0.168762751210     1.007825032070
           H         -3.330299253043    -0.876354827120     1.046006751210     1.007825032070
           C          2.532716746957    -0.631427827120    -0.923896248790    12.000000000000
           H          2.011187746957    -0.810681827120    -1.853099248790     1.007825032070
           H          3.254970746957    -1.412302827120    -0.743755248790     1.007825032070
           H          3.024263746957     0.329598172880    -0.972069248790     1.007825032070

  Charge       = 0
  Multiplicity = 1
  Basis Set: 6-31G*
  Basis Set:

    Orbital Energies (a.u.)
    -----------------------

    Doubly Occupied:

       1A    -20.590723     2A    -20.552232     3A    -11.373687
       4A    -11.289927     5A    -11.236690     6A    -11.222014
       7A    -11.215041     8A     -1.465731     9A     -1.365311
      10A     -1.080052    11A     -0.998554    12A     -0.947049
      13A     -0.830392    14A     -0.768088    15A     -0.699564
      16A     -0.681020    17A     -0.673728    18A     -0.634701
      19A     -0.610457    20A     -0.576789    21A     -0.566447
      22A     -0.536686    23A     -0.518461    24A     -0.494885
      25A     -0.489387    26A     -0.479626    27A     -0.453796
      28A     -0.434573

  @DF-RHF Final Energy:  -344.89175252487695

   => Energetics <=

    Nuclear Repulsion Energy =            312.8369757241985667
    One-Electron Energy =               -1089.8862596739356832
    Two-Electron Energy =                 432.1575314248610766
    DFT Exchange-Correlation Energy =       0.0000000000000000
    Empirical Dispersion Energy =           0.0000000000000000
    PCM Polarization Energy =               0.0000000000000000
    EFP Energy =                            0.0000000000000000
    Total Energy =                       -344.8917525248760967

  Mulliken Charges: (a.u.)
   Center  Symbol    Alpha    Beta     Spin     Total
       1     O     4.26851  4.26851  0.00000 -0.53701
       2     C     2.60947  2.60947  0.00000  0.78106
       3     C     3.20826  3.20826  0.00000 -0.41653
       4     O     4.31078  4.31078  0.00000 -0.62155
       5     C     3.15296  3.15296  0.00000 -0.30592
       6     H     0.40626  0.40626  0.00000  0.18748
       7     H     0.39930  0.39930  0.00000  0.20140
       8     C     3.24252  3.24252  0.00000 -0.48504
       9     H     0.41212  0.41212  0.00000  0.17575
      10     H     0.40998  0.40998  0.00000  0.18004
      11     H     0.42222  0.42222  0.00000  0.15556
      12     H     0.41516  0.41516  0.00000  0.16969
      13     H     0.42103  0.42103  0.00000  0.15795
      14     C     3.09457  3.09457  0.00000 -0.18914
      15     H     0.41939  0.41939  0.00000  0.16122
      16     H     0.40422  0.40422  0.00000  0.19155
      17     H     0.40326  0.40326  0.00000  0.19349

   Total alpha = 28.00000, Total beta = 28.00000, Total charge = -0.00000
