  ==> Input File <==

--------------------------------------------------------------------------
set {
	reference rhf
	basis cc-pvtz
}

set_num_threads( 4 )
memory 2 gb

molecule MOL {
0 1

H	 3.273419	 0.176595	 -0.102789
N	 2.433987	 -0.362316	 -0.080024
C	 1.263552	 0.494993	 0.021953
H	 2.497638	 -0.973615	 0.707122
C	 -0.016533	 -0.325589	 -0.026925
H	 1.280915	 1.180773	 -0.818522
H	 1.263064	 1.106893	 0.925038
C	 -1.280353	 0.525521	 0.047747
H	 -0.016686	 -0.912532	 -0.939714
H	 -0.014099	 -1.037598	 0.796369
C	 -0.992091	 2.000014	 0.309981
H	 -1.925855	 0.141270	 0.833013
H	 -1.838668	 0.428457	 -0.879473
H	 -0.463555	 2.134002	 1.247758
H	 -1.908531	 2.576606	 0.361251
H	 -0.377936	 2.424516	 -0.477289

	symmetry c1
}
set optking {
	frozen_dihedral = ("
		12 8 5 9
	")
}

ee = optimize('scf')
oeprop('DIPOLE', 'QUADRUPOLE', 'MULLIKEN_CHARGES')
f=open( 'psi4out.xyz', 'w' )
f.write( "16  " )
f.write( str(ee) + "\n" )
f.write( MOL.save_string_xyz() )
f.close()
--------------------------------------------------------------------------

    Molecular point group: c1
  Charge       = 0
  Multiplicity = 1
  Basis Set: CC-PVTZ
  Basis Set:
  @DF-RHF Final Energy:  -212.38597709717686
    Total Energy =                       -212.3859770971768626
    Molecular point group: c1
  Basis Set: CC-PVTZ
  Basis Set:
  Basis Set: CC-PVTZ
  Basis Set:
  @DF-RHF Final Energy:  -212.38649991028564
    Total Energy =                       -212.3864999102856359
  Basis Set: CC-PVTZ
  Basis Set:
  Basis Set: CC-PVTZ
  Basis Set:
  @DF-RHF Final Energy:  -212.38984159683824
    Total Energy =                       -212.3898415968382096
  Basis Set: CC-PVTZ
  Basis Set:
  Basis Set: CC-PVTZ
  Basis Set:
  @DF-RHF Final Energy:  -212.39029927699187
    Total Energy =                       -212.3902992769918114
  Basis Set: CC-PVTZ
  Basis Set:
  Basis Set: CC-PVTZ
  Basis Set:
  @DF-RHF Final Energy:  -212.39034109065111
    Total Energy =                       -212.3903410906511908
  Basis Set: CC-PVTZ
  Basis Set:
  Basis Set: CC-PVTZ
  Basis Set:
  @DF-RHF Final Energy:  -212.39035510517152
    Total Energy =                       -212.3903551051714089
  Basis Set: CC-PVTZ
  Basis Set:
  Charge       = 0
  Multiplicity = 1
  Basis Set: CC-PVTZ
  Basis Set:

    Orbital Energies (a.u.)
    -----------------------

    Doubly Occupied:

       1A    -15.525956     2A    -11.237298     3A    -11.213678
       4A    -11.208359     5A    -11.206528     6A     -1.177843
       7A     -1.054601     8A     -0.955117     9A     -0.864318
      10A     -0.773669    11A     -0.660717    12A     -0.639413
      13A     -0.616540    14A     -0.576565    15A     -0.547204
      16A     -0.533784    17A     -0.516562    18A     -0.466966
      19A     -0.461837    20A     -0.449860    21A     -0.383237

  @DF-RHF Final Energy:  -212.39036454976366

   => Energetics <=

    Nuclear Repulsion Energy =            189.1524339130061207
    One-Electron Energy =                -660.9454897090604391
    Two-Electron Energy =                 259.4026912462908854
    DFT Exchange-Correlation Energy =       0.0000000000000000
    Empirical Dispersion Energy =           0.0000000000000000
    PCM Polarization Energy =               0.0000000000000000
    EFP Energy =                            0.0000000000000000
    Total Energy =                       -212.3903645497634329
    Molecular point group: c1
  Basis Set: CC-PVTZ
  Basis Set:

  -Total Gradient:
     Atom            X                  Y                   Z
    ------   -----------------  -----------------  -----------------
       1       -0.000001246948     0.000001430348    -0.000000215992
       2        0.000013445143    -0.000021949489     0.000008752939
       3       -0.000006495532     0.000019713598    -0.000025373820
       4        0.000012075026    -0.000008237227     0.000003110785
       5       -0.001009046454    -0.001630916238     0.001555629696
       6       -0.000000817926     0.000003610023     0.000004659290
       7       -0.000015163773     0.000004475184     0.000003320987
       8       -0.000872308243    -0.001223733400    -0.001919614267
       9        0.000961254456     0.001581407055    -0.001011073023
      10       -0.000010539188    -0.000000043049     0.000008612172
      11        0.000008746646    -0.000003928489    -0.000008480559
      12        0.000908143876     0.001274415140     0.001384416671
      13        0.000005193652    -0.000004567548    -0.000011101676
      14        0.000009037721     0.000003448258     0.000000841295
      15        0.000002430949    -0.000001754708     0.000004777135
      16       -0.000004709409     0.000006630542     0.000001738366

  **** Optimization is complete! (in 7 steps) ****
    Final optimized geometry and variables:
    Molecular point group: c1

    Geometry (in Angstrom), charge = 0, multiplicity = 1:

    H            3.003969835838    -0.448361399943    -0.191903267391
    N            2.130241621345    -0.930114660033    -0.175220614827
    C            1.021693811416     0.003615136607    -0.041832611317
    H            2.158029065240    -1.562910763213     0.597040122352
    C           -0.299400633487    -0.758535236997    -0.071885706630
    H            1.071339523945     0.690026089702    -0.878990509417
    H            1.088023425252     0.604363432995     0.863266250317
    C           -1.599164371719     0.084516856687    -0.008672135822
    H           -0.294302560779    -1.345527938591    -0.982072388194
    H           -0.292651567005    -1.469221317858     0.749413500601
    C           -1.448210861971     1.585406164400     0.247820532625
    H           -2.232870487899    -0.313456040748     0.776108349635
    H           -2.147796344215    -0.045594234847    -0.934396074186
    H           -0.976842817425     1.788766232304     1.202159514136
    H           -2.425547433236     2.054268968180     0.262693202975
    H           -0.865320169383     2.076202826408    -0.522216564905

  Mulliken Charges: (a.u.)
   Center  Symbol    Alpha    Beta     Spin     Total
       1     H     0.43016  0.43016  0.00000  0.13968
       2     N     3.69082  3.69082  0.00000 -0.38163
       3     C     3.02687  3.02687  0.00000 -0.05375
       4     H     0.43084  0.43084  0.00000  0.13833
       5     C     3.09273  3.09273  0.00000 -0.18547
       6     H     0.45516  0.45516  0.00000  0.08968
       7     H     0.46564  0.46564  0.00000  0.06873
       8     C     3.09039  3.09039  0.00000 -0.18077
       9     H     0.44642  0.44642  0.00000  0.10717
      10     H     0.45774  0.45774  0.00000  0.08452
      11     C     3.15923  3.15923  0.00000 -0.31846
      12     H     0.45214  0.45214  0.00000  0.09572
      13     H     0.45040  0.45040  0.00000  0.09919
      14     H     0.45389  0.45389  0.00000  0.09223
      15     H     0.44440  0.44440  0.00000  0.11119
      16     H     0.45318  0.45318  0.00000  0.09364

   Total alpha = 21.00000, Total beta = 21.00000, Total charge =  0.00000
