  ==> Input File <==

--------------------------------------------------------------------------
set {
	reference rhf
	basis cc-pvtz
}

set_num_threads( 4 )
memory 2 gb

molecule MOL {
0 1

H	 -3.642953	 0.223825	 0.000000
C	 -2.571844	 0.155001	 0.000000
C	 -1.957580	 -1.086132	 0.000000
C	 -1.807160	 1.303787	 0.000000
H	 -2.551493	 -1.979629	 0.000000
C	 -0.582719	 -1.174294	 0.000000
H	 -2.279934	 2.266806	 0.000000
C	 -0.427220	 1.213406	 0.000000
H	 -0.094904	 -2.127556	 0.000000
C	 0.196908	 -0.024061	 0.000000
H	 0.151409	 2.115254	 0.000000
C	 1.690041	 -0.173233	 0.000000
C	 2.486486	 0.411033	 -1.144101
O	 2.240160	 -0.743209	 0.887614
H	 2.182026	 -0.027548	 -2.086932
H	 3.531590	 0.207622	 -0.973478
H	 2.332785	 1.481468	 -1.211364

	symmetry c1
}
set optking {
	frozen_dihedral = ("
		13 12 10 8
	")
}

ee = optimize('scf')
oeprop('DIPOLE', 'QUADRUPOLE', 'MULLIKEN_CHARGES')
f=open( 'psi4out.xyz', 'w' )
f.write( "17  " )
f.write( str(ee) + "\n" )
f.write( MOL.save_string_xyz() )
f.close()
--------------------------------------------------------------------------

    Molecular point group: c1
  Charge       = 0
  Multiplicity = 1
  Basis Set: CC-PVTZ
  Basis Set:
  @DF-RHF Final Energy:  -382.59917684041204
    Total Energy =                       -382.5991768404119284
    Molecular point group: c1
  Basis Set: CC-PVTZ
  Basis Set:
  Basis Set: CC-PVTZ
  Basis Set:
  @DF-RHF Final Energy:  -382.59836695674250
    Total Energy =                       -382.5983669567424386
  Basis Set: CC-PVTZ
  Basis Set:
  Basis Set: CC-PVTZ
  Basis Set:
  @DF-RHF Final Energy:  -382.59994865442081
    Total Energy =                       -382.5999486544205865
  Basis Set: CC-PVTZ
  Basis Set:
  Basis Set: CC-PVTZ
  Basis Set:
  @DF-RHF Final Energy:  -382.60011004155501
    Total Energy =                       -382.6001100415548990
  Basis Set: CC-PVTZ
  Basis Set:
  Basis Set: CC-PVTZ
  Basis Set:
  @DF-RHF Final Energy:  -382.60012352632100
    Total Energy =                       -382.6001235263207718
  Basis Set: CC-PVTZ
  Basis Set:
  Basis Set: CC-PVTZ
  Basis Set:
  @DF-RHF Final Energy:  -382.60013401344042
    Total Energy =                       -382.6001340134404245
  Basis Set: CC-PVTZ
  Basis Set:
  Charge       = 0
  Multiplicity = 1
  Basis Set: CC-PVTZ
  Basis Set:

    Orbital Energies (a.u.)
    -----------------------

    Doubly Occupied:

       1A    -20.545441     2A    -11.329605     3A    -11.245629
       4A    -11.243922     5A    -11.240490     6A    -11.240179
       7A    -11.238989     8A    -11.237715     9A    -11.230698
      10A     -1.405785    11A     -1.171172    12A     -1.053698
      13A     -1.030137    14A     -1.000899    15A     -0.863136
      16A     -0.840921    17A     -0.764872    18A     -0.708318
      19A     -0.664182    20A     -0.650180    21A     -0.627884
      22A     -0.623293    23A     -0.603050    24A     -0.592389
      25A     -0.562596    26A     -0.529115    27A     -0.517444
      28A     -0.507587    29A     -0.496676    30A     -0.414121
      31A     -0.349097    32A     -0.346914

  @DF-RHF Final Energy:  -382.60013442242831

   => Energetics <=

    Nuclear Repulsion Energy =            403.9227292776858462
    One-Electron Energy =               -1319.2934591798577912
    Two-Electron Energy =                 532.7705954797432923
    DFT Exchange-Correlation Energy =       0.0000000000000000
    Empirical Dispersion Energy =           0.0000000000000000
    PCM Polarization Energy =               0.0000000000000000
    EFP Energy =                            0.0000000000000000
    Total Energy =                       -382.6001344224285958
    Molecular point group: c1
  Basis Set: CC-PVTZ
  Basis Set:

  -Total Gradient:
     Atom            X                  Y                   Z
    ------   -----------------  -----------------  -----------------
       1       -0.000000868508     0.000003127042    -0.000002666935
       2       -0.000009251110    -0.000062941441    -0.000024885915
       3       -0.000057600612     0.000029000657    -0.000008524489
       4        0.000065601444     0.000031524994     0.000059631178
       5        0.000002122928    -0.000001022043     0.000004376038
       6        0.000048831282     0.000040252595     0.000015440973
       7       -0.000004098137    -0.000000135900    -0.000007388857
       8       -0.000187415539    -0.000046242939     0.003795793695
       9        0.000003306634    -0.000005422764    -0.000007774596
      10        0.000049226742    -0.001276306128    -0.006506905110
      11       -0.000005488632     0.000002298152     0.000007210822
      12        0.000325153549     0.004152211265     0.004491029231
      13       -0.000244727405    -0.002902534905    -0.001767940386
      14       -0.000019088221     0.000031395613    -0.000041369351
      15        0.000007951296     0.000004215719     0.000008315653
      16        0.000023783095     0.000005727578    -0.000018574797
      17        0.000002561193    -0.000005147495     0.000004232844

  **** Optimization is complete! (in 7 steps) ****
    Final optimized geometry and variables:
    Molecular point group: c1

    Geometry (in Angstrom), charge = 0, multiplicity = 1:

    H           -3.634464124136     0.270517804298     0.062465956990
    C           -2.564311334688     0.192113558765     0.046980446960
    C           -1.960900000407    -1.052415560173     0.044883660675
    C           -1.787496424399     1.334057458845     0.037457519337
    H           -2.561733585182    -1.941319954013     0.060659792789
    C           -0.584349524042    -1.153869560145     0.039296831045
    H           -2.251333865583     2.301475456100     0.055192420671
    C           -0.409281778471     1.232576785837     0.005725977097
    H           -0.112125889324    -2.116376454149     0.070145958945
    C            0.198750219627    -0.011219533994    -0.001379931339
    H            0.185829451441     2.126068165889    -0.002158376414
    C            1.695503346388    -0.152468175031     0.043926508565
    C            2.488154100410     0.473675080915    -1.077860154288
    O            2.216261859052    -0.804333488584     0.888288978473
    H            2.223706197968    -0.022922909534    -2.005208275445
    H            3.544252633702     0.356344416014    -0.888885500370
    H            2.246935386424     1.522524576303    -1.198590605844

  Mulliken Charges: (a.u.)
   Center  Symbol    Alpha    Beta     Spin     Total
       1     H     0.42119  0.42119  0.00000  0.15762
       2     C     3.08112  3.08112  0.00000 -0.16224
       3     C     3.06549  3.06549  0.00000 -0.13097
       4     C     3.06743  3.06743  0.00000 -0.13486
       5     H     0.42120  0.42120  0.00000  0.15760
       6     C     3.08619  3.08619  0.00000 -0.17239
       7     H     0.42176  0.42176  0.00000  0.15648
       8     C     3.09563  3.09563  0.00000 -0.19127
       9     H     0.41684  0.41684  0.00000  0.16632
      10     C     2.97284  2.97284  0.00000  0.05433
      11     H     0.42374  0.42374  0.00000  0.15253
      12     C     2.87429  2.87429  0.00000  0.25142
      13     C     3.15053  3.15053  0.00000 -0.30106
      14     O     4.16868  4.16868  0.00000 -0.33736
      15     H     0.44589  0.44589  0.00000  0.10822
      16     H     0.43631  0.43631  0.00000  0.12737
      17     H     0.45087  0.45087  0.00000  0.09827

   Total alpha = 32.00000, Total beta = 32.00000, Total charge = -0.00000
