  ==> Input File <==

--------------------------------------------------------------------------
set {
	reference rhf
	basis 6-31G*
}

set_num_threads( 4 )
memory 2 gb

molecule MOL {
0 1

H	 -1.070890	 -1.366565	 0.180696
O	 -1.422729	 -0.573567	 -0.196946
C	 -0.731407	 0.539437	 0.309156
C	 0.680193	 0.672443	 -0.251532
H	 -1.319765	 1.404033	 0.030086
H	 -0.700012	 0.506517	 1.397677
C	 1.150954	 2.120517	 -0.389988
H	 1.361789	 0.126639	 0.394355
H	 0.707129	 0.187677	 -1.225091
H	 1.205667	 2.613845	 0.575842
H	 2.141427	 2.167927	 -0.830082
H	 0.481012	 2.694845	 -1.025275

	symmetry c1
}
set optking {
	frozen_dihedral = ("
		8 4 3 2
	")
}

ee = optimize('scf')
oeprop('DIPOLE', 'QUADRUPOLE', 'MULLIKEN_CHARGES')
f=open( 'psi4out.xyz', 'w' )
f.write( "12  " )
f.write( str(ee) + "\n" )
f.write( MOL.save_string_xyz() )
f.close()
--------------------------------------------------------------------------

    Molecular point group: c1
  Charge       = 0
  Multiplicity = 1
  Basis Set: 6-31G*
  Basis Set:
  @DF-RHF Final Energy:  -193.10677913145307
    Total Energy =                       -193.1067791314530382
    Molecular point group: c1
  Basis Set: 6-31G*
  Basis Set:
  Basis Set: 6-31G*
  Basis Set:
  @DF-RHF Final Energy:  -193.10726924150239
    Total Energy =                       -193.1072692415024790
  Basis Set: 6-31G*
  Basis Set:
  Basis Set: 6-31G*
  Basis Set:
  @DF-RHF Final Energy:  -193.10733362759095
    Total Energy =                       -193.1073336275909469
  Basis Set: 6-31G*
  Basis Set:
  Basis Set: 6-31G*
  Basis Set:
  @DF-RHF Final Energy:  -193.10733720855356
    Total Energy =                       -193.1073372085535880
  Basis Set: 6-31G*
  Basis Set:
  Charge       = 0
  Multiplicity = 1
  Basis Set: 6-31G*
  Basis Set:

    Orbital Energies (a.u.)
    -----------------------

    Doubly Occupied:

       1A    -20.552812     2A    -11.267422     3A    -11.218691
       4A    -11.215482     5A     -1.359081     6A     -1.051794
       7A     -0.916997     8A     -0.818956     9A     -0.691863
      10A     -0.631484    11A     -0.602938    12A     -0.587166
      13A     -0.537229    14A     -0.505461    15A     -0.494765
      16A     -0.467743    17A     -0.428636

  @DF-RHF Final Energy:  -193.10733766687150

   => Energetics <=

    Nuclear Repulsion Energy =            130.8316013345559554
    One-Electron Energy =                -521.1808320967411419
    Two-Electron Energy =                 197.2418930953136282
    DFT Exchange-Correlation Energy =       0.0000000000000000
    Empirical Dispersion Energy =           0.0000000000000000
    PCM Polarization Energy =               0.0000000000000000
    EFP Energy =                            0.0000000000000000
    Total Energy =                       -193.1073376668715582
    Molecular point group: c1
  Basis Set: 6-31G*
  Basis Set:

  -Total Gradient:
     Atom            X                  Y                   Z
    ------   -----------------  -----------------  -----------------
       1        0.000015457474     0.000010840314     0.000008402458
       2       -0.001464263269     0.002196316747    -0.002960005884
       3        0.002151919199    -0.001927655124     0.004683872707
       4       -0.001485683513    -0.004384493058    -0.004348245718
       5       -0.000024287816    -0.000029721316    -0.000011429125
       6       -0.000019871121    -0.000019285139     0.000000322882
       7        0.000029462137    -0.000021085745    -0.000009534771
       8        0.000791943261     0.004182923564     0.002616044782
       9        0.000014249966    -0.000003078906     0.000000162311
      10        0.000006944773    -0.000006894998     0.000020924163
      11       -0.000005560891     0.000015331266    -0.000007216853
      12       -0.000010310200    -0.000013197599     0.000006703048

  **** Optimization is complete! (in 5 steps) ****
    Final optimized geometry and variables:
    Molecular point group: c1

    Geometry (in Angstrom), charge = 0, multiplicity = 1:

    H           -0.905655090404    -2.012828400794     0.268571071903
    O           -1.326309541252    -1.218082048354    -0.029534739939
    C           -0.611159811565    -0.103106025431     0.437675277314
    C            0.794606239777     0.005332824084    -0.160387153333
    H           -1.202926808428     0.752621351545     0.136965521196
    H           -0.567464328713    -0.095431286367     1.525028344318
    C            1.266704216267     1.457315564890    -0.268869084115
    H            1.506285159828    -0.529473696833     0.465544366162
    H            0.788994215242    -0.458938772993    -1.140644177086
    H            1.251127019359     1.949880968993     0.699885123699
    H            2.282105632425     1.511432380150    -0.647318559897
    H            0.630333810111     2.026745493122    -0.939537999988

  Mulliken Charges: (a.u.)
   Center  Symbol    Alpha    Beta     Spin     Total
       1     H     0.28351  0.28351  0.00000  0.43297
       2     O     4.36992  4.36992  0.00000 -0.73984
       3     C     2.99094  2.99094  0.00000  0.01811
       4     C     3.17266  3.17266  0.00000 -0.34532
       5     H     0.41629  0.41629  0.00000  0.16741
       6     H     0.42987  0.42987  0.00000  0.14026
       7     C     3.24610  3.24610  0.00000 -0.49220
       8     H     0.42422  0.42422  0.00000  0.15156
       9     H     0.41067  0.41067  0.00000  0.17866
      10     H     0.42125  0.42125  0.00000  0.15751
      11     H     0.41683  0.41683  0.00000  0.16633
      12     H     0.41773  0.41773  0.00000  0.16455

   Total alpha = 17.00000, Total beta = 17.00000, Total charge = -0.00000
