  ==> Input File <==

--------------------------------------------------------------------------
set {
	reference rhf
	basis cc-pvtz
}

set_num_threads( 4 )
memory 2 gb

molecule MOL {
0 1

H	 2.394634	 3.083407	 -0.000000
O	 1.455199	 3.053633	 -0.000000
C	 1.005316	 1.783564	 -0.000000
C	 1.863057	 0.694086	 -0.000000
C	 -0.360272	 1.585598	 -0.000000
H	 2.926580	 0.850125	 -0.000000
C	 1.354245	 -0.588905	 -0.000000
H	 -1.025338	 2.424961	 -0.000000
C	 -0.861704	 0.296439	 0.000000
H	 2.027461	 -1.424131	 0.000000
C	 -0.010572	 -0.795531	 0.000000
C	 -2.330689	 0.069587	 0.000000
H	 -0.409159	 -1.792033	 0.000000
O	 -2.848621	 -0.993976	 0.000000
H	 -2.934306	 0.982410	 0.000000

	symmetry c1
}
set optking {
	frozen_dihedral = ("
		11 9 12 14
	")
}

ee = optimize('scf')
oeprop('DIPOLE', 'QUADRUPOLE', 'MULLIKEN_CHARGES')
f=open( 'psi4out.xyz', 'w' )
f.write( "15  " )
f.write( str(ee) + "\n" )
f.write( MOL.save_string_xyz() )
f.close()
--------------------------------------------------------------------------

    Molecular point group: c1
  Charge       = 0
  Multiplicity = 1
  Basis Set: CC-PVTZ
  Basis Set:
  @DF-RHF Final Energy:  -418.43882871394129
    Total Energy =                       -418.4388287139415752
    Molecular point group: c1
  Basis Set: CC-PVTZ
  Basis Set:
  Basis Set: CC-PVTZ
  Basis Set:
  @DF-RHF Final Energy:  -418.43911347536437
    Total Energy =                       -418.4391134753639108
  Basis Set: CC-PVTZ
  Basis Set:
  Basis Set: CC-PVTZ
  Basis Set:
  @DF-RHF Final Energy:  -418.43914232323959
    Total Energy =                       -418.4391423232393663
  Basis Set: CC-PVTZ
  Basis Set:
  Charge       = 0
  Multiplicity = 1
  Basis Set: CC-PVTZ
  Basis Set:

    Orbital Energies (a.u.)
    -----------------------

    Doubly Occupied:

       1A    -20.598657     2A    -20.554829     3A    -11.327858
       4A    -11.313483     5A    -11.251143     6A    -11.248973
       7A    -11.246400     8A    -11.244993     9A    -11.236225
      10A     -1.429991    11A     -1.410513    12A     -1.174114
      13A     -1.054254    14A     -1.028518    15A     -0.904445
      16A     -0.849899    17A     -0.817607    18A     -0.741806
      19A     -0.705340    20A     -0.679319    21A     -0.664945
      22A     -0.632881    23A     -0.613502    24A     -0.611450
      25A     -0.582345    26A     -0.557456    27A     -0.540528
      28A     -0.519587    29A     -0.491910    30A     -0.426826
      31A     -0.360841    32A     -0.329498

  @DF-RHF Final Energy:  -418.43914822424153

   => Energetics <=

    Nuclear Repulsion Energy =            403.2685143345997858
    One-Electron Energy =               -1369.1150514586061036
    Two-Electron Energy =                 547.4073888997646691
    DFT Exchange-Correlation Energy =       0.0000000000000000
    Empirical Dispersion Energy =           0.0000000000000000
    PCM Polarization Energy =               0.0000000000000000
    EFP Energy =                            0.0000000000000000
    Total Energy =                       -418.4391482242416487
    Molecular point group: c1
  Basis Set: CC-PVTZ
  Basis Set:

  -Total Gradient:
     Atom            X                  Y                   Z
    ------   -----------------  -----------------  -----------------
       1        0.000016111334     0.000013560770     0.000000000000
       2        0.000039363314    -0.000029951287     0.000000000000
       3       -0.000270237447     0.000168485944     0.000000000000
       4        0.000041732397    -0.000303681072     0.000000000000
       5        0.000090238279     0.000172738150    -0.000000000001
       6        0.000001986878    -0.000006750513     0.000000000000
       7        0.000168770083     0.000272901326     0.000000000000
       8        0.000032210482     0.000002943684    -0.000000000000
       9        0.000062914791    -0.000453939496    -0.000000000007
      10       -0.000008103101    -0.000026510552     0.000000000000
      11       -0.000141787886     0.000179117457    -0.000000000003
      12       -0.000001605241     0.000127820398     0.000000000037
      13       -0.000028460558    -0.000033322367    -0.000000000000
      14       -0.000069577353    -0.000050520411    -0.000000000013
      15        0.000066444031    -0.000032892029    -0.000000000014

  **** Optimization is complete! (in 4 steps) ****
    Final optimized geometry and variables:
    Molecular point group: c1

    Geometry (in Angstrom), charge = 0, multiplicity = 1:

    H            2.474434937051     2.494523860157    -0.000000000025
    O            1.535163821218     2.453301262801    -0.000000000009
    C            1.103279572309     1.176425586793    -0.000000000008
    C            1.961050656747     0.095659243105    -0.000000000029
    C           -0.265872778307     0.963848217143     0.000000000017
    H            3.024257270787     0.254128656753    -0.000000000046
    C            1.452875066652    -1.194745037391    -0.000000000031
    H           -0.923619245907     1.811906861108     0.000000000031
    C           -0.762178817321    -0.323283189036     0.000000000029
    H            2.132454166291    -2.025063954486    -0.000000000051
    C            0.095899809428    -1.415107478758    -0.000000000008
    C           -2.235684767106    -0.519854432362     0.000000000041
    H           -0.309815669661    -2.406147448203    -0.000000000010
    O           -2.772835027149    -1.573852224252     0.000000000021
    H           -2.821673711481     0.404447857365    -0.000000000200

  Mulliken Charges: (a.u.)
   Center  Symbol    Alpha    Beta     Spin     Total
       1     H     0.38626  0.38626  0.00000  0.22749
       2     O     4.17228  4.17228  0.00000 -0.34456
       3     C     2.84240  2.84240  0.00000  0.31520
       4     C     3.12877  3.12877  0.00000 -0.25754
       5     C     3.12696  3.12696  0.00000 -0.25393
       6     H     0.43127  0.43127  0.00000  0.13746
       7     C     3.06133  3.06133  0.00000 -0.12266
       8     H     0.41844  0.41844  0.00000  0.16312
       9     C     2.96809  2.96809  0.00000  0.06383
      10     H     0.41855  0.41855  0.00000  0.16289
      11     C     3.10184  3.10184  0.00000 -0.20368
      12     C     2.90850  2.90850  0.00000  0.18300
      13     H     0.40934  0.40934  0.00000  0.18132
      14     O     4.16947  4.16947  0.00000 -0.33893
      15     H     0.45650  0.45650  0.00000  0.08700

   Total alpha = 32.00000, Total beta = 32.00000, Total charge = -0.00000
