  ==> Input File <==

--------------------------------------------------------------------------
set {
	reference rhf
	basis 6-31G*
}

set_num_threads( 1 )
memory 2 gb

molecule MOL {
0 1

O	 2.862325	 1.357334	 0.000267
C	 2.843464	 0.164689	 -0.000222
C	 1.546494	 -0.624492	 -0.000609
C	 4.124123	 -0.644674	 -0.000428
C	 0.291004	 0.242674	 0.000989
H	 1.557904	 -1.283758	 -0.867573
H	 1.558622	 -1.285963	 0.864672
C	 -0.924417	 -0.486454	 0.576218
H	 0.081192	 0.566711	 -1.013461
H	 0.483412	 1.146185	 0.570896
C	 -2.189673	 0.373098	 0.581593
H	 -1.109588	 -1.393244	 0.002205
H	 -0.706601	 -0.810059	 1.593028
C	 -3.409871	 -0.349305	 1.155409
H	 -2.408769	 0.696574	 -0.434467
H	 -2.006008	 1.279456	 1.155856
C	 -4.669842	 0.515653	 1.157210
H	 -3.595176	 -1.254868	 0.581438
H	 -3.192609	 -0.671817	 2.171599
H	 -4.933229	 0.826613	 0.150194
H	 -5.517285	 -0.023834	 1.568907
H	 -4.528228	 1.413229	 1.752564
H	 4.165367	 -1.288615	 -0.874074
H	 4.976217	 0.020734	 -0.001915
H	 4.166763	 -1.286207	 0.874930

	symmetry c1
}
set optking {
	frozen_dihedral = ("
		9 5 8 12,
		15 11 8 12,
		15 11 14 18,
		1 2 3 6
	")
}

ee = energy('scf')
oeprop('DIPOLE', 'QUADRUPOLE', 'MULLIKEN_CHARGES')
f=open( 'psi4out.xyz', 'w' )
f.write( "25  " )
f.write( str(ee) + "\n" )
f.write( MOL.save_string_xyz() )
f.close()
--------------------------------------------------------------------------

    Molecular point group: c1

    Geometry (in Angstrom), charge = 0, multiplicity = 1:

       Center              X                  Y                   Z               Mass
    ------------   -----------------  -----------------  -----------------  -----------------
           O          2.815307606174     1.289978132649    -0.388464555950    15.994914619560
           C          2.796446606174     0.097333132649    -0.388953555950    12.000000000000
           C          1.499476606174    -0.691847867351    -0.389340555950    12.000000000000
           C          4.077105606174    -0.712029867351    -0.389159555950    12.000000000000
           C          0.243986606174     0.175318132649    -0.387742555950    12.000000000000
           H          1.510886606174    -1.351113867351    -1.256304555950     1.007825032070
           H          1.511604606174    -1.353318867351     0.475940444050     1.007825032070
           C         -0.971434393826    -0.553809867351     0.187486444050    12.000000000000
           H          0.034174606174     0.499355132649    -1.402192555950     1.007825032070
           H          0.436394606174     1.078829132649     0.182164444050     1.007825032070
           C         -2.236690393826     0.305742132649     0.192861444050    12.000000000000
           H         -1.156605393826    -1.460599867351    -0.386526555950     1.007825032070
           H         -0.753618393826    -0.877414867351     1.204296444050     1.007825032070
           C         -3.456888393826    -0.416660867351     0.766677444050    12.000000000000
           H         -2.455786393826     0.629218132649    -0.823198555950     1.007825032070
           H         -2.053025393826     1.212100132649     0.767124444050     1.007825032070
           C         -4.716859393826     0.448297132649     0.768478444050    12.000000000000
           H         -3.642193393826    -1.322223867351     0.192706444050     1.007825032070
           H         -3.239626393826    -0.739172867351     1.782867444050     1.007825032070
           H         -4.980246393826     0.759257132649    -0.238537555950     1.007825032070
           H         -5.564302393826    -0.091189867351     1.180175444050     1.007825032070
           H         -4.575245393826     1.345873132649     1.363832444050     1.007825032070
           H          4.118349606174    -1.355970867351    -1.262805555950     1.007825032070
           H          4.929199606174    -0.046621867351    -0.390646555950     1.007825032070
           H          4.119745606174    -1.353562867351     0.486198444050     1.007825032070

  Charge       = 0
  Multiplicity = 1
  Basis Set: 6-31G*
  Basis Set:

    Orbital Energies (a.u.)
    -----------------------

    Doubly Occupied:

       1A    -20.550733     2A    -11.326638     3A    -11.231343
       4A    -11.228583     5A    -11.216470     6A    -11.215046
       7A    -11.215005     8A    -11.212978     9A    -11.208035
      10A     -1.396241    11A     -1.093155    12A     -1.056044
      13A     -1.014476    14A     -0.969024    15A     -0.890325
      16A     -0.814030    17A     -0.790581    18A     -0.729912
      19A     -0.663523    20A     -0.649701    21A     -0.631881
      22A     -0.623986    23A     -0.595500    24A     -0.583904
      25A     -0.568347    26A     -0.559394    27A     -0.538561
      28A     -0.525870    29A     -0.512876    30A     -0.492254
      31A     -0.485219    32A     -0.472132    33A     -0.463758
      34A     -0.461246    35A     -0.449264    36A     -0.400158

  @DF-RHF Final Energy:  -387.13478719972710

   => Energetics <=

    Nuclear Repulsion Energy =            438.9131024873548199
    One-Electron Energy =               -1394.4233775703546598
    Two-Electron Energy =                 568.3754878832739905
    DFT Exchange-Correlation Energy =       0.0000000000000000
    Empirical Dispersion Energy =           0.0000000000000000
    PCM Polarization Energy =               0.0000000000000000
    EFP Energy =                            0.0000000000000000
    Total Energy =                       -387.1347871997259062

  Mulliken Charges: (a.u.)
   Center  Symbol    Alpha    Beta     Spin     Total
       1     O     4.26059  4.26059  0.00000 -0.52119
       2     C     2.73711  2.73711  0.00000  0.52578
       3     C     3.21217  3.21217  0.00000 -0.42433
       4     C     3.28671  3.28671  0.00000 -0.57341
       5     C     3.15112  3.15112  0.00000 -0.30224
       6     H     0.40850  0.40850  0.00000  0.18300
       7     H     0.40952  0.40952  0.00000  0.18097
       8     C     3.15488  3.15488  0.00000 -0.30977
       9     H     0.41720  0.41720  0.00000  0.16560
      10     H     0.40275  0.40275  0.00000  0.19449
      11     C     3.15099  3.15099  0.00000 -0.30198
      12     H     0.42534  0.42534  0.00000  0.14931
      13     H     0.42415  0.42415  0.00000  0.15170
      14     C     3.15147  3.15147  0.00000 -0.30294
      15     H     0.42320  0.42320  0.00000  0.15361
      16     H     0.42174  0.42174  0.00000  0.15652
      17     C     3.23931  3.23931  0.00000 -0.47862
      18     H     0.42370  0.42370  0.00000  0.15259
      19     H     0.42344  0.42344  0.00000  0.15312
      20     H     0.42162  0.42162  0.00000  0.15677
      21     H     0.41959  0.41959  0.00000  0.16081
      22     H     0.42120  0.42120  0.00000  0.15760
      23     H     0.40862  0.40862  0.00000  0.18275
      24     H     0.39643  0.39643  0.00000  0.20715
      25     H     0.40864  0.40864  0.00000  0.18272

   Total alpha = 36.00000, Total beta = 36.00000, Total charge = -0.00000
