  ==> Input File <==

--------------------------------------------------------------------------
set {
	reference rhf
	basis cc-pvtz
}

set_num_threads( 4 )
memory 2 gb

molecule MOL {
0 1

H	 -3.162190	 0.493205	 -0.000107
C	 -2.363908	 -0.234727	 0.000005
O	 -1.158738	 0.454634	 -0.000087
H	 -2.464314	 -0.863616	 -0.882153
H	 -2.464327	 -0.863359	 0.882345
C	 -0.449668	 0.376255	 -1.196495
C	 0.837602	 1.165190	 -1.066455
H	 -1.051882	 0.772034	 -2.014624
H	 -0.229891	 -0.665022	 -1.433315
C	 1.674314	 1.128442	 -2.340391
H	 0.590519	 2.189756	 -0.811232
H	 1.405989	 0.764090	 -0.234584
H	 1.132555	 1.548123	 -3.181492
H	 2.586778	 1.699314	 -2.219820
H	 1.953722	 0.112975	 -2.600824

	symmetry c1
}
set optking {
	frozen_dihedral = ("
		6 3 2 4
	")
}

ee = optimize('scf')
oeprop('DIPOLE', 'QUADRUPOLE', 'MULLIKEN_CHARGES')
f=open( 'psi4out.xyz', 'w' )
f.write( "15  " )
f.write( str(ee) + "\n" )
f.write( MOL.save_string_xyz() )
f.close()
--------------------------------------------------------------------------

    Molecular point group: c1
  Charge       = 0
  Multiplicity = 1
  Basis Set: CC-PVTZ
  Basis Set:
  @DF-RHF Final Energy:  -232.22420777301909
    Total Energy =                       -232.2242077730189749
    Molecular point group: c1
  Basis Set: CC-PVTZ
  Basis Set:
  Basis Set: CC-PVTZ
  Basis Set:
  @DF-RHF Final Energy:  -232.22469536939454
    Total Energy =                       -232.2246953693946807
  Basis Set: CC-PVTZ
  Basis Set:
  Basis Set: CC-PVTZ
  Basis Set:
  @DF-RHF Final Energy:  -232.22481025852585
    Total Energy =                       -232.2248102585259630
  Basis Set: CC-PVTZ
  Basis Set:
  Charge       = 0
  Multiplicity = 1
  Basis Set: CC-PVTZ
  Basis Set:

    Orbital Energies (a.u.)
    -----------------------

    Doubly Occupied:

       1A    -20.544101     2A    -11.264877     3A    -11.261296
       4A    -11.212234     5A    -11.210460     6A     -1.377076
       7A     -1.058033     8A     -0.956101     9A     -0.877409
      10A     -0.809211    11A     -0.673277    12A     -0.653951
      13A     -0.631692    14A     -0.608305    15A     -0.563707
      16A     -0.545408    17A     -0.502931    18A     -0.489591
      19A     -0.479169    20A     -0.462037    21A     -0.411231

  @DF-RHF Final Energy:  -232.22481113535341

   => Energetics <=

    Nuclear Repulsion Energy =            189.6839492314962570
    One-Electron Energy =                -690.6333345602757845
    Two-Electron Energy =                 268.7245741934260650
    DFT Exchange-Correlation Energy =       0.0000000000000000
    Empirical Dispersion Energy =           0.0000000000000000
    PCM Polarization Energy =               0.0000000000000000
    EFP Energy =                            0.0000000000000000
    Total Energy =                       -232.2248111353534341
    Molecular point group: c1
  Basis Set: CC-PVTZ
  Basis Set:

  -Total Gradient:
     Atom            X                  Y                   Z
    ------   -----------------  -----------------  -----------------
       1       -0.000014714004    -0.000007392013     0.000007205495
       2        0.001003721012    -0.001688629495     0.001059618673
       3       -0.001063033958     0.001610010402    -0.000728638888
       4       -0.000561289383     0.001069785015    -0.000696682708
       5        0.000035902694    -0.000010131056    -0.000000894215
       6        0.000601387279    -0.001010533393     0.000370174766
       7       -0.000022398478     0.000001867949    -0.000002170440
       8       -0.000002385251     0.000002613853     0.000056197706
       9       -0.000006818086     0.000001666718    -0.000023292265
      10        0.000026530910     0.000026721155    -0.000018518499
      11        0.000014443683     0.000005444680    -0.000001001021
      12       -0.000024118581    -0.000005335123    -0.000007295340
      13        0.000004491291    -0.000002929966    -0.000004659587
      14        0.000012024049     0.000002567666    -0.000017558077
      15       -0.000003743180     0.000004273605     0.000007514404

  **** Optimization is complete! (in 4 steps) ****
    Final optimized geometry and variables:
    Molecular point group: c1

    Geometry (in Angstrom), charge = 0, multiplicity = 1:

    H           -2.880846661190    -0.088408994353     0.952745371101
    C           -2.056200095589    -0.793829656340     0.929785655672
    O           -0.839526535873    -0.114196771114     0.901003563891
    H           -2.186065684500    -1.430105155420     0.060189937870
    H           -2.103219258232    -1.409311076878     1.819539544598
    C           -0.124267233997    -0.187930096599    -0.293387306779
    C            1.161243345728     0.601278484109    -0.149097146777
    H           -0.717328080739     0.213229073474    -1.115155328047
    H            0.099548802875    -1.226890501182    -0.533372232063
    C            2.009462042406     0.569081908386    -1.415757013536
    H            0.911694744364     1.624974182300     0.107442955387
    H            1.722037778615     0.197592181390     0.686733820212
    H            1.475006180306     0.990978946090    -2.260480770180
    H            2.920577693483     1.140153736862    -1.285485394862
    H            2.291894919512    -0.445462268974    -1.676774018187

  Mulliken Charges: (a.u.)
   Center  Symbol    Alpha    Beta     Spin     Total
       1     H     0.46048  0.46048  0.00000  0.07903
       2     C     3.02908  3.02908  0.00000 -0.05816
       3     O     4.17643  4.17643  0.00000 -0.35285
       4     H     0.47339  0.47339  0.00000  0.05321
       5     H     0.45534  0.45534  0.00000  0.08932
       6     C     2.95534  2.95534  0.00000  0.08931
       7     C     3.08210  3.08210  0.00000 -0.16420
       8     H     0.47610  0.47610  0.00000  0.04779
       9     H     0.47541  0.47541  0.00000  0.04919
      10     C     3.15592  3.15592  0.00000 -0.31184
      11     H     0.45112  0.45112  0.00000  0.09775
      12     H     0.45124  0.45124  0.00000  0.09752
      13     H     0.45585  0.45585  0.00000  0.08830
      14     H     0.44629  0.44629  0.00000  0.10742
      15     H     0.45590  0.45590  0.00000  0.08820

   Total alpha = 21.00000, Total beta = 21.00000, Total charge = -0.00000
