  ==> Input File <==

--------------------------------------------------------------------------
set {
	reference rhf
	basis 6-31G*
}

set_num_threads( 4 )
memory 2 gb

molecule MOL {
0 1

H	 -2.374533	 1.139376	 1.659825
C	 -1.702312	 1.412031	 2.470947
O	 -0.399046	 0.999879	 2.212168
H	 -1.690462	 2.488801	 2.568762
H	 -2.083406	 0.979342	 3.395055
C	 -0.254816	 -0.377562	 2.066902
C	 1.171873	 -0.692552	 1.682787
H	 -0.494049	 -0.883588	 3.003065
H	 -0.925260	 -0.758118	 1.298992
O	 1.392611	 -0.295398	 0.366430
H	 1.848156	 -0.176603	 2.361348
H	 1.343072	 -1.764610	 1.788036
C	 2.706965	 -0.449871	 -0.062409
H	 2.756559	 -0.644779	 -1.131878
H	 3.305899	 0.433456	 0.155466
H	 3.125548	 -1.294566	 0.467107

	symmetry c1
}
set optking {
	frozen_dihedral = ("
		7 10 13 14
	")
}

ee = optimize('scf')
oeprop('DIPOLE', 'QUADRUPOLE', 'MULLIKEN_CHARGES')
f=open( 'psi4out.xyz', 'w' )
f.write( "16  " )
f.write( str(ee) + "\n" )
f.write( MOL.save_string_xyz() )
f.close()
--------------------------------------------------------------------------

    Molecular point group: c1
  Charge       = 0
  Multiplicity = 1
  Basis Set: 6-31G*
  Basis Set:
  @DF-RHF Final Energy:  -306.97460409486831
    Total Energy =                       -306.9746040948680275
    Molecular point group: c1
  Basis Set: 6-31G*
  Basis Set:
  Basis Set: 6-31G*
  Basis Set:
  @DF-RHF Final Energy:  -306.97551961647787
    Total Energy =                       -306.9755196164777544
  Basis Set: 6-31G*
  Basis Set:
  Basis Set: 6-31G*
  Basis Set:
  @DF-RHF Final Energy:  -306.97578149479654
    Total Energy =                       -306.9757814947965358
  Basis Set: 6-31G*
  Basis Set:
  Charge       = 0
  Multiplicity = 1
  Basis Set: 6-31G*
  Basis Set:

    Orbital Energies (a.u.)
    -----------------------

    Doubly Occupied:

       1A    -20.553363     2A    -20.551538     3A    -11.269091
       4A    -11.268234     5A    -11.263366     6A    -11.263222
       7A     -1.386999     8A     -1.369154     9A     -1.030592
      10A     -0.936008    11A     -0.891998    12A     -0.823827
      13A     -0.683451    14A     -0.679751    15A     -0.656128
      16A     -0.634437    17A     -0.629669    18A     -0.595663
      19A     -0.552371    20A     -0.537989    21A     -0.507311
      22A     -0.476956    23A     -0.462188    24A     -0.418298
      25A     -0.409193

  @DF-RHF Final Energy:  -306.97578280738685

   => Energetics <=

    Nuclear Repulsion Energy =            258.6783829631586968
    One-Electron Energy =                -931.6067310067121525
    Two-Electron Energy =                 365.9525652361666630
    DFT Exchange-Correlation Energy =       0.0000000000000000
    Empirical Dispersion Energy =           0.0000000000000000
    PCM Polarization Energy =               0.0000000000000000
    EFP Energy =                            0.0000000000000000
    Total Energy =                       -306.9757828073867927
    Molecular point group: c1
  Basis Set: 6-31G*
  Basis Set:

  -Total Gradient:
     Atom            X                  Y                   Z
    ------   -----------------  -----------------  -----------------
       1        0.000002100279    -0.000000816533    -0.000000974989
       2        0.000001107830    -0.000000780462     0.000005052057
       3       -0.000002479731    -0.000003133398     0.000021906533
       4        0.000001050765    -0.000001316828    -0.000000170099
       5       -0.000003985319     0.000001736959     0.000001316033
       6       -0.000006426301     0.000050462542    -0.000149694343
       7       -0.000401003897    -0.002341181704    -0.000746818669
       8        0.000050181248    -0.000002426187    -0.000015626020
       9       -0.000032739415    -0.000014054190    -0.000000794031
      10        0.000756018204     0.002586418594     0.001212288574
      11        0.000017963643    -0.000001269965    -0.000016857562
      12        0.000006233941     0.000004823496    -0.000036736184
      13       -0.000042091049     0.002766012410    -0.000882988187
      14       -0.000274343562    -0.003027612135     0.000559210211
      15       -0.000066011459     0.000014127729     0.000012141662
      16       -0.000005575178    -0.000030990329     0.000038745013

  **** Optimization is complete! (in 4 steps) ****
    Final optimized geometry and variables:
    Molecular point group: c1

    Geometry (in Angstrom), charge = 0, multiplicity = 1:

    H           -2.857185615047     1.042265005293     0.188982130561
    C           -2.192021320500     1.310224756293     1.007452491685
    O           -0.887440153026     0.895252655288     0.759915264019
    H           -2.178256275674     2.386596547881     1.109249341046
    H           -2.582944726678     0.875085134053     1.926232539720
    C           -0.745553006593    -0.482129978146     0.611392904592
    C            0.683446976573    -0.800425972481     0.239264793804
    H           -0.994699020571    -0.990546859819     1.543705026045
    H           -1.409933110444    -0.858304590261    -0.163889249217
    O            0.913008557512    -0.403262665100    -1.076178481835
    H            1.353313228057    -0.287351696495     0.926163854029
    H            0.850838558340    -1.872630423298     0.342738654980
    C            2.227265652239    -0.555707632778    -1.515498981980
    H            2.204991470958    -0.742496638295    -2.581285508637
    H            2.816923284493     0.333650348666    -1.310881414837
    H            2.711000712416    -1.407237147579    -1.041101560363

  Mulliken Charges: (a.u.)
   Center  Symbol    Alpha    Beta     Spin     Total
       1     H     0.42807  0.42807  0.00000  0.14386
       2     C     3.07947  3.07947  0.00000 -0.15893
       3     O     4.30091  4.30091  0.00000 -0.60183
       4     H     0.41134  0.41134  0.00000  0.17733
       5     H     0.43193  0.43193  0.00000  0.13615
       6     C     2.99341  2.99341  0.00000  0.01318
       7     C     2.99357  2.99357  0.00000  0.01286
       8     H     0.43243  0.43243  0.00000  0.13514
       9     H     0.42277  0.42277  0.00000  0.15445
      10     O     4.30325  4.30325  0.00000 -0.60651
      11     H     0.42283  0.42283  0.00000  0.15434
      12     H     0.43175  0.43175  0.00000  0.13649
      13     C     3.07739  3.07739  0.00000 -0.15479
      14     H     0.41476  0.41476  0.00000  0.17048
      15     H     0.42350  0.42350  0.00000  0.15299
      16     H     0.43261  0.43261  0.00000  0.13478

   Total alpha = 25.00000, Total beta = 25.00000, Total charge =  0.00000
