  ==> Input File <==

--------------------------------------------------------------------------
set {
	reference rhf
	basis 6-31G*
}

set_num_threads( 4 )
memory 2 gb

molecule MOL {
0 1

H	 3.089270	 -1.380733	 0.000000
O	 2.178328	 -1.639175	 0.000000
C	 1.368216	 -0.558384	 0.000000
C	 1.846078	 0.729823	 -0.203658
C	 0.017106	 -0.769521	 0.212960
H	 2.897907	 0.891951	 -0.369208
C	 0.973439	 1.805036	 -0.194246
H	 -0.353314	 -1.764044	 0.370400
C	 -0.849767	 0.312388	 0.220850
H	 1.354956	 2.797314	 -0.353014
C	 -0.378392	 1.603263	 0.017825
C	 -2.302523	 0.092638	 0.449062
H	 -1.057994	 2.436982	 0.025540
O	 -2.803094	 -0.970593	 0.632131
H	 -2.913099	 1.000574	 0.439189

	symmetry c1
}
set optking {
	frozen_dihedral = ("
		4 3 2 1
	")
}

ee = optimize('scf')
oeprop('DIPOLE', 'QUADRUPOLE', 'MULLIKEN_CHARGES')
f=open( 'psi4out.xyz', 'w' )
f.write( "15  " )
f.write( str(ee) + "\n" )
f.write( MOL.save_string_xyz() )
f.close()
--------------------------------------------------------------------------

    Molecular point group: c1
  Charge       = 0
  Multiplicity = 1
  Basis Set: 6-31G*
  Basis Set:
  @DF-RHF Final Energy:  -418.28604668862812
    Total Energy =                       -418.2860466886279482
    Molecular point group: c1
  Basis Set: 6-31G*
  Basis Set:
  Basis Set: 6-31G*
  Basis Set:
  @DF-RHF Final Energy:  -418.28605081533982
    Total Energy =                       -418.2860508153394221
  Basis Set: 6-31G*
  Basis Set:
  Basis Set: 6-31G*
  Basis Set:
  @DF-RHF Final Energy:  -418.28606472009744
    Total Energy =                       -418.2860647200975563
  Basis Set: 6-31G*
  Basis Set:
  Basis Set: 6-31G*
  Basis Set:
  @DF-RHF Final Energy:  -418.28601301583927
    Total Energy =                       -418.2860130158394441
  Basis Set: 6-31G*
  Basis Set:
  Basis Set: 6-31G*
  Basis Set:
  @DF-RHF Final Energy:  -418.28606514461660
    Total Energy =                       -418.2860651446163729
  Basis Set: 6-31G*
  Basis Set:
  Charge       = 0
  Multiplicity = 1
  Basis Set: 6-31G*
  Basis Set:

    Orbital Energies (a.u.)
    -----------------------

    Doubly Occupied:

       1A    -20.601279     2A    -20.564381     3A    -11.332421
       4A    -11.312578     5A    -11.253243     6A    -11.251790
       7A    -11.250041     8A    -11.246422     9A    -11.239583
      10A     -1.420913    11A     -1.404935    12A     -1.169641
      13A     -1.048730    14A     -1.027153    15A     -0.900004
      16A     -0.845784    17A     -0.813144    18A     -0.735965
      19A     -0.702095    20A     -0.685678    21A     -0.639562
      22A     -0.635751    23A     -0.611426    24A     -0.602581
      25A     -0.572575    26A     -0.550398    27A     -0.542875
      28A     -0.512946    29A     -0.486273    30A     -0.423518
      31A     -0.353514    32A     -0.326230

  @DF-RHF Final Energy:  -418.28606522523859

   => Energetics <=

    Nuclear Repulsion Energy =            403.1483478824405324
    One-Electron Energy =               -1368.7419711948350596
    Two-Electron Energy =                 547.3075580871558259
    DFT Exchange-Correlation Energy =       0.0000000000000000
    Empirical Dispersion Energy =           0.0000000000000000
    PCM Polarization Energy =               0.0000000000000000
    EFP Energy =                            0.0000000000000000
    Total Energy =                       -418.2860652252387581
    Molecular point group: c1
  Basis Set: 6-31G*
  Basis Set:

  -Total Gradient:
     Atom            X                  Y                   Z
    ------   -----------------  -----------------  -----------------
       1        0.000005317745     0.000005090224     0.000813469072
       2       -0.000088431551    -0.000026936492    -0.001353374206
       3        0.000211912101     0.000114159911     0.001135586785
       4       -0.000085931219    -0.000107509519    -0.000577092724
       5       -0.000047443556     0.000022596329     0.000003379579
       6        0.000000262395     0.000003844769     0.000003068517
       7       -0.000057048754     0.000009766105    -0.000052923200
       8        0.000002912206    -0.000004029296     0.000001291945
       9        0.000012108321    -0.000053194356    -0.000014071284
      10        0.000004206145    -0.000001111164     0.000002948264
      11        0.000044326593     0.000038937719     0.000044969440
      12       -0.000007402089    -0.000007774199    -0.000008027103
      13       -0.000001765742    -0.000001847031    -0.000001441911
      14        0.000005331601     0.000005624439     0.000001808672
      15        0.000001645797     0.000002382560     0.000000408154

  **** Optimization is complete! (in 6 steps) ****
    Final optimized geometry and variables:
    Molecular point group: c1

    Geometry (in Angstrom), charge = 0, multiplicity = 1:

    H            3.080186609053    -1.388696202462    -0.147696410398
    O            2.169150327806    -1.646567480482    -0.136566708279
    C            1.359548182002    -0.564745918404    -0.125833365489
    C            1.837001270551     0.722911835852    -0.334735611658
    C            0.008222969388    -0.776160894382     0.083563880026
    H            2.888240523579     0.883928219967    -0.504900141270
    C            0.964506459336     1.798126879662    -0.326094803601
    H           -0.362161729060    -1.770436879024     0.242538674480
    C           -0.859505403096     0.305394333441     0.086469251881
    H            1.345778458361     2.790146205499    -0.486641080729
    C           -0.387732659321     1.596070072892    -0.116162510635
    C           -2.312531573897     0.085479281943     0.311969317874
    H           -1.067515651736     2.429676393873    -0.110674773910
    O           -2.812970823124    -0.977584406355     0.496962639754
    H           -2.923951901382     0.992750515965     0.298306154378

  Mulliken Charges: (a.u.)
   Center  Symbol    Alpha    Beta     Spin     Total
       1     H     0.27073  0.27073  0.00000  0.45855
       2     O     4.37619  4.37619  0.00000 -0.75239
       3     C     2.79531  2.79531  0.00000  0.40938
       4     C     3.13369  3.13369  0.00000 -0.26737
       5     C     3.11336  3.11336  0.00000 -0.22672
       6     H     0.39873  0.39873  0.00000  0.20255
       7     C     3.09516  3.09516  0.00000 -0.19031
       8     H     0.37025  0.37025  0.00000  0.25951
       9     C     3.04595  3.04595  0.00000 -0.09190
      10     H     0.39299  0.39299  0.00000  0.21403
      11     C     3.11512  3.11512  0.00000 -0.23024
      12     C     2.83263  2.83263  0.00000  0.33474
      13     H     0.39323  0.39323  0.00000  0.21355
      14     O     4.24489  4.24489  0.00000 -0.48977
      15     H     0.42180  0.42180  0.00000  0.15640

   Total alpha = 32.00000, Total beta = 32.00000, Total charge = -0.00000
