  ==> Input File <==

--------------------------------------------------------------------------
set {
	reference rhf
	basis 6-31G*
}

set_num_threads( 4 )
memory 2 gb

molecule MOL {
0 1

H	 -4.031818	 -0.453427	 -0.000094
C	 -2.967712	 -0.297022	 -0.000064
C	 -2.458620	 0.992929	 0.000032
C	 -2.109895	 -1.385637	 -0.000122
H	 -3.124998	 1.836319	 0.000077
C	 -1.090278	 1.193236	 0.000070
H	 -2.506361	 -2.384847	 -0.000198
C	 -0.739812	 -1.187531	 -0.000085
H	 -0.678594	 2.184290	 0.000146
C	 -0.226438	 0.104061	 0.000012
H	 -0.072310	 -2.027032	 -0.000131
C	 1.239129	 0.373821	 0.000060
O	 1.860001	 -0.131391	 -1.055346
O	 1.804255	 0.980017	 0.855641
C	 3.258570	 0.078697	 -1.136202
H	 3.481162	 1.135197	 -1.168712
H	 3.575119	 -0.399726	 -2.049855
H	 3.757567	 -0.365217	 -0.287165

	symmetry c1
}
set optking {
	frozen_dihedral = ("
		13 12 10 6
	")
}

ee = optimize('scf')
oeprop('DIPOLE', 'QUADRUPOLE', 'MULLIKEN_CHARGES')
f=open( 'psi4out.xyz', 'w' )
f.write( "18  " )
f.write( str(ee) + "\n" )
f.write( MOL.save_string_xyz() )
f.close()
--------------------------------------------------------------------------

    Molecular point group: c1
  Charge       = 0
  Multiplicity = 1
  Basis Set: 6-31G*
  Basis Set:
  @DF-RHF Final Energy:  -457.34153936179058
    Total Energy =                       -457.3415393617902964
    Molecular point group: c1
  Basis Set: 6-31G*
  Basis Set:
  Basis Set: 6-31G*
  Basis Set:
  @DF-RHF Final Energy:  -457.33951152910356
    Total Energy =                       -457.3395115291034472
  Basis Set: 6-31G*
  Basis Set:
  Basis Set: 6-31G*
  Basis Set:
  @DF-RHF Final Energy:  -457.34207796530774
    Total Energy =                       -457.3420779653077943
  Basis Set: 6-31G*
  Basis Set:
  Basis Set: 6-31G*
  Basis Set:
  @DF-RHF Final Energy:  -457.34215568261772
    Total Energy =                       -457.3421556826176584
  Basis Set: 6-31G*
  Basis Set:
  Basis Set: 6-31G*
  Basis Set:
  @DF-RHF Final Energy:  -457.34215731518356
    Total Energy =                       -457.3421573151837265
  Basis Set: 6-31G*
  Basis Set:
  Charge       = 0
  Multiplicity = 1
  Basis Set: 6-31G*
  Basis Set:

    Orbital Energies (a.u.)
    -----------------------

    Doubly Occupied:

       1A    -20.609573     2A    -20.548851     3A    -11.379573
       4A    -11.283501     5A    -11.249820     6A    -11.244441
       7A    -11.243558     8A    -11.241767     9A    -11.239293
      10A    -11.238776    11A     -1.474609    12A     -1.366763
      13A     -1.166543    14A     -1.048931    15A     -1.025776
      16A     -0.979340    17A     -0.859915    18A     -0.837624
      19A     -0.779667    20A     -0.737985    21A     -0.684703
      22A     -0.679312    23A     -0.675658    24A     -0.630150
      25A     -0.629436    26A     -0.597351    27A     -0.590306
      28A     -0.551101    29A     -0.535019    30A     -0.516598
      31A     -0.507417    32A     -0.502016    33A     -0.459006
      34A     -0.444387    35A     -0.342993    36A     -0.342364

  @DF-RHF Final Energy:  -457.34215774818392

   => Energetics <=

    Nuclear Repulsion Energy =            492.2020090872711080
    One-Electron Energy =               -1598.6000894002263522
    Two-Electron Energy =                 649.0559225647709809
    DFT Exchange-Correlation Energy =       0.0000000000000000
    Empirical Dispersion Energy =           0.0000000000000000
    PCM Polarization Energy =               0.0000000000000000
    EFP Energy =                            0.0000000000000000
    Total Energy =                       -457.3421577481842633
    Molecular point group: c1
  Basis Set: 6-31G*
  Basis Set:

  -Total Gradient:
     Atom            X                  Y                   Z
    ------   -----------------  -----------------  -----------------
       1       -0.000002720444     0.000008115050    -0.000007748572
       2        0.000016905496    -0.000081852517     0.000013768880
       3        0.000067072303     0.000048149972    -0.000024350525
       4       -0.000079594847     0.000039419219     0.000031907281
       5       -0.000006668851    -0.000006136375     0.000009150003
       6       -0.000127242550    -0.000063228216    -0.005557089934
       7        0.000008777316     0.000002232977    -0.000006165183
       8        0.000066385505     0.000077586069     0.000014726467
       9        0.000008209064    -0.000003965846    -0.000000248859
      10       -0.000195575439     0.001572660905     0.007030281491
      11       -0.000000444514    -0.000006627318     0.000000115133
      12        0.001140224220    -0.006281320781     0.001311638446
      13       -0.000888702638     0.004672671641    -0.002843115207
      14       -0.000010860156     0.000017435026     0.000035978806
      15        0.000001508936     0.000016784538    -0.000011522807
      16        0.000008981437    -0.000005919828    -0.000000440955
      17       -0.000002807787    -0.000004295289     0.000001988819
      18       -0.000003447057    -0.000001709226     0.000001126714

  **** Optimization is complete! (in 6 steps) ****
    Final optimized geometry and variables:
    Molecular point group: c1

    Geometry (in Angstrom), charge = 0, multiplicity = 1:

    H           -4.007285441069    -0.564400282251     0.099757330549
    C           -2.945278708504    -0.397483100289     0.122291146994
    C           -2.447981035331     0.895653537760     0.141925922938
    C           -2.074847749018    -1.476266093242     0.125240182056
    H           -3.121596051508     1.733325715932     0.129556835281
    C           -1.080750032657     1.111556825462     0.180114731681
    H           -2.459433249676    -2.479931851912     0.104665187869
    C           -0.707268473632    -1.262568516236     0.139683524486
    H           -0.688635844509     2.111538593860     0.212489326425
    C           -0.209867563652     0.031845497054     0.192687844456
    H           -0.030342676104    -2.096983617426     0.114098576027
    C            1.262158305157     0.294582706716     0.176332140265
    O            1.851683668190    -0.240780477943    -0.881219928058
    O            1.834280821440     0.958916544023     0.979509200297
    C            3.250443898429    -0.044787802895    -1.001767808753
    H            3.478017504021     1.008220486915    -1.080896237540
    H            3.542073014788    -0.560741529587    -1.902968051601
    H            3.767453772497    -0.457724285537    -0.147588932027

  Mulliken Charges: (a.u.)
   Center  Symbol    Alpha    Beta     Spin     Total
       1     H     0.39614  0.39614  0.00000  0.20771
       2     C     3.09504  3.09504  0.00000 -0.19008
       3     C     3.10202  3.10202  0.00000 -0.20405
       4     C     3.10253  3.10253  0.00000 -0.20506
       5     H     0.39560  0.39560  0.00000  0.20879
       6     C     3.09711  3.09711  0.00000 -0.19421
       7     H     0.39597  0.39597  0.00000  0.20805
       8     C     3.09301  3.09301  0.00000 -0.18602
       9     H     0.38565  0.38565  0.00000  0.22871
      10     C     3.02139  3.02139  0.00000 -0.04279
      11     H     0.39001  0.39001  0.00000  0.21998
      12     C     2.62992  2.62992  0.00000  0.74017
      13     O     4.29739  4.29739  0.00000 -0.59479
      14     O     4.28131  4.28131  0.00000 -0.56261
      15     C     3.09433  3.09433  0.00000 -0.18867
      16     H     0.40734  0.40734  0.00000  0.18532
      17     H     0.40673  0.40673  0.00000  0.18653
      18     H     0.40849  0.40849  0.00000  0.18302

   Total alpha = 36.00000, Total beta = 36.00000, Total charge = -0.00000
