                              Psi4 1.0.54 Driver

  ==> Input File <==

--------------------------------------------------------------------------
set {
	reference rhf
	basis cc-pvtz
}

set_num_threads( 4 )
memory 2 gb

molecule MOL {
0 1

O	 -2.817697	 1.304178	 0.001046
C	 -2.664672	 0.129869	 0.003507
C	 -3.797908	 -0.860100	 -0.001145
O	 -1.481217	 -0.452708	 0.001092
H	 -4.408836	 -0.679689	 -0.875387
H	 -3.443486	 -1.878443	 -0.002770
H	 -4.412123	 -0.683688	 0.871605
C	 -0.332055	 0.384012	 -0.000250
C	 0.892252	 -0.506059	 -0.000295
H	 -0.360822	 1.020205	 -0.874146
H	 -0.359817	 1.021310	 0.872861
C	 2.188199	 0.299473	 -0.001416
H	 0.857046	 -1.152781	 -0.871031
H	 0.857910	 -1.151798	 0.871202
C	 2.361993	 1.150383	 -1.256356
H	 2.215158	 0.944137	 0.873603
H	 3.034971	 -0.375967	 0.092027
C	 3.657465	 1.954595	 -1.258411
H	 1.517295	 1.826988	 -1.349884
H	 2.335377	 0.507232	 -2.131419
H	 3.698413	 2.632966	 -0.412845
H	 3.749974	 2.546508	 -2.161510
H	 4.522830	 1.302985	 -1.200105

	symmetry c1
}
set optking {
	frozen_dihedral = ("
		16 12 9 13
	")
}

ee,wfn = optimize('scf', return_wfn=True)
oeprop( wfn, 'DIPOLE', 'QUADRUPOLE', 'MULLIKEN_CHARGES')
f=open( 'psi4out.xyz', 'w' )
f.write( "23  " )
f.write( str(ee) + "\n" )
f.write( MOL.save_string_xyz() )
f.close()
--------------------------------------------------------------------------

    Molecular point group: c1
  Charge       = 0
  Multiplicity = 1
  Basis Set: CC-PVTZ
  Basis Set:
  @DF-RHF Final Energy:  -423.13215750326674
    Total Energy =                       -423.1321575032668534
    Molecular point group: c1
  Basis Set: CC-PVTZ
  Basis Set:
  Basis Set: CC-PVTZ
  Basis Set:
  @DF-RHF Final Energy:  -423.13215428466123
    Total Energy =                       -423.1321542846617376
  Basis Set: CC-PVTZ
  Basis Set:
  Basis Set: CC-PVTZ
  Basis Set:
  @DF-RHF Final Energy:  -423.13227235353173
    Total Energy =                       -423.1322723535315617
  Basis Set: CC-PVTZ
  Basis Set:
  Basis Set: CC-PVTZ
  Basis Set:
  @DF-RHF Final Energy:  -423.13299874624892
    Total Energy =                       -423.1329987462482904
  Basis Set: CC-PVTZ
  Basis Set:
  Basis Set: CC-PVTZ
  Basis Set:
  @DF-RHF Final Energy:  -423.13306122985659
    Total Energy =                       -423.1330612298561391
  Basis Set: CC-PVTZ
  Basis Set:
  Basis Set: CC-PVTZ
  Basis Set:
  @DF-RHF Final Energy:  -423.13307529911356
    Total Energy =                       -423.1330752991141253
  Basis Set: CC-PVTZ
  Basis Set:
  Charge       = 0
  Multiplicity = 1
  Basis Set: CC-PVTZ
  Basis Set:

    Orbital Energies (a.u.)
    -----------------------

    Doubly Occupied:

       1A    -20.595811     2A    -20.529494     3A    -11.366362
       4A    -11.278926     5A    -11.230652     6A    -11.222519
       7A    -11.221450     8A    -11.219174     9A    -11.210793
      10A     -1.471060    11A     -1.363893    12A     -1.094851
      13A     -1.041474    14A     -1.003439    15A     -0.932265
      16A     -0.850137    17A     -0.791548    18A     -0.782203
      19A     -0.691912    20A     -0.687819    21A     -0.674046
      22A     -0.637288    23A     -0.614476    24A     -0.588208
      25A     -0.579585    26A     -0.573631    27A     -0.562792
      28A     -0.530303    29A     -0.528870    30A     -0.510331
      31A     -0.495353    32A     -0.476650    33A     -0.469240
      34A     -0.463262    35A     -0.452683    36A     -0.439336

  @DF-RHF Final Energy:  -423.13307596567603

   => Energetics <=

    Nuclear Repulsion Energy =            456.4064938285973199
    One-Electron Energy =               -1480.7154612476201692
    Two-Electron Energy =                 601.1758914533461393
    DFT Exchange-Correlation Energy =       0.0000000000000000
    Empirical Dispersion Energy =           0.0000000000000000
    PCM Polarization Energy =               0.0000000000000000
    EFP Energy =                            0.0000000000000000
    Total Energy =                       -423.1330759656766531
    Molecular point group: c1
  Basis Set: CC-PVTZ
  Basis Set:

  -Total Gradient:
     Atom            X                  Y                   Z
    ------   -----------------  -----------------  -----------------
       1        0.000054372224    -0.000028783554     0.000017354134
       2       -0.000019354440    -0.000005707332    -0.000042678572
       3       -0.000010347630    -0.000009430466     0.000030358349
       4       -0.000038463395     0.000045596663    -0.000006360123
       5        0.000001329578    -0.000004499905    -0.000002390810
       6       -0.000007344321    -0.000006823436    -0.000000664314
       7       -0.000002589501     0.000000280107    -0.000009578619
       8        0.000012864395     0.000007245140     0.000038627461
       9       -0.000040017800     0.000083053715    -0.000083223767
      10       -0.000001801835     0.000000785002    -0.000006977408
      11       -0.000003087093     0.000009165282    -0.000000755117
      12       -0.000044488399     0.000071653387    -0.000067869567
      13        0.000057154373    -0.000099515061     0.000055831397
      14       -0.000002520440     0.000013171237    -0.000004355167
      15       -0.000032319134     0.000008536600     0.000034540501
      16        0.000048279018    -0.000076596884     0.000056996747
      17        0.000014203692     0.000000412871    -0.000003201371
      18        0.000027063610    -0.000015786604    -0.000003620418
      19       -0.000022550042    -0.000000591065    -0.000000829913
      20       -0.000000703459     0.000007636390     0.000007834446
      21       -0.000007077671    -0.000005135568    -0.000007999489
      22        0.000005095451     0.000001179993    -0.000010175236
      23        0.000012302818     0.000004153493     0.000009136856

  **** Optimization is complete! (in 7 steps) ****
    Final optimized geometry and variables:
    Molecular point group: c1

    Geometry (in Angstrom), charge = 0, multiplicity = 1:

    O           -2.650613826076     0.874588972488     0.262006263178
    C           -2.461224158213    -0.293996372588     0.297104567421
    C           -3.563152936227    -1.317266837672     0.356607444713
    O           -1.260621090964    -0.839749573628     0.289250210632
    H           -4.202545589428    -1.184749422270    -0.505824014061
    H           -3.177592521862    -2.324031517135     0.378689292600
    H           -4.158916494550    -1.130027406333     1.239913987917
    C           -0.138539963748     0.031870429526     0.233715255034
    C            1.108237999627    -0.829306737118     0.219123417957
    H           -0.221976424381     0.648429132625    -0.648409739094
    H           -0.156316368927     0.684159475156     1.096721812621
    C            2.409251897756    -0.026370671170     0.256990126503
    H            1.089940018932    -1.464339123212    -0.661072202059
    H            1.072138187887    -1.489350058531     1.078888151501
    C            2.678730606358     0.829465596823    -0.980097556231
    H            2.418219048930     0.606182066109     1.141517411225
    H            3.230958065177    -0.725150473489     0.380646390696
    C            4.038922306275     1.517924702761    -0.932426563374
    H            1.906095434902     1.583336143211    -1.089422827914
    H            2.622759351947     0.203116726203    -1.866441537351
    H            4.115498360636     2.172910520526    -0.070959121271
    H            4.205715688234     2.118164428772    -1.819208985019
    H            4.842865300843     0.792412388690    -0.867228697836

  Mulliken Charges: (a.u.)
   Center  Symbol    Alpha    Beta     Spin     Total
       1     O     4.20254  4.20254  0.00000 -0.40508
       2     C     2.81545  2.81545  0.00000  0.36909
       3     C     3.13954  3.13954  0.00000 -0.27907
       4     O     4.14552  4.14552  0.00000 -0.29104
       5     H     0.44220  0.44220  0.00000  0.11560
       6     H     0.44185  0.44185  0.00000  0.11630
       7     H     0.44215  0.44215  0.00000  0.11569
       8     C     2.97651  2.97651  0.00000  0.04697
       9     C     3.09115  3.09115  0.00000 -0.18230
      10     H     0.45232  0.45232  0.00000  0.09535
      11     H     0.45412  0.45412  0.00000  0.09177
      12     C     3.10513  3.10513  0.00000 -0.21025
      13     H     0.45057  0.45057  0.00000  0.09885
      14     H     0.44465  0.44465  0.00000  0.11070
      15     C     3.08823  3.08823  0.00000 -0.17646
      16     H     0.45186  0.45186  0.00000  0.09628
      17     H     0.44653  0.44653  0.00000  0.10693
      18     C     3.14901  3.14901  0.00000 -0.29803
      19     H     0.45177  0.45177  0.00000  0.09646
      20     H     0.45296  0.45296  0.00000  0.09407
      21     H     0.45422  0.45422  0.00000  0.09156
      22     H     0.44727  0.44727  0.00000  0.10545
      23     H     0.45443  0.45443  0.00000  0.09115

   Total alpha = 36.00000, Total beta = 36.00000, Total charge = -0.00000

*** Psi4 exiting successfully. Buy a developer a beer!
