  ==> Input File <==

--------------------------------------------------------------------------
set {
	reference rhf
	basis cc-pvtz
}

set_num_threads( 4 )
memory 2 gb

molecule MOL {
0 1

H	 -1.681263	 2.172267	 0.733519
C	 -1.813080	 1.263695	 1.305656
C	 -0.522540	 0.460979	 1.360118
H	 -2.604461	 0.694975	 0.836093
H	 -2.131229	 1.531979	 2.306010
C	 0.000000	 0.039916	 0.000014
H	 -0.651947	 -0.438504	 1.956007
H	 0.263246	 1.025921	 1.854358
C	 1.286532	 -0.763243	 0.000268
O	 -0.564864	 0.322373	 -1.005733
C	 2.547023	 0.087626	 -0.000114
H	 1.264245	 -1.421103	 -0.864380
H	 1.264290	 -1.420353	 0.865489
H	 2.584452	 0.725630	 -0.872909
H	 3.427035	 -0.544422	 0.000125
H	 2.584484	 0.726356	 0.872143

	symmetry c1
}
set optking {
	frozen_dihedral = ("
		3 6 9 12
	")
}

ee = optimize('scf')
oeprop('DIPOLE', 'QUADRUPOLE', 'MULLIKEN_CHARGES')
f=open( 'psi4out.xyz', 'w' )
f.write( "16  " )
f.write( str(ee) + "\n" )
f.write( MOL.save_string_xyz() )
f.close()
--------------------------------------------------------------------------

    Molecular point group: c1
  Charge       = 0
  Multiplicity = 1
  Basis Set: CC-PVTZ
  Basis Set:
  @DF-RHF Final Energy:  -270.12899959732243
    Total Energy =                       -270.1289995973224336
    Molecular point group: c1
  Basis Set: CC-PVTZ
  Basis Set:
  Basis Set: CC-PVTZ
  Basis Set:
  @DF-RHF Final Energy:  -270.12974093092521
    Total Energy =                       -270.1297409309252657
  Basis Set: CC-PVTZ
  Basis Set:
  Basis Set: CC-PVTZ
  Basis Set:
  @DF-RHF Final Energy:  -270.12766881566642
    Total Energy =                       -270.1276688156665955
  Basis Set: CC-PVTZ
  Basis Set:
  Basis Set: CC-PVTZ
  Basis Set:
  @DF-RHF Final Energy:  -270.12988425395969
    Total Energy =                       -270.1298842539595171
  Basis Set: CC-PVTZ
  Basis Set:
  Basis Set: CC-PVTZ
  Basis Set:
  @DF-RHF Final Energy:  -270.12990918541311
    Total Energy =                       -270.1299091854132257
  Basis Set: CC-PVTZ
  Basis Set:
  Charge       = 0
  Multiplicity = 1
  Basis Set: CC-PVTZ
  Basis Set:

    Orbital Energies (a.u.)
    -----------------------

    Doubly Occupied:

       1A    -20.537568     2A    -11.317109     3A    -11.232609
       4A    -11.230494     5A    -11.225969     6A    -11.211795
       7A     -1.397667     8A     -1.072777     9A     -1.037450
      10A     -0.912582    11A     -0.856933    12A     -0.727823
      13A     -0.665825    14A     -0.644689    15A     -0.625669
      16A     -0.604395    17A     -0.566493    18A     -0.540476
      19A     -0.533631    20A     -0.511790    21A     -0.503736
      22A     -0.499743    23A     -0.481149    24A     -0.398320

  @DF-RHF Final Energy:  -270.12990983522889

   => Energetics <=

    Nuclear Repulsion Energy =            241.0496527301188223
    One-Electron Energy =                -843.6857434095117014
    Two-Electron Energy =                 332.5061808441641915
    DFT Exchange-Correlation Energy =       0.0000000000000000
    Empirical Dispersion Energy =           0.0000000000000000
    PCM Polarization Energy =               0.0000000000000000
    EFP Energy =                            0.0000000000000000
    Total Energy =                       -270.1299098352286592
    Molecular point group: c1
  Basis Set: CC-PVTZ
  Basis Set:

  -Total Gradient:
     Atom            X                  Y                   Z
    ------   -----------------  -----------------  -----------------
       1       -0.000007310684    -0.000006416786     0.000000034977
       2        0.000028302950     0.000039901972     0.000016466038
       3        0.000137305602     0.000289076153    -0.000067437551
       4        0.000007655259    -0.000008673198     0.000001624633
       5       -0.000009735352     0.000001932054     0.000001344504
       6       -0.000261703456    -0.000406052192     0.000041319629
       7        0.000011471933     0.000013794902     0.000021789103
       8        0.000007438888     0.000010723933    -0.000016994324
       9       -0.000158083967    -0.000328452266     0.000319423172
      10       -0.000008393940     0.000010297201    -0.000035266983
      11       -0.000010571095    -0.000008488536     0.000016330649
      12        0.000221757599     0.000378673287    -0.000295942220
      13        0.000020674748     0.000014114872    -0.000014082816
      14       -0.000000756435    -0.000010376580     0.000011271390
      15        0.000012845486     0.000003177550    -0.000001624367
      16        0.000009102462     0.000006767635     0.000001744169

  **** Optimization is complete! (in 6 steps) ****
    Final optimized geometry and variables:
    Molecular point group: c1

    Geometry (in Angstrom), charge = 0, multiplicity = 1:

    H           -1.661262057715     2.011022447233     0.497645631309
    C           -1.919097606189     1.091467604044     1.006818869265
    C           -0.719073553884     0.162067375053     1.094921495268
    H           -2.726421944831     0.629343699757     0.455505954625
    H           -2.277660853770     1.339403289345     1.998718361758
    C           -0.158447319306    -0.255409143313    -0.249044863545
    H           -0.976747628710    -0.751767540743     1.625530815842
    H            0.083708360524     0.613077355267     1.671270220306
    C            1.147238787724    -1.027252318371    -0.240102306445
    O           -0.698595607367     0.018614358930    -1.271271730783
    C            2.348380577614    -0.079035522128    -0.319311681879
    H            1.145162515145    -1.681082034465    -1.101671916937
    H            1.216903588868    -1.635519287002     0.654767330957
    H            2.303391437285     0.516645732341    -1.221996534001
    H            3.272333817277    -0.643208743096    -0.331890559008
    H            2.384928214317     0.594528157260     0.529244190738

  Mulliken Charges: (a.u.)
   Center  Symbol    Alpha    Beta     Spin     Total
       1     H     0.44956  0.44956  0.00000  0.10089
       2     C     3.14115  3.14115  0.00000 -0.28231
       3     C     3.10620  3.10620  0.00000 -0.21239
       4     H     0.44578  0.44578  0.00000  0.10843
       5     H     0.45073  0.45073  0.00000  0.09855
       6     C     2.86199  2.86199  0.00000  0.27602
       7     H     0.44492  0.44492  0.00000  0.11017
       8     H     0.44527  0.44527  0.00000  0.10946
       9     C     3.09584  3.09584  0.00000 -0.19168
      10     O     4.17732  4.17732  0.00000 -0.35465
      11     C     3.14968  3.14968  0.00000 -0.29937
      12     H     0.43831  0.43831  0.00000  0.12337
      13     H     0.44958  0.44958  0.00000  0.10083
      14     H     0.44359  0.44359  0.00000  0.11282
      15     H     0.44587  0.44587  0.00000  0.10826
      16     H     0.45420  0.45420  0.00000  0.09160

   Total alpha = 24.00000, Total beta = 24.00000, Total charge =  0.00000
