  ==> Input File <==

--------------------------------------------------------------------------
set {
	reference rhf
	basis cc-pvtz
}

set_num_threads( 4 )
memory 2 gb

molecule MOL {
0 1

H	 -2.498963	 -0.741158	 -0.729149
O	 -2.346257	 -0.289210	 0.080372
C	 -1.183935	 0.486039	 -0.009831
C	 0.062853	 -0.375310	 0.027457
H	 -1.178881	 1.094526	 -0.908634
H	 -1.184406	 1.155156	 0.838676
O	 0.769887	 -0.070599	 1.184481
H	 0.674117	 -0.183712	 -0.856027
H	 -0.220182	 -1.425568	 0.006840
C	 1.930412	 -0.813022	 1.366718
H	 2.634823	 -0.655584	 0.552904
H	 2.388171	 -0.490467	 2.290352
H	 1.714987	 -1.876750	 1.434507

	symmetry c1
}
set optking {
	frozen_dihedral = ("
		8 4 3 5
	")
}

ee = optimize('scf')
oeprop('DIPOLE', 'QUADRUPOLE', 'MULLIKEN_CHARGES')
f=open( 'psi4out.xyz', 'w' )
f.write( "13  " )
f.write( str(ee) + "\n" )
f.write( MOL.save_string_xyz() )
f.close()
--------------------------------------------------------------------------

    Molecular point group: c1
  Charge       = 0
  Multiplicity = 1
  Basis Set: CC-PVTZ
  Basis Set:
  @DF-RHF Final Energy:  -268.05512663758861
    Total Energy =                       -268.0551266375885007
    Molecular point group: c1
  Basis Set: CC-PVTZ
  Basis Set:
  Basis Set: CC-PVTZ
  Basis Set:
  @DF-RHF Final Energy:  -268.05566584105662
    Total Energy =                       -268.0556658410565660
  Basis Set: CC-PVTZ
  Basis Set:
  Basis Set: CC-PVTZ
  Basis Set:
  @DF-RHF Final Energy:  -268.05586914562906
    Total Energy =                       -268.0558691456291740
  Basis Set: CC-PVTZ
  Basis Set:
  Basis Set: CC-PVTZ
  Basis Set:
  @DF-RHF Final Energy:  -268.05587144256202
    Total Energy =                       -268.0558714425621929
  Basis Set: CC-PVTZ
  Basis Set:
  Charge       = 0
  Multiplicity = 1
  Basis Set: CC-PVTZ
  Basis Set:

    Orbital Energies (a.u.)
    -----------------------

    Doubly Occupied:

       1A    -20.553506     2A    -20.549943     3A    -11.269658
       4A    -11.267952     5A    -11.265454     6A     -1.389369
       7A     -1.365982     8A     -1.016502     9A     -0.913637
      10A     -0.843742    11A     -0.705483    12A     -0.672025
      13A     -0.665270    14A     -0.641997    15A     -0.592171
      16A     -0.568324    17A     -0.542034    18A     -0.494331
      19A     -0.481158    20A     -0.440395    21A     -0.420966

  @DF-RHF Final Energy:  -268.05587174571610

   => Energetics <=

    Nuclear Repulsion Energy =            190.7135635983166253
    One-Electron Energy =                -744.2190712089068256
    Two-Electron Energy =                 285.4496358648739260
    DFT Exchange-Correlation Energy =       0.0000000000000000
    Empirical Dispersion Energy =           0.0000000000000000
    PCM Polarization Energy =               0.0000000000000000
    EFP Energy =                            0.0000000000000000
    Total Energy =                       -268.0558717457163311
    Molecular point group: c1
  Basis Set: CC-PVTZ
  Basis Set:

  -Total Gradient:
     Atom            X                  Y                   Z
    ------   -----------------  -----------------  -----------------
       1       -0.000010158605     0.000006798646    -0.000003510733
       2        0.000013515425    -0.000028837128    -0.000010645821
       3       -0.000524983123    -0.000791633521    -0.000535744361
       4        0.000521315540     0.000826944025     0.000570455071
       5        0.000352028527     0.000532793402     0.000376813052
       6       -0.000000263060     0.000017811194     0.000000031861
       7       -0.000029808630    -0.000000780637    -0.000043934744
       8       -0.000342195023    -0.000551895690    -0.000361624700
       9        0.000002600374    -0.000000509028     0.000002186070
      10        0.000012474326    -0.000010290021     0.000002841714
      11        0.000002641227     0.000000498650     0.000001443056
      12       -0.000000049013    -0.000000358923    -0.000000765823
      13        0.000002882031    -0.000000540969     0.000002455358

  **** Optimization is complete! (in 5 steps) ****
    Final optimized geometry and variables:
    Molecular point group: c1

    Geometry (in Angstrom), charge = 0, multiplicity = 1:

    H           -2.358996099143    -0.501263441532    -1.254522631746
    O           -2.202229649031    -0.039344769743    -0.451703953581
    C           -1.019211164225     0.706158067443    -0.543000937270
    C            0.248454936266    -0.149077806215    -0.482587959252
    H           -1.023192416940     1.314809961941    -1.441949616210
    H           -1.010139173260     1.374158714355     0.304416843551
    O            0.952846316758     0.146499766266     0.681862868906
    H            0.880571346414     0.030487933011    -1.351338241016
    H           -0.035376021399    -1.199400126859    -0.494477155632
    C            2.119799033342    -0.588522731607     0.847337000488
    H            2.821135275690    -0.411735763547     0.034409678418
    H            2.577423807504    -0.277838334529     1.775112082559
    H            1.914371848805    -1.655466389936     0.897974820291

  Mulliken Charges: (a.u.)
   Center  Symbol    Alpha    Beta     Spin     Total
       1     H     0.39573  0.39573  0.00000  0.20854
       2     O     4.19900  4.19900  0.00000 -0.39800
       3     C     2.97380  2.97380  0.00000  0.05240
       4     C     2.96907  2.96907  0.00000  0.06187
       5     H     0.46885  0.46885  0.00000  0.06229
       6     H     0.44943  0.44943  0.00000  0.10114
       7     O     4.17142  4.17142  0.00000 -0.34283
       8     H     0.47820  0.47820  0.00000  0.04361
       9     H     0.47567  0.47567  0.00000  0.04865
      10     C     3.02971  3.02971  0.00000 -0.05941
      11     H     0.47244  0.47244  0.00000  0.05512
      12     H     0.44578  0.44578  0.00000  0.10844
      13     H     0.47090  0.47090  0.00000  0.05820

   Total alpha = 21.00000, Total beta = 21.00000, Total charge = -0.00000
