  ==> Input File <==

--------------------------------------------------------------------------
set {
	reference rhf
	basis 6-31G*
}

set_num_threads( 1 )
memory 2 gb

molecule MOL {
0 1

H	 -3.135461	 -1.215070	 0.001379
O	 -2.310168	 -0.871793	 -0.309793
C	 -2.026376	 0.340750	 0.341611
C	 -0.673256	 0.843270	 -0.132153
H	 -2.792215	 1.080697	 0.115987
H	 -2.013526	 0.200402	 1.421792
C	 0.486613	 -0.083066	 0.235839
H	 -0.715586	 0.970948	 -1.210718
H	 -0.508072	 1.829858	 0.297090
C	 1.539528	 -0.187378	 -0.868835
H	 0.095756	 -1.069873	 0.461574
H	 0.959059	 0.279247	 1.148179
C	 2.701530	 -1.108499	 -0.498758
H	 1.069157	 -0.549923	 -1.780443
H	 1.924854	 0.804231	 -1.098357
H	 2.352071	 -2.117040	 -0.297226
H	 3.430948	 -1.164955	 -1.301071
H	 3.215044	 -0.753934	 0.390679

	symmetry c1
}
set optking {
	frozen_dihedral = ("
		14 10 7 11,
		2 3 4 8,
		1 2 3 4
	")
}

ee = energy('scf')
oeprop('DIPOLE', 'QUADRUPOLE', 'MULLIKEN_CHARGES')
f=open( 'psi4out.xyz', 'w' )
f.write( "18  " )
f.write( str(ee) + "\n" )
f.write( MOL.save_string_xyz() )
f.close()
--------------------------------------------------------------------------

    Molecular point group: c1

    Geometry (in Angstrom), charge = 0, multiplicity = 1:

       Center              X                  Y                   Z               Mass
    ------------   -----------------  -----------------  -----------------  -----------------
           H         -3.036673589646    -1.010707079422     0.204450011621     1.007825032070
           O         -2.211380589646    -0.667430079422    -0.106721988379    15.994914619560
           C         -1.927588589646     0.545112920578     0.544682011621    12.000000000000
           C         -0.574468589646     1.047632920578     0.070918011621    12.000000000000
           H         -2.693427589646     1.285059920578     0.319058011621     1.007825032070
           H         -1.914738589646     0.404764920578     1.624863011621     1.007825032070
           C          0.585400410354     0.121296920578     0.438910011621    12.000000000000
           H         -0.616798589646     1.175310920578    -1.007646988379     1.007825032070
           H         -0.409284589646     2.034220920578     0.500161011621     1.007825032070
           C          1.638315410354     0.016984920578    -0.665763988379    12.000000000000
           H          0.194543410354    -0.865510079422     0.664645011621     1.007825032070
           H          1.057846410354     0.483609920578     1.351250011621     1.007825032070
           C          2.800317410354    -0.904136079422    -0.295686988379    12.000000000000
           H          1.167944410354    -0.345560079422    -1.577371988379     1.007825032070
           H          2.023641410354     1.008593920578    -0.895285988379     1.007825032070
           H          2.450858410354    -1.912677079422    -0.094154988379     1.007825032070
           H          3.529735410354    -0.960592079422    -1.097999988379     1.007825032070
           H          3.313831410354    -0.549571079422     0.593750011621     1.007825032070

  Charge       = 0
  Multiplicity = 1
  Basis Set: 6-31G*
  Basis Set:

    Orbital Energies (a.u.)
    -----------------------

    Doubly Occupied:

       1A    -20.553719     2A    -11.268218     3A    -11.210851
       4A    -11.208905     5A    -11.205131     6A    -11.202719
       7A     -1.360433     8A     -1.073782     9A     -1.007626
      10A     -0.912326    11A     -0.817412    12A     -0.783177
      13A     -0.705991    14A     -0.637644    15A     -0.625596
      16A     -0.581541    17A     -0.568735    18A     -0.559346
      19A     -0.520802    20A     -0.496837    21A     -0.490109
      22A     -0.467442    23A     -0.454446    24A     -0.445603
      25A     -0.429213

  @DF-RHF Final Energy:  -271.17631497697084

   => Energetics <=

    Nuclear Repulsion Energy =            250.5854165200863974
    One-Electron Energy =                -864.3480894733907007
    Two-Electron Energy =                 342.5863579763331472
    DFT Exchange-Correlation Energy =       0.0000000000000000
    Empirical Dispersion Energy =           0.0000000000000000
    PCM Polarization Energy =               0.0000000000000000
    EFP Energy =                            0.0000000000000000
    Total Energy =                       -271.1763149769711845

  Mulliken Charges: (a.u.)
   Center  Symbol    Alpha    Beta     Spin     Total
       1     H     0.28043  0.28043  0.00000  0.43914
       2     O     4.36908  4.36908  0.00000 -0.73816
       3     C     2.99992  2.99992  0.00000  0.00015
       4     C     3.16112  3.16112  0.00000 -0.32224
       5     H     0.42945  0.42945  0.00000  0.14111
       6     H     0.43265  0.43265  0.00000  0.13470
       7     C     3.15470  3.15470  0.00000 -0.30940
       8     H     0.41356  0.41356  0.00000  0.17287
       9     H     0.42220  0.42220  0.00000  0.15560
      10     C     3.15365  3.15365  0.00000 -0.30729
      11     H     0.40882  0.40882  0.00000  0.18236
      12     H     0.42613  0.42613  0.00000  0.14774
      13     C     3.23970  3.23970  0.00000 -0.47940
      14     H     0.41855  0.41855  0.00000  0.16289
      15     H     0.42523  0.42523  0.00000  0.14955
      16     H     0.42085  0.42085  0.00000  0.15830
      17     H     0.42054  0.42054  0.00000  0.15893
      18     H     0.42342  0.42342  0.00000  0.15316

   Total alpha = 25.00000, Total beta = 25.00000, Total charge =  0.00000
