  ==> Input File <==

--------------------------------------------------------------------------
set {
	reference rhf
	basis cc-pvtz
}

set_num_threads( 4 )
memory 2 gb

molecule MOL {
0 1

H	 -2.211234	 -1.010001	 0.667849
O	 -2.346257	 -0.289210	 0.080372
C	 -1.183935	 0.486039	 -0.009831
C	 0.062853	 -0.375310	 0.027457
H	 -1.178881	 1.094526	 -0.908634
H	 -1.184406	 1.155156	 0.838676
O	 1.172093	 0.457955	 -0.054438
H	 0.052476	 -1.081302	 -0.804627
H	 0.076323	 -0.955658	 0.947560
C	 2.395478	 -0.199028	 -0.000366
H	 2.505946	 -0.901710	 -0.823354
H	 3.174616	 0.545641	 -0.071768
H	 2.513730	 -0.742241	 0.934223

	symmetry c1
}
set optking {
	frozen_dihedral = ("
		1 2 3 5
	")
}

ee = optimize('scf')
oeprop('DIPOLE', 'QUADRUPOLE', 'MULLIKEN_CHARGES')
f=open( 'psi4out.xyz', 'w' )
f.write( "13  " )
f.write( str(ee) + "\n" )
f.write( MOL.save_string_xyz() )
f.close()
--------------------------------------------------------------------------

    Molecular point group: c1
  Charge       = 0
  Multiplicity = 1
  Basis Set: CC-PVTZ
  Basis Set:
  @DF-RHF Final Energy:  -268.05935218435673
    Total Energy =                       -268.0593521843564417
    Molecular point group: c1
  Basis Set: CC-PVTZ
  Basis Set:
  Basis Set: CC-PVTZ
  Basis Set:
  @DF-RHF Final Energy:  -268.06070045729552
    Total Energy =                       -268.0607004572954679
  Basis Set: CC-PVTZ
  Basis Set:
  Basis Set: CC-PVTZ
  Basis Set:
  @DF-RHF Final Energy:  -268.06096771466235
    Total Energy =                       -268.0609677146621834
  Basis Set: CC-PVTZ
  Basis Set:
  Basis Set: CC-PVTZ
  Basis Set:
  @DF-RHF Final Energy:  -268.06097200093143
    Total Energy =                       -268.0609720009312014
  Basis Set: CC-PVTZ
  Basis Set:
  Charge       = 0
  Multiplicity = 1
  Basis Set: CC-PVTZ
  Basis Set:

    Orbital Energies (a.u.)
    -----------------------

    Doubly Occupied:

       1A    -20.559356     2A    -20.552103     3A    -11.274707
       4A    -11.270273     5A    -11.267310     6A     -1.395436
       7A     -1.368804     8A     -1.021543     9A     -0.915613
      10A     -0.848894    11A     -0.705315    12A     -0.681143
      13A     -0.669933    14A     -0.633711    15A     -0.601697
      16A     -0.579965    17A     -0.546178    18A     -0.497606
      19A     -0.476701    20A     -0.443440    21A     -0.428107

  @DF-RHF Final Energy:  -268.06097238690705

   => Energetics <=

    Nuclear Repulsion Energy =            190.6684578361143281
    One-Electron Energy =                -743.9831841043753684
    Two-Electron Energy =                 285.2537538813539868
    DFT Exchange-Correlation Energy =       0.0000000000000000
    Empirical Dispersion Energy =           0.0000000000000000
    PCM Polarization Energy =               0.0000000000000000
    EFP Energy =                            0.0000000000000000
    Total Energy =                       -268.0609723869069967
    Molecular point group: c1
  Basis Set: CC-PVTZ
  Basis Set:

  -Total Gradient:
     Atom            X                  Y                   Z
    ------   -----------------  -----------------  -----------------
       1        0.000912303296    -0.001489500020    -0.001851264091
       2       -0.000915871232     0.001448231294     0.002080010826
       3       -0.001087749592     0.001681186123     0.000761429060
       4       -0.000028931288     0.000022484811    -0.000007208610
       5        0.001075537501    -0.001643593863    -0.000965423102
       6        0.000007132312    -0.000022061545    -0.000006616283
       7        0.000032706950    -0.000001443804    -0.000002503701
       8        0.000004281906    -0.000011068581     0.000002038021
       9       -0.000006336351     0.000014353896    -0.000016173594
      10        0.000001578246     0.000003293431     0.000013040074
      11        0.000000145786     0.000001942314    -0.000002670346
      12       -0.000000260583    -0.000000647095    -0.000004705266
      13        0.000005463054    -0.000003176961     0.000000047012

  **** Optimization is complete! (in 5 steps) ****
    Final optimized geometry and variables:
    Molecular point group: c1

    Geometry (in Angstrom), charge = 0, multiplicity = 1:

    H           -2.257802915830    -0.990355697437     0.644399797361
    O           -2.353737256161    -0.288115474301     0.027031172999
    C           -1.187748099810     0.485999413733    -0.021308901784
    C            0.062219708724    -0.371289282500     0.018943757770
    H           -1.205604174443     1.026840337168    -0.956762728009
    H           -1.158686928799     1.205687856741     0.790167203296
    O            1.169071774152     0.464635457618    -0.034838267189
    H            0.056798165712    -1.066099187369    -0.819110246062
    H            0.077644059801    -0.963760459182     0.936701881456
    C            2.393732553171    -0.193161901031    -0.029935896985
    H            2.492456871944    -0.854885955820    -0.887144044941
    H            3.170741608370     0.555462143878    -0.075884310598
    H            2.525664509398    -0.780277487686     0.876139659241

  Mulliken Charges: (a.u.)
   Center  Symbol    Alpha    Beta     Spin     Total
       1     H     0.39437  0.39437  0.00000  0.21126
       2     O     4.20223  4.20223  0.00000 -0.40445
       3     C     2.96006  2.96006  0.00000  0.07987
       4     C     2.97294  2.97294  0.00000  0.05412
       5     H     0.45725  0.45725  0.00000  0.08550
       6     H     0.46903  0.46903  0.00000  0.06195
       7     O     4.17329  4.17329  0.00000 -0.34657
       8     H     0.46868  0.46868  0.00000  0.06263
       9     H     0.48360  0.48360  0.00000  0.03279
      10     C     3.03264  3.03264  0.00000 -0.06527
      11     H     0.46980  0.46980  0.00000  0.06040
      12     H     0.44515  0.44515  0.00000  0.10970
      13     H     0.47096  0.47096  0.00000  0.05809

   Total alpha = 21.00000, Total beta = 21.00000, Total charge = -0.00000
