  ==> Input File <==

--------------------------------------------------------------------------
set {
	reference rhf
	basis 6-31G*
}

set_num_threads( 4 )
memory 2 gb

molecule MOL {
0 1

H	 -3.970048	 0.820419	 -0.462920
C	 -3.243409	 0.274003	 0.106365
C	 -2.116093	 -0.096713	 -0.455533
H	 -3.462338	 0.043567	 1.131977
O	 -1.180634	 -0.819263	 0.215062
H	 -1.874669	 0.130311	 -1.478944
C	 0.051604	 -1.018856	 -0.387932
C	 1.043764	 0.054862	 -0.001873
H	 -0.017620	 -1.041351	 -1.469781
H	 0.437898	 -1.966374	 -0.042284
F	 2.212596	 -0.199467	 -0.571921
F	 0.652529	 1.252447	 -0.405055
F	 1.230877	 0.110694	 1.300533

	symmetry c1
}
set optking {
	frozen_dihedral = ("
		3 5 7 9
	")
}

ee = optimize('scf')
oeprop('DIPOLE', 'QUADRUPOLE', 'MULLIKEN_CHARGES')
f=open( 'psi4out.xyz', 'w' )
f.write( "13  " )
f.write( str(ee) + "\n" )
f.write( MOL.save_string_xyz() )
f.close()
--------------------------------------------------------------------------

    Molecular point group: c1
  Charge       = 0
  Multiplicity = 1
  Basis Set: 6-31G*
  Basis Set:
  @DF-RHF Final Energy:  -527.53581644232884
    Total Energy =                       -527.5358164423284961
    Molecular point group: c1
  Basis Set: 6-31G*
  Basis Set:
  Basis Set: 6-31G*
  Basis Set:
  @DF-RHF Final Energy:  -527.53584001062791
    Total Energy =                       -527.5358400106274530
  Basis Set: 6-31G*
  Basis Set:
  Basis Set: 6-31G*
  Basis Set:
  @DF-RHF Final Energy:  -527.53584811279677
    Total Energy =                       -527.5358481127964296
  Basis Set: 6-31G*
  Basis Set:
  Basis Set: 6-31G*
  Basis Set:
  @DF-RHF Final Energy:  -527.53585144055523
    Total Energy =                       -527.5358514405552341
  Basis Set: 6-31G*
  Basis Set:
  Charge       = 0
  Multiplicity = 1
  Basis Set: 6-31G*
  Basis Set:

    Orbital Energies (a.u.)
    -----------------------

    Doubly Occupied:

       1A    -26.344352     2A    -26.343130     3A    -26.340246
       4A    -20.608539     5A    -11.502722     6A    -11.319099
       7A    -11.299952     8A    -11.215744     9A     -1.741356
      10A     -1.639511    11A     -1.637892    12A     -1.438572
      13A     -1.084668    14A     -1.016242    15A     -0.925046
      16A     -0.836566    17A     -0.830743    18A     -0.819799
      19A     -0.793246    20A     -0.721927    21A     -0.711296
      22A     -0.696704    23A     -0.675990    24A     -0.659988
      25A     -0.654325    26A     -0.642749    27A     -0.633600
      28A     -0.584284    29A     -0.563161    30A     -0.524265
      31A     -0.515224    32A     -0.351236

  @DF-RHF Final Energy:  -527.53585236839353

   => Energetics <=

    Nuclear Repulsion Energy =            412.9814578313182096
    One-Electron Energy =               -1549.6902707203587397
    Two-Electron Energy =                 609.1729605206469387
    DFT Exchange-Correlation Energy =       0.0000000000000000
    Empirical Dispersion Energy =           0.0000000000000000
    PCM Polarization Energy =               0.0000000000000000
    EFP Energy =                            0.0000000000000000
    Total Energy =                       -527.5358523683935346
    Molecular point group: c1
  Basis Set: 6-31G*
  Basis Set:

  -Total Gradient:
     Atom            X                  Y                   Z
    ------   -----------------  -----------------  -----------------
       1       -0.000006160941    -0.000011243081    -0.000004374151
       2       -0.000008631514     0.000030578440    -0.000002712227
       3       -0.000140617398    -0.000496324670    -0.000205258482
       4        0.000005019230     0.000005626170     0.000000421750
       5        0.000318634399     0.000954660840     0.000325204534
       6       -0.000016603318    -0.000016746044    -0.000012801438
       7       -0.000255225838    -0.001185890483    -0.000078825134
       8       -0.000037883678     0.000038739405     0.000021468428
       9        0.000126291823     0.000744792618    -0.000039493250
      10       -0.000006878244     0.000015376851     0.000001714046
      11        0.000047985896     0.000019390198    -0.000038036459
      12       -0.000025390799    -0.000120713586     0.000022363500
      13       -0.000000539602     0.000021753346     0.000010328878

  **** Optimization is complete! (in 5 steps) ****
    Final optimized geometry and variables:
    Molecular point group: c1

    Geometry (in Angstrom), charge = 0, multiplicity = 1:

    H           -3.955581060067     0.844151257938    -0.449044123189
    C           -3.237141155139     0.286559596558     0.119799349398
    C           -2.096666900191    -0.062385884156    -0.429461497373
    H           -3.474525296354     0.028112710238     1.134638473985
    O           -1.166975435142    -0.791412564270     0.240942980298
    H           -1.837545966898     0.193466295674    -1.441709431473
    C            0.061501735003    -1.009006533731    -0.363907257121
    C            1.052150034592     0.070910134253     0.007178403410
    H           -0.009753625001    -1.037081042716    -1.445227593039
    H            0.447214991177    -1.953852356871    -0.010286028672
    F            2.218507740247    -0.180877787083    -0.569287814536
    F            0.649282019068     1.261897526630    -0.402994158410
    F            1.248705423964     0.138341502457     1.307666179448

  Mulliken Charges: (a.u.)
   Center  Symbol    Alpha    Beta     Spin     Total
       1     H     0.40710  0.40710  0.00000  0.18579
       2     C     3.23611  3.23611  0.00000 -0.47222
       3     C     2.89467  2.89467  0.00000  0.21067
       4     H     0.40176  0.40176  0.00000  0.19649
       5     O     4.30185  4.30185  0.00000 -0.60370
       6     H     0.40698  0.40698  0.00000  0.18603
       7     C     3.06342  3.06342  0.00000 -0.12685
       8     C     2.45490  2.45490  0.00000  1.09020
       9     H     0.40566  0.40566  0.00000  0.18867
      10     H     0.39028  0.39028  0.00000  0.21944
      11     F     4.68296  4.68296  0.00000 -0.36593
      12     F     4.67964  4.67964  0.00000 -0.35929
      13     F     4.67465  4.67465  0.00000 -0.34930

   Total alpha = 32.00000, Total beta = 32.00000, Total charge = -0.00000
