  ==> Input File <==

--------------------------------------------------------------------------
set {
	reference rhf
	basis 6-31G*
}

set_num_threads( 4 )
memory 2 gb

molecule MOL {
0 1

H	 -2.356945	 -0.818374	 -2.171203
C	 -1.859713	 -0.525274	 -1.265538
C	 -2.578661	 -0.053198	 -0.180547
C	 -0.487577	 -0.616299	 -1.171176
H	 -3.649598	 0.025136	 -0.234399
C	 -1.925445	 0.320486	 0.978935
H	 0.096903	 -0.977170	 -1.991500
C	 0.154804	 -0.237046	 -0.000077
H	 -2.501226	 0.684111	 1.809808
C	 -0.540736	 0.243953	 1.114325
N	 1.611208	 -0.370857	 -0.000034
C	 0.068545	 0.679515	 2.428857
O	 2.274126	 0.622059	 -0.008063
O	 2.068510	 -1.474748	 0.007823
H	 0.760684	 1.499189	 2.293928
H	 -0.721459	 0.998430	 3.097109
H	 0.616661	 -0.125250	 2.899013

	symmetry c1
}
set optking {
	frozen_dihedral = ("
		4 8 11 13
	")
}

ee = optimize('scf')
oeprop('DIPOLE', 'QUADRUPOLE', 'MULLIKEN_CHARGES')
f=open( 'psi4out.xyz', 'w' )
f.write( "17  " )
f.write( str(ee) + "\n" )
f.write( MOL.save_string_xyz() )
f.close()
--------------------------------------------------------------------------

    Molecular point group: c1
  Charge       = 0
  Multiplicity = 1
  Basis Set: 6-31G*
  Basis Set:
  @DF-RHF Final Energy:  -473.19986803554491
    Total Energy =                       -473.1998680355454781
    Molecular point group: c1
  Basis Set: 6-31G*
  Basis Set:
  Basis Set: 6-31G*
  Basis Set:
  @DF-RHF Final Energy:  -473.19570486227144
    Total Energy =                       -473.1957048622712136
  Basis Set: 6-31G*
  Basis Set:
  Basis Set: 6-31G*
  Basis Set:
  @DF-RHF Final Energy:  -473.20055864146190
    Total Energy =                       -473.2005586414622940
  Basis Set: 6-31G*
  Basis Set:
  Basis Set: 6-31G*
  Basis Set:
  @DF-RHF Final Energy:  -473.20219606440634
    Total Energy =                       -473.2021960644063938
  Basis Set: 6-31G*
  Basis Set:
  @DF-RHF Final Energy:  -473.20229879628351
    Total Energy =                       -473.2022987962836851
  Basis Set: 6-31G*
  Basis Set:
  @DF-RHF Final Energy:  -473.20235130849295
    Total Energy =                       -473.2023513084930073
  Basis Set: 6-31G*
  Basis Set:
  Basis Set: 6-31G*
  Basis Set:
  @DF-RHF Final Energy:  -473.20237340813787
    Total Energy =                       -473.2023734081376460
  Basis Set: 6-31G*
  Basis Set:
  Basis Set: 6-31G*
  Basis Set:
  @DF-RHF Final Energy:  -473.20237611826417
    Total Energy =                       -473.2023761182642829
  Basis Set: 6-31G*
  Basis Set:
  Charge       = 0
  Multiplicity = 1
  Basis Set: 6-31G*
  Basis Set:

    Orbital Energies (a.u.)
    -----------------------

    Doubly Occupied:

       1A    -20.605343     2A    -20.604705     3A    -15.853110
       4A    -11.301876     5A    -11.276941     6A    -11.267538
       7A    -11.259055     8A    -11.256079     9A    -11.255112
      10A    -11.239643    11A     -1.636056    12A     -1.419701
      13A     -1.202246    14A     -1.092170    15A     -1.072968
      16A     -0.979416    17A     -0.935537    18A     -0.853200
      19A     -0.819949    20A     -0.772102    21A     -0.733942
      22A     -0.729441    23A     -0.695740    24A     -0.653558
      25A     -0.636589    26A     -0.599998    27A     -0.598443
      28A     -0.570028    29A     -0.542184    30A     -0.527633
      31A     -0.520703    32A     -0.492084    33A     -0.479104
      34A     -0.450145    35A     -0.364402    36A     -0.353482

  @DF-RHF Final Energy:  -473.20237650340727

   => Energetics <=

    Nuclear Repulsion Energy =            509.8224418053062550
    One-Electron Energy =               -1654.7491905536780905
    Two-Electron Energy =                 671.7243722449643428
    DFT Exchange-Correlation Energy =       0.0000000000000000
    Empirical Dispersion Energy =           0.0000000000000000
    PCM Polarization Energy =               0.0000000000000000
    EFP Energy =                            0.0000000000000000
    Total Energy =                       -473.2023765034075495
    Molecular point group: c1
  Basis Set: 6-31G*
  Basis Set:

  -Total Gradient:
     Atom            X                  Y                   Z
    ------   -----------------  -----------------  -----------------
       1        0.000006743080    -0.000001031961    -0.000001988160
       2       -0.000093749793     0.000044751707     0.000042542533
       3        0.000005245508    -0.000034118354    -0.000094794558
       4        0.000336886788     0.003084445779    -0.001040669283
       5       -0.000002307629     0.000002752483     0.000007508553
       6        0.000085552182     0.000007501869     0.000040225943
       7       -0.000003781331     0.000000970238    -0.000004052992
       8       -0.000307799677    -0.004442013727     0.000073824160
       9       -0.000008780492     0.000001970118    -0.000007474926
      10       -0.000088523356    -0.000000522959     0.000038285730
      11       -0.000134846317     0.001327517302     0.004773205784
      12        0.000011158255    -0.000018960212    -0.000002614064
      13        0.000177458883    -0.000006960399    -0.003821194667
      14        0.000015093692     0.000012503962     0.000003181767
      15        0.000006985778     0.000013379901     0.000002852255
      16        0.000000798275     0.000001768271    -0.000005538055
      17       -0.000006133848     0.000006045976    -0.000003300019

  **** Optimization is complete! (in 9 steps) ****
    Final optimized geometry and variables:
    Molecular point group: c1

    Geometry (in Angstrom), charge = 0, multiplicity = 1:

    H           -2.314858430509    -0.660342074712    -2.420012558620
    C           -1.825877502249    -0.376614360193    -1.506719660730
    C           -2.556426131994     0.112684717280    -0.437514908679
    C           -0.453424166862    -0.504076319508    -1.389368765743
    H           -3.624172858450     0.208394916545    -0.515817456162
    C           -1.921747041274     0.480556178478     0.737927935669
    H            0.141652700813    -0.893410811731    -2.193939197245
    C            0.148414822073    -0.126778534266    -0.207835237510
    H           -2.504544879937     0.854798956922     1.560079710854
    C           -0.542825306256     0.384330762316     0.880181396501
    N            1.607338013541    -0.227583499788    -0.146797865768
    C            0.150271285853     0.810947380417     2.153007440045
    O            2.225919703469     0.792076886222    -0.121490240615
    O            2.081276777794    -1.321793997032    -0.165946155416
    H            0.708182608094     1.727120632460     2.000799562707
    H           -0.577211237753     0.977832034951     2.936890897718
    H            0.846719816958     0.054899707667     2.498745224391

  Mulliken Charges: (a.u.)
   Center  Symbol    Alpha    Beta     Spin     Total
       1     H     0.38978  0.38978  0.00000  0.22043
       2     C     3.10936  3.10936  0.00000 -0.21873
       3     C     3.08745  3.08745  0.00000 -0.17490
       4     C     3.08235  3.08235  0.00000 -0.16470
       5     H     0.39098  0.39098  0.00000  0.21804
       6     C     3.11985  3.11985  0.00000 -0.23971
       7     H     0.37563  0.37563  0.00000  0.24875
       8     C     2.91103  2.91103  0.00000  0.17794
       9     H     0.39271  0.39271  0.00000  0.21457
      10     C     2.96761  2.96761  0.00000  0.06477
      11     N     3.26429  3.26429  0.00000  0.47142
      12     C     3.25624  3.25624  0.00000 -0.51248
      13     O     4.22569  4.22569  0.00000 -0.45138
      14     O     4.22436  4.22436  0.00000 -0.44872
      15     H     0.39183  0.39183  0.00000  0.21633
      16     H     0.40865  0.40865  0.00000  0.18271
      17     H     0.40218  0.40218  0.00000  0.19564

   Total alpha = 36.00000, Total beta = 36.00000, Total charge =  0.00000
