                              Psi4 1.0.54 Driver

  ==> Input File <==

--------------------------------------------------------------------------
set {
	reference rhf
	basis cc-pvtz
}

set_num_threads( 4 )
memory 2 gb

molecule MOL {
0 1

H	 -1.463909	 2.986393	 2.435671
O	 -0.655564	 2.496983	 2.463499
C	 -0.529768	 1.826509	 1.321757
C	 0.737495	 1.016003	 1.287770
O	 -1.341925	 1.886148	 0.464543
C	 0.926581	 0.227233	 0.000178
H	 0.720849	 0.361191	 2.153028
H	 1.560528	 1.703524	 1.454054
C	 2.220156	 -0.582071	 -0.000088
H	 0.079180	 -0.433912	 -0.142063
H	 0.919889	 0.910067	 -0.841912
C	 3.466689	 0.296012	 -0.000457
H	 2.239073	 -1.234095	 -0.869382
H	 2.239505	 -1.233985	 0.869270
H	 3.493549	 0.935857	 -0.875887
H	 4.368821	 -0.304526	 -0.001199
H	 3.494559	 0.935166	 0.875458

	symmetry c1
}
set optking {
	frozen_dihedral = ("
		10 6 9 13
	")
}

ee,wfn = optimize('scf', return_wfn=True)
oeprop( wfn, 'DIPOLE', 'QUADRUPOLE', 'MULLIKEN_CHARGES')
f=open( 'psi4out.xyz', 'w' )
f.write( "17  " )
f.write( str(ee) + "\n" )
f.write( MOL.save_string_xyz() )
f.close()
--------------------------------------------------------------------------

    Molecular point group: c1
  Charge       = 0
  Multiplicity = 1
  Basis Set: CC-PVTZ
  Basis Set:
  @DF-RHF Final Energy:  -345.04666570575426
    Total Energy =                       -345.0466657057539805
    Molecular point group: c1
  Basis Set: CC-PVTZ
  Basis Set:
  Basis Set: CC-PVTZ
  Basis Set:
  @DF-RHF Final Energy:  -345.04694422875065
    Total Energy =                       -345.0469442287505331
  Basis Set: CC-PVTZ
  Basis Set:
  Basis Set: CC-PVTZ
  Basis Set:
  @DF-RHF Final Energy:  -345.04703943708881
    Total Energy =                       -345.0470394370888698
  Basis Set: CC-PVTZ
  Basis Set:
  Basis Set: CC-PVTZ
  Basis Set:
  @DF-RHF Final Energy:  -345.04718510099184
    Total Energy =                       -345.0471851009916691
  Basis Set: CC-PVTZ
  Basis Set:
  Basis Set: CC-PVTZ
  Basis Set:
  @DF-RHF Final Energy:  -345.04726988634752
    Total Energy =                       -345.0472698863475216
  Basis Set: CC-PVTZ
  Basis Set:
  Basis Set: CC-PVTZ
  Basis Set:
  @DF-RHF Final Energy:  -345.04727126232962
    Total Energy =                       -345.0472712623297866
  Basis Set: CC-PVTZ
  Basis Set:
  Charge       = 0
  Multiplicity = 1
  Basis Set: CC-PVTZ
  Basis Set:

    Orbital Energies (a.u.)
    -----------------------

    Doubly Occupied:

       1A    -20.604003     2A    -20.540631     3A    -11.373619
       4A    -11.238924     5A    -11.221517     6A    -11.220900
       7A    -11.212814     8A     -1.477602     9A     -1.369128
      10A     -1.092746    11A     -1.017297    12A     -0.919845
      13A     -0.831895    14A     -0.780519    15A     -0.703779
      16A     -0.693296    17A     -0.667735    18A     -0.622316
      19A     -0.611594    20A     -0.585182    21A     -0.563234
      22A     -0.545156    23A     -0.519476    24A     -0.484865
      25A     -0.478544    26A     -0.474659    27A     -0.471400
      28A     -0.447008

  @DF-RHF Final Energy:  -345.04727131772552

   => Energetics <=

    Nuclear Repulsion Energy =            307.9368545795861110
    One-Electron Energy =               -1080.4288783629390309
    Two-Electron Energy =                 427.4447524656271753
    DFT Exchange-Correlation Energy =       0.0000000000000000
    Empirical Dispersion Energy =           0.0000000000000000
    PCM Polarization Energy =               0.0000000000000000
    EFP Energy =                            0.0000000000000000
    Total Energy =                       -345.0472713177257447
    Molecular point group: c1
  Basis Set: CC-PVTZ
  Basis Set:

  -Total Gradient:
     Atom            X                  Y                   Z
    ------   -----------------  -----------------  -----------------
       1        0.000001212715    -0.000001510117    -0.000001614186
       2       -0.000006852962     0.000003272928     0.000021053957
       3        0.000008379562     0.000011532411    -0.000040536480
       4       -0.000004878354     0.000003680915     0.000009101280
       5        0.000007776909    -0.000006804694     0.000017856589
       6       -0.000042794196    -0.000075884131     0.000243225826
       7        0.000000583523    -0.000000379798    -0.000003740649
       8       -0.000008221604     0.000003499744     0.000002002395
       9        0.000098170117     0.000162353149    -0.000173427537
      10        0.000008149167     0.000024981575    -0.000177915790
      11        0.000004672480    -0.000005529410     0.000004864124
      12        0.000017684421     0.000002873186     0.000010603317
      13       -0.000083842088    -0.000128524543     0.000094085520
      14       -0.000003331612     0.000006407073    -0.000004758534
      15       -0.000002057975    -0.000004819774     0.000001133983
      16       -0.000001658427     0.000006461568     0.000003180851
      17        0.000007008326    -0.000001610074    -0.000005114666

  **** Optimization is complete! (in 7 steps) ****
    Final optimized geometry and variables:
    Molecular point group: c1

    Geometry (in Angstrom), charge = 0, multiplicity = 1:

    H           -2.186762617403     1.868596989298     1.650943532912
    O           -1.359200263466     1.411985893345     1.670222315593
    C           -1.215759051887     0.753112414064     0.523577467308
    C            0.084446674386    -0.003019566149     0.475013426073
    O           -2.036030317811     0.786336894261    -0.327268861183
    C            0.286085913847    -0.779863670712    -0.819719163190
    H            0.100612288364    -0.663922185759     1.335981614567
    H            0.873079268947     0.721050386952     0.642450177891
    C            1.569407286509    -1.611027928431    -0.843620713513
    H           -0.564576889327    -1.433691596139    -0.967951756495
    H            0.281412330413    -0.089016579393    -1.655664430286
    C            2.859694990310    -0.794764347861    -0.849517277538
    H            1.548525660526    -2.236850539028    -1.729609123882
    H            1.575761740885    -2.290878911313     0.004523310295
    H            2.879116092458    -0.104177548440    -1.686241542006
    H            3.723501799140    -1.443260544250    -0.937303966751
    H            2.981508177998    -0.216994825590     0.059335254523

  Mulliken Charges: (a.u.)
   Center  Symbol    Alpha    Beta     Spin     Total
       1     H     0.38235  0.38235  0.00000  0.23530
       2     O     4.16023  4.16023  0.00000 -0.32046
       3     C     2.80350  2.80350  0.00000  0.39301
       4     C     3.11235  3.11235  0.00000 -0.22469
       5     O     4.19110  4.19110  0.00000 -0.38219
       6     C     3.08923  3.08923  0.00000 -0.17845
       7     H     0.43797  0.43797  0.00000  0.12405
       8     H     0.43735  0.43735  0.00000  0.12531
       9     C     3.09381  3.09381  0.00000 -0.18762
      10     H     0.44059  0.44059  0.00000  0.11882
      11     H     0.44596  0.44596  0.00000  0.10807
      12     C     3.15259  3.15259  0.00000 -0.30519
      13     H     0.44517  0.44517  0.00000  0.10966
      14     H     0.45469  0.45469  0.00000  0.09061
      15     H     0.45289  0.45289  0.00000  0.09422
      16     H     0.44513  0.44513  0.00000  0.10974
      17     H     0.45509  0.45509  0.00000  0.08981

   Total alpha = 28.00000, Total beta = 28.00000, Total charge = -0.00000

*** Psi4 exiting successfully. Buy a developer a beer!
