  ==> Input File <==

--------------------------------------------------------------------------
set {
	reference rhf
	basis cc-pvtz
}

set_num_threads( 4 )
memory 2 gb

molecule MOL {
0 1

H	 2.646708	 0.758099	 0.000000
O	 2.258158	 -0.097743	 0.000000
C	 0.911162	 -0.015915	 0.000000
C	 0.271874	 0.022920	 -1.228253
C	 0.172168	 0.028977	 1.167173
H	 0.861173	 -0.012879	 -2.123209
C	 -1.102789	 0.106429	 -1.277267
H	 0.668158	 -0.001153	 2.120450
C	 -1.207431	 0.112786	 1.102791
H	 -1.592821	 0.136198	 -2.231930
C	 -1.854178	 0.152075	 -0.114626
H	 -1.773741	 0.147189	 2.014073
H	 -2.923546	 0.217037	 -0.160761

	symmetry c1
}
set optking {
	frozen_dihedral = ("
		4 3 2 1
	")
}

ee = optimize('scf')
oeprop('DIPOLE', 'QUADRUPOLE', 'MULLIKEN_CHARGES')
f=open( 'psi4out.xyz', 'w' )
f.write( "13  " )
f.write( str(ee) + "\n" )
f.write( MOL.save_string_xyz() )
f.close()
--------------------------------------------------------------------------

    Molecular point group: c1
  Charge       = 0
  Multiplicity = 1
  Basis Set: CC-PVTZ
  Basis Set:
  @DF-RHF Final Energy:  -305.66535827662921
    Total Energy =                       -305.6653582766290924
    Molecular point group: c1
  Basis Set: CC-PVTZ
  Basis Set:
  Basis Set: CC-PVTZ
  Basis Set:
  @DF-RHF Final Energy:  -305.66618384342786
    Total Energy =                       -305.6661838434277456
  Basis Set: CC-PVTZ
  Basis Set:
  Basis Set: CC-PVTZ
  Basis Set:
  @DF-RHF Final Energy:  -305.66624517016425
    Total Energy =                       -305.6662451701644159
  Basis Set: CC-PVTZ
  Basis Set:
  Basis Set: CC-PVTZ
  Basis Set:
  @DF-RHF Final Energy:  -305.66625194178135
    Total Energy =                       -305.6662519417810131
  Basis Set: CC-PVTZ
  Basis Set:
  Charge       = 0
  Multiplicity = 1
  Basis Set: CC-PVTZ
  Basis Set:

    Orbital Energies (a.u.)
    -----------------------

    Doubly Occupied:

       1A    -20.570852     2A    -11.288634     3A    -11.233354
       4A    -11.233252     5A    -11.225928     6A    -11.225565
       7A    -11.225450     8A     -1.397537     9A     -1.153355
      10A     -1.022370    11A     -1.008341    12A     -0.839571
      13A     -0.828677    14A     -0.737976    15A     -0.684110
      16A     -0.651581    17A     -0.632881    18A     -0.596754
      19A     -0.592087    20A     -0.525525    21A     -0.517903
      22A     -0.498596    23A     -0.471235    24A     -0.341847
      25A     -0.329874

  @DF-RHF Final Energy:  -305.66625306693538

   => Energetics <=

    Nuclear Repulsion Energy =            273.2974501086806640
    One-Electron Energy =                -956.2608966762686578
    Two-Electron Energy =                 377.2971935006527247
    DFT Exchange-Correlation Energy =       0.0000000000000000
    Empirical Dispersion Energy =           0.0000000000000000
    PCM Polarization Energy =               0.0000000000000000
    EFP Energy =                            0.0000000000000000
    Total Energy =                       -305.6662530669352691
    Molecular point group: c1
  Basis Set: CC-PVTZ
  Basis Set:

  -Total Gradient:
     Atom            X                  Y                   Z
    ------   -----------------  -----------------  -----------------
       1        0.000003631744     0.000015160868     0.000092811292
       2        0.000175113968    -0.000041931616    -0.000138836599
       3       -0.000242434311     0.000073613945     0.000247066279
       4       -0.000026001551    -0.000067793100    -0.000099880735
       5        0.000183177498     0.000004287905    -0.000049328033
       6       -0.000024933551    -0.000007531307     0.000022280935
       7        0.000085051441     0.000050354085    -0.000049674500
       8        0.000028367515    -0.000011467906    -0.000006689176
       9       -0.000154274123     0.000039635017    -0.000101101063
      10       -0.000038917602    -0.000008085505     0.000008045676
      11        0.000002103813    -0.000040102573     0.000133269129
      12        0.000015094959    -0.000004069541    -0.000014440304
      13       -0.000005979793    -0.000002070272    -0.000043522902

  **** Optimization is complete! (in 5 steps) ****
    Final optimized geometry and variables:
    Molecular point group: c1

    Geometry (in Angstrom), charge = 0, multiplicity = 1:

    H            2.667722404244     0.690896364196     0.081041935766
    O            2.266076733413    -0.160155514699     0.086669079548
    C            0.903602068610    -0.047662678141     0.034375216528
    C            0.261924482924    -0.019568854451    -1.188824642545
    C            0.172216137150    -0.011255959736     1.205258387473
    H            0.845589867017    -0.065568871569    -2.087721277452
    C           -1.117121737296     0.055327054926    -1.237174805329
    H            0.687153874885    -0.050254717484     2.145534206723
    C           -1.207025929066     0.062947469246     1.149257806024
    H           -1.613837954338     0.076343928708    -2.188469618870
    C           -1.856533399793     0.098468102502    -0.070027164213
    H           -1.773370214799     0.090217773885     2.060604696062
    H           -2.927159968792     0.153969563221    -0.110850631910

  Mulliken Charges: (a.u.)
   Center  Symbol    Alpha    Beta     Spin     Total
       1     H     0.38846  0.38846  0.00000  0.22308
       2     O     4.19266  4.19266  0.00000 -0.38533
       3     C     2.87278  2.87278  0.00000  0.25443
       4     C     3.11026  3.11026  0.00000 -0.22053
       5     C     3.10967  3.10967  0.00000 -0.21935
       6     H     0.41726  0.41726  0.00000  0.16548
       7     C     3.06958  3.06958  0.00000 -0.13917
       8     H     0.41709  0.41709  0.00000  0.16581
       9     C     3.06954  3.06954  0.00000 -0.13908
      10     H     0.42160  0.42160  0.00000  0.15680
      11     C     3.08649  3.08649  0.00000 -0.17297
      12     H     0.42158  0.42158  0.00000  0.15684
      13     H     0.42301  0.42301  0.00000  0.15398

   Total alpha = 25.00000, Total beta = 25.00000, Total charge =  0.00000
