  ==> Input File <==

--------------------------------------------------------------------------
set {
	reference rhf
	basis cc-pvtz
}

set_num_threads( 4 )
memory 2 gb

molecule MOL {
0 1

H	 -0.385402	 1.392291	 -2.215491
C	 -1.126751	 1.131993	 -1.466967
O	 -0.775228	 0.000056	 -0.739966
H	 -2.051551	 0.900388	 -1.976138
H	 -1.297527	 1.996448	 -0.833575
C	 0.406133	 -0.000384	 0.036994
C	 1.526415	 -0.003194	 -0.997339
C	 0.498772	 1.259027	 0.900673
C	 0.495883	 -1.257378	 0.904465
H	 1.452279	 0.872071	 -1.630204
H	 1.451276	 -0.881020	 -1.626529
H	 2.497919	 -0.002741	 -0.517601
H	 0.368981	 2.144239	 0.289753
H	 1.470064	 1.313479	 1.377660
H	 -0.248448	 1.271586	 1.684297
H	 0.363971	 -2.144195	 0.296316
H	 1.467114	 -1.312636	 1.381470
H	 -0.251246	 -1.265768	 1.688235

	symmetry c1
}
set optking {
	frozen_dihedral = ("
		2 3 6 7
	")
}

ee = optimize('scf')
oeprop('DIPOLE', 'QUADRUPOLE', 'MULLIKEN_CHARGES')
f=open( 'psi4out.xyz', 'w' )
f.write( "18  " )
f.write( str(ee) + "\n" )
f.write( MOL.save_string_xyz() )
f.close()
--------------------------------------------------------------------------

    Molecular point group: c1
  Charge       = 0
  Multiplicity = 1
  Basis Set: CC-PVTZ
  Basis Set:
  @DF-RHF Final Energy:  -271.26939274297280
    Total Energy =                       -271.2693927429725136
    Molecular point group: c1
  Basis Set: CC-PVTZ
  Basis Set:
  Basis Set: CC-PVTZ
  Basis Set:
  @DF-RHF Final Energy:  -271.27399042801051
    Total Energy =                       -271.2739904280102223
  Basis Set: CC-PVTZ
  Basis Set:
  Basis Set: CC-PVTZ
  Basis Set:
  @DF-RHF Final Energy:  -271.27619987368394
    Total Energy =                       -271.2761998736839359
  Basis Set: CC-PVTZ
  Basis Set:
  Basis Set: CC-PVTZ
  Basis Set:
  @DF-RHF Final Energy:  -271.27651819469781
    Total Energy =                       -271.2765181946978714
  Basis Set: CC-PVTZ
  Basis Set:
  Basis Set: CC-PVTZ
  Basis Set:
  @DF-RHF Final Energy:  -271.27664496855942
    Total Energy =                       -271.2766449685593670
  Basis Set: CC-PVTZ
  Basis Set:
  Basis Set: CC-PVTZ
  Basis Set:
  @DF-RHF Final Energy:  -271.27669752844122
    Total Energy =                       -271.2766975284414457
  Basis Set: CC-PVTZ
  Basis Set:
  Basis Set: CC-PVTZ
  Basis Set:
  @DF-RHF Final Energy:  -271.27670273919517
    Total Energy =                       -271.2767027391950592
  Basis Set: CC-PVTZ
  Basis Set:
  Charge       = 0
  Multiplicity = 1
  Basis Set: CC-PVTZ
  Basis Set:

    Orbital Energies (a.u.)
    -----------------------

    Doubly Occupied:

       1A    -20.540548     2A    -11.280123     3A    -11.258194
       4A    -11.208146     5A    -11.206114     6A    -11.201786
       7A     -1.373608     8A     -1.074642     9A     -0.947193
      10A     -0.940441    11A     -0.913131    12A     -0.753496
      13A     -0.656724    14A     -0.646837    15A     -0.639553
      16A     -0.593292    17A     -0.575575    18A     -0.553268
      19A     -0.534530    20A     -0.525060    21A     -0.515132
      22A     -0.489219    23A     -0.487612    24A     -0.440970
      25A     -0.407226

  @DF-RHF Final Energy:  -271.27670345103820

   => Energetics <=

    Nuclear Repulsion Energy =            272.6872626990257231
    One-Electron Energy =                -908.4030912733589957
    Two-Electron Energy =                 364.4391251232947866
    DFT Exchange-Correlation Energy =       0.0000000000000000
    Empirical Dispersion Energy =           0.0000000000000000
    PCM Polarization Energy =               0.0000000000000000
    EFP Energy =                            0.0000000000000000
    Total Energy =                       -271.2767034510384860
    Molecular point group: c1
  Basis Set: CC-PVTZ
  Basis Set:

  -Total Gradient:
     Atom            X                  Y                   Z
    ------   -----------------  -----------------  -----------------
       1        0.000015723180    -0.000007133543    -0.000002970030
       2       -0.000193520677     0.000161192810     0.000353898856
       3        0.000321224561    -0.000373111825    -0.000512875114
       4        0.000000584112    -0.000009153364     0.000003354558
       5       -0.000004335894    -0.000004365842    -0.000005895198
       6       -0.000091239926     0.000593580391     0.000171519302
       7       -0.000010949902    -0.000369046866    -0.000007160195
       8       -0.000010089515     0.000015374377     0.000024448358
       9       -0.000014188331    -0.000001483133    -0.000017350591
      10       -0.000007773750     0.000005190667    -0.000007973140
      11        0.000013039887    -0.000006218510    -0.000011091430
      12       -0.000012198673    -0.000002797452     0.000003336667
      13        0.000005560698    -0.000011606005     0.000007634548
      14       -0.000007774523    -0.000001358085    -0.000003449045
      15       -0.000002366878     0.000019868482     0.000014189727
      16       -0.000001224826    -0.000016669277     0.000004098630
      17       -0.000005326243     0.000004228635    -0.000015677269
      18        0.000004856698     0.000003508539     0.000001961366

  **** Optimization is complete! (in 8 steps) ****
    Final optimized geometry and variables:
    Molecular point group: c1

    Geometry (in Angstrom), charge = 0, multiplicity = 1:

    H           -0.668739686115     1.157689202778    -1.947053009567
    C           -1.385662221884     0.867725309962    -1.185364909413
    O           -0.956585261740    -0.218924862077    -0.431264003314
    H           -2.297126344990     0.563896419225    -1.680452296081
    H           -1.606604374397     1.734428228061    -0.571022465652
    C            0.287898627231    -0.163468797692     0.238159942112
    C            1.440331185600    -0.203955854992    -0.767496360011
    C            0.392385195832     1.072755552474     1.132599551438
    C            0.304024140480    -1.425645309839     1.093640860007
    H            1.476121979018     0.688219242498    -1.380260264366
    H            1.336107543756    -1.061921807979    -1.420222561598
    H            2.389325925852    -0.280883009642    -0.249992356857
    H            0.448655379944     1.988524616514     0.557301946165
    H            1.287171254601     1.014913728859     1.740413820654
    H           -0.463581253830     1.135686767638     1.793987662984
    H            0.188452343523    -2.301214765292     0.467541018662
    H            1.235188711187    -1.511899975246     1.640942455653
    H           -0.514189477114    -1.408138547773     1.802480503402

  Mulliken Charges: (a.u.)
   Center  Symbol    Alpha    Beta     Spin     Total
       1     H     0.47037  0.47037  0.00000  0.05926
       2     C     3.04441  3.04441  0.00000 -0.08883
       3     O     4.19028  4.19028  0.00000 -0.38056
       4     H     0.44083  0.44083  0.00000  0.11834
       5     H     0.46825  0.46825  0.00000  0.06350
       6     C     2.87361  2.87361  0.00000  0.25278
       7     C     3.15978  3.15978  0.00000 -0.31957
       8     C     3.16808  3.16808  0.00000 -0.33616
       9     C     3.14148  3.14148  0.00000 -0.28297
      10     H     0.44949  0.44949  0.00000  0.10102
      11     H     0.44612  0.44612  0.00000  0.10776
      12     H     0.44993  0.44993  0.00000  0.10013
      13     H     0.44852  0.44852  0.00000  0.10296
      14     H     0.44691  0.44691  0.00000  0.10618
      15     H     0.44477  0.44477  0.00000  0.11045
      16     H     0.44823  0.44823  0.00000  0.10354
      17     H     0.45937  0.45937  0.00000  0.08126
      18     H     0.44954  0.44954  0.00000  0.10091

   Total alpha = 25.00000, Total beta = 25.00000, Total charge = -0.00000
