  ==> Input File <==

--------------------------------------------------------------------------
set {
	reference rhf
	basis 6-31G*
}

set_num_threads( 1 )
memory 2 gb

molecule MOL {
0 1

H	 -3.788974	 -0.709639	 0.390614
O	 -3.517110	 -0.026191	 -0.205115
C	 -2.306886	 0.532354	 0.237577
C	 -1.177863	 -0.397191	 -0.171080
H	 -2.156308	 1.517575	 -0.201710
H	 -2.315015	 0.655684	 1.319734
C	 0.198102	 0.111031	 0.262842
H	 -1.208843	 -0.518759	 -1.250427
H	 -1.368741	 -1.376554	 0.258909
C	 1.331804	 -0.827780	 -0.158768
H	 0.361943	 1.100838	 -0.156218
H	 0.217265	 0.229072	 1.345532
C	 2.723619	 -0.410569	 0.329459
H	 1.342964	 -0.912588	 -1.244120
H	 1.116806	 -1.824343	 0.220779
C	 3.243875	 0.895854	 -0.272975
H	 3.424222	 -1.207124	 0.091250
H	 2.714788	 -0.329854	 1.414619
H	 3.251977	 0.848779	 -1.358681
H	 2.637085	 1.747371	 0.016682
H	 4.259473	 1.094070	 0.055697

	symmetry c1
}
set optking {
	frozen_dihedral = ("
		2 3 4 8,
		8 4 7 10,
		4 7 10 14,
		16 13 10 14
	")
}

ee = energy('scf')
oeprop('DIPOLE', 'QUADRUPOLE', 'MULLIKEN_CHARGES')
f=open( 'psi4out.xyz', 'w' )
f.write( "21  " )
f.write( str(ee) + "\n" )
f.write( MOL.save_string_xyz() )
f.close()
--------------------------------------------------------------------------

    Molecular point group: c1

    Geometry (in Angstrom), charge = 0, multiplicity = 1:

       Center              X                  Y                   Z               Mass
    ------------   -----------------  -----------------  -----------------  -----------------
           H         -3.793391081447    -0.697322735317     0.387151013038     1.007825032070
           O         -3.521527081447    -0.013874735317    -0.208577986962    15.994914619560
           C         -2.311303081447     0.544670264683     0.234114013038    12.000000000000
           C         -1.182280081447    -0.384874735317    -0.174542986962    12.000000000000
           H         -2.160725081447     1.529891264683    -0.205172986962     1.007825032070
           H         -2.319432081447     0.668000264683     1.316271013038     1.007825032070
           C          0.193684918553     0.123347264683     0.259379013038    12.000000000000
           H         -1.213260081447    -0.506442735317    -1.253889986962     1.007825032070
           H         -1.373158081447    -1.364237735317     0.255446013038     1.007825032070
           C          1.327386918553    -0.815463735317    -0.162230986962    12.000000000000
           H          0.357525918553     1.113154264683    -0.159680986962     1.007825032070
           H          0.212847918553     0.241388264683     1.342069013038     1.007825032070
           C          2.719201918553    -0.398252735317     0.325996013038    12.000000000000
           H          1.338546918553    -0.900271735317    -1.247582986962     1.007825032070
           H          1.112388918553    -1.812026735317     0.217316013038     1.007825032070
           C          3.239457918553     0.908170264683    -0.276437986962    12.000000000000
           H          3.419804918553    -1.194807735317     0.087787013038     1.007825032070
           H          2.710370918553    -0.317537735317     1.411156013038     1.007825032070
           H          3.247559918553     0.861095264683    -1.362143986962     1.007825032070
           H          2.632667918553     1.759687264683     0.013219013038     1.007825032070
           H          4.255055918553     1.106386264683     0.052234013038     1.007825032070

  Charge       = 0
  Multiplicity = 1
  Basis Set: 6-31G*
  Basis Set:

    Orbital Energies (a.u.)
    -----------------------

    Doubly Occupied:

       1A    -20.551287     2A    -11.268151     3A    -11.216724
       4A    -11.216312     5A    -11.215105     6A    -11.211677
       7A    -11.209043     8A     -1.359516     9A     -1.087592
      10A     -1.033945    11A     -0.954842    12A     -0.877916
      13A     -0.815200    14A     -0.779963    15A     -0.696771
      16A     -0.648514    17A     -0.620296    18A     -0.609157
      19A     -0.591245    20A     -0.573765    21A     -0.539269
      22A     -0.531551    23A     -0.502053    24A     -0.493182
      25A     -0.478455    26A     -0.465521    27A     -0.460719
      28A     -0.457216    29A     -0.417148

  @DF-RHF Final Energy:  -310.21081833877997

   => Energetics <=

    Nuclear Repulsion Energy =            312.9154591413365551
    One-Electron Energy =               -1040.4884631572258513
    Two-Electron Energy =                 417.3621856771072771
    DFT Exchange-Correlation Energy =       0.0000000000000000
    Empirical Dispersion Energy =           0.0000000000000000
    PCM Polarization Energy =               0.0000000000000000
    EFP Energy =                            0.0000000000000000
    Total Energy =                       -310.2108183387820191

  Mulliken Charges: (a.u.)
   Center  Symbol    Alpha    Beta     Spin     Total
       1     H     0.28123  0.28123  0.00000  0.43754
       2     O     4.37044  4.37044  0.00000 -0.74089
       3     C     2.99512  2.99512  0.00000  0.00976
       4     C     3.15847  3.15847  0.00000 -0.31694
       5     H     0.41674  0.41674  0.00000  0.16652
       6     H     0.43155  0.43155  0.00000  0.13689
       7     C     3.16290  3.16290  0.00000 -0.32580
       8     H     0.41372  0.41372  0.00000  0.17255
       9     H     0.42836  0.42836  0.00000  0.14329
      10     C     3.15139  3.15139  0.00000 -0.30277
      11     H     0.42051  0.42051  0.00000  0.15899
      12     H     0.42502  0.42502  0.00000  0.14995
      13     C     3.15241  3.15241  0.00000 -0.30483
      14     H     0.42283  0.42283  0.00000  0.15435
      15     H     0.42236  0.42236  0.00000  0.15529
      16     C     3.24128  3.24128  0.00000 -0.48255
      17     H     0.42074  0.42074  0.00000  0.15853
      18     H     0.42375  0.42375  0.00000  0.15250
      19     H     0.42178  0.42178  0.00000  0.15643
      20     H     0.42035  0.42035  0.00000  0.15929
      21     H     0.41905  0.41905  0.00000  0.16190

   Total alpha = 29.00000, Total beta = 29.00000, Total charge = -0.00000
