                              Psi4 1.0.54 Driver

  ==> Input File <==

--------------------------------------------------------------------------
set {
	reference rhf
	basis cc-pvtz
}

set_num_threads( 4 )
memory 2 gb

molecule MOL {
0 1

O	 -2.081319	 -0.951530	 -0.502732
N	 -1.613558	 0.006676	 0.014756
C	 -0.329345	 -0.171618	 0.743966
O	 -2.068523	 1.100482	 -0.024385
C	 0.835904	 0.041968	 -0.213982
H	 -0.346048	 -1.174374	 1.137184
H	 -0.333613	 0.555559	 1.538590
C	 2.176973	 -0.095231	 0.502171
H	 0.768652	 -0.682693	 -1.017040
H	 0.751313	 1.027697	 -0.656612
C	 3.361100	 0.121313	 -0.433474
H	 2.246965	 -1.081412	 0.951599
H	 2.225379	 0.620048	 1.317916
H	 3.357929	 -0.601686	 -1.241534
H	 3.334882	 1.111649	 -0.874227
H	 4.298819	 0.019779	 0.099007

	symmetry c1
}
set optking {
	frozen_dihedral = ("
		9 5 3 2
	")
}

ee,wfn = optimize('scf', return_wfn=True)
oeprop( wfn, 'DIPOLE', 'QUADRUPOLE', 'MULLIKEN_CHARGES')
f=open( 'psi4out.xyz', 'w' )
f.write( "16  " )
f.write( str(ee) + "\n" )
f.write( MOL.save_string_xyz() )
f.close()
--------------------------------------------------------------------------

    Molecular point group: c1
  Charge       = 0
  Multiplicity = 1
  Basis Set: CC-PVTZ
  Basis Set:
  @DF-RHF Final Energy:  -360.90952470481011
    Total Energy =                       -360.9095247048101101
    Molecular point group: c1
  Basis Set: CC-PVTZ
  Basis Set:
  Basis Set: CC-PVTZ
  Basis Set:
  @DF-RHF Final Energy:  -360.90952050946424
    Total Energy =                       -360.9095205094644143
  Basis Set: CC-PVTZ
  Basis Set:
  Basis Set: CC-PVTZ
  Basis Set:
  @DF-RHF Final Energy:  -360.90918411469551
    Total Energy =                       -360.9091841146952788
  Basis Set: CC-PVTZ
  Basis Set:
  Basis Set: CC-PVTZ
  Basis Set:
  @DF-RHF Final Energy:  -360.90951921182511
    Total Energy =                       -360.9095192118251134
  Basis Set: CC-PVTZ
  Basis Set:
  Basis Set: CC-PVTZ
  Basis Set:
  @DF-RHF Final Energy:  -360.90952554042326
    Total Energy =                       -360.9095255404235445
  Basis Set: CC-PVTZ
  Basis Set:
  Basis Set: CC-PVTZ
  Basis Set:
  @DF-RHF Final Energy:  -360.90952649600172
    Total Energy =                       -360.9095264960016038
  Basis Set: CC-PVTZ
  Basis Set:
  Charge       = 0
  Multiplicity = 1
  Basis Set: CC-PVTZ
  Basis Set:

    Orbital Energies (a.u.)
    -----------------------

    Doubly Occupied:

       1A    -20.589665     2A    -20.589608     3A    -15.836199
       4A    -11.296261     5A    -11.250735     6A    -11.241907
       7A    -11.225932     8A     -1.635184     9A     -1.419500
      10A     -1.136691    11A     -1.060184    12A     -0.948777
      13A     -0.843366    14A     -0.829294    15A     -0.757702
      16A     -0.737934    17A     -0.728000    18A     -0.679645
      19A     -0.615701    20A     -0.607936    21A     -0.567808
      22A     -0.542307    23A     -0.517335    24A     -0.504193
      25A     -0.496901    26A     -0.486064    27A     -0.469936
      28A     -0.452180

  @DF-RHF Final Energy:  -360.90952681358141

   => Energetics <=

    Nuclear Repulsion Energy =            313.0148090776929735
    One-Electron Energy =               -1111.7147858504636133
    Two-Electron Energy =                 437.7904499591894592
    DFT Exchange-Correlation Energy =       0.0000000000000000
    Empirical Dispersion Energy =           0.0000000000000000
    PCM Polarization Energy =               0.0000000000000000
    EFP Energy =                            0.0000000000000000
    Total Energy =                       -360.9095268135812375
    Molecular point group: c1
  Basis Set: CC-PVTZ
  Basis Set:

  -Total Gradient:
     Atom            X                  Y                   Z
    ------   -----------------  -----------------  -----------------
       1        0.000009707049    -0.000008571032     0.000006575778
       2       -0.000012340730     0.000215906129     0.000040882932
       3        0.000019478354    -0.000324908282    -0.000034113424
       4        0.000015805770    -0.000002183238     0.000009342927
       5       -0.000189687374     0.000310654237    -0.000171248564
       6       -0.000001027834     0.000005536999    -0.000002183408
       7       -0.000000306661    -0.000000239281     0.000000779838
       8       -0.000005929686    -0.000004240113    -0.000003494038
       9        0.000163444717    -0.000190588575     0.000156532339
      10        0.000000411276    -0.000004338379     0.000001923756
      11        0.000005234106     0.000003349523    -0.000003966078
      12       -0.000001804567     0.000003461188     0.000000292085
      13       -0.000001486786    -0.000003186379    -0.000003452178
      14       -0.000000182134     0.000002909514     0.000003130738
      15        0.000000498145    -0.000003825279    -0.000000145022
      16       -0.000001813647     0.000000262969    -0.000000857681

  **** Optimization is complete! (in 7 steps) ****
    Final optimized geometry and variables:
    Molecular point group: c1

    Geometry (in Angstrom), charge = 0, multiplicity = 1:

    O           -2.080964424759    -0.941444065888    -0.532932280208
    N           -1.613643256994     0.007547341346     0.001905364880
    C           -0.335264058445    -0.185627841495     0.737490903644
    O           -2.064787151231     1.103329852990    -0.024186207992
    C            0.837667927686     0.033058200789    -0.209931710344
    H           -0.359309118430    -1.192105690228     1.120544738339
    H           -0.341499056362     0.533613090941     1.539360476373
    C            2.172799164300    -0.122182461787     0.513855830104
    H            0.772342567452    -0.681922425733    -1.021763138012
    H            0.762767760665     1.024863496224    -0.640397539261
    C            3.364992699400     0.085606485442    -0.413541257531
    H            2.229337912392    -1.111157746211     0.959106314406
    H            2.223917185834     0.588709430708     1.333208735188
    H            3.358705866985    -0.633281692694    -1.225241400024
    H            3.352513825751     1.078338472319    -0.849477052461
    H            4.298257877155    -0.029042800008     0.124074391847

  Mulliken Charges: (a.u.)
   Center  Symbol    Alpha    Beta     Spin     Total
       1     O     4.17427  4.17427  0.00000 -0.34855
       2     N     3.27559  3.27559  0.00000  0.44881
       3     C     3.04017  3.04017  0.00000 -0.08035
       4     O     4.17400  4.17400  0.00000 -0.34800
       5     C     3.10117  3.10117  0.00000 -0.20234
       6     H     0.43377  0.43377  0.00000  0.13246
       7     H     0.43408  0.43408  0.00000  0.13185
       8     C     3.09353  3.09353  0.00000 -0.18705
       9     H     0.43798  0.43798  0.00000  0.12405
      10     H     0.43778  0.43778  0.00000  0.12444
      11     C     3.14827  3.14827  0.00000 -0.29655
      12     H     0.45050  0.45050  0.00000  0.09900
      13     H     0.45026  0.45026  0.00000  0.09948
      14     H     0.45175  0.45175  0.00000  0.09649
      15     H     0.45170  0.45170  0.00000  0.09659
      16     H     0.44518  0.44518  0.00000  0.10965

   Total alpha = 28.00000, Total beta = 28.00000, Total charge = -0.00000

*** Psi4 exiting successfully. Buy a developer a beer!
