                              Psi4 1.0.54 Driver

  ==> Input File <==

--------------------------------------------------------------------------
set {
	reference rhf
	basis cc-pvtz
}

set_num_threads( 4 )
memory 2 gb

molecule MOL {
0 1

H	 -2.255759	 -0.112687	 1.018288
O	 -2.041679	 -0.058866	 0.103463
C	 -0.959304	 0.780994	 -0.094939
C	 0.354905	 0.037902	 -0.006215
H	 -0.985899	 1.279578	 -1.057596
H	 -0.969809	 1.529522	 0.682889
F	 0.412060	 -0.931028	 -0.902708
F	 1.359641	 0.856111	 -0.239961
F	 0.545380	 -0.506387	 1.171682

	symmetry c1
}
set optking {
	frozen_dihedral = ("
		1 2 3 5
	")
}

ee,wfn = optimize('scf', return_wfn=True)
oeprop( wfn, 'DIPOLE', 'QUADRUPOLE', 'MULLIKEN_CHARGES')
f=open( 'psi4out.xyz', 'w' )
f.write( "9  " )
f.write( str(ee) + "\n" )
f.write( MOL.save_string_xyz() )
f.close()
--------------------------------------------------------------------------

    Molecular point group: c1
  Charge       = 0
  Multiplicity = 1
  Basis Set: CC-PVTZ
  Basis Set:
  @DF-RHF Final Energy:  -450.84484003172417
    Total Energy =                       -450.8448400317242317
    Molecular point group: c1
  Basis Set: CC-PVTZ
  Basis Set:
  Basis Set: CC-PVTZ
  Basis Set:
  @DF-RHF Final Energy:  -450.83110540990776
    Total Energy =                       -450.8311054099078774
  Basis Set: CC-PVTZ
  Basis Set:
  Basis Set: CC-PVTZ
  Basis Set:
  @DF-RHF Final Energy:  -450.84627650114862
    Total Energy =                       -450.8462765011486226
  Basis Set: CC-PVTZ
  Basis Set:
  Basis Set: CC-PVTZ
  Basis Set:
  @DF-RHF Final Energy:  -450.84648761848376
    Total Energy =                       -450.8464876184835930
  Basis Set: CC-PVTZ
  Basis Set:
  Basis Set: CC-PVTZ
  Basis Set:
  @DF-RHF Final Energy:  -450.84649862650730
    Total Energy =                       -450.8464986265072980
  Basis Set: CC-PVTZ
  Basis Set:
  Charge       = 0
  Multiplicity = 1
  Basis Set: CC-PVTZ
  Basis Set:

    Orbital Energies (a.u.)
    -----------------------

    Doubly Occupied:

       1A    -26.336527     2A    -26.335638     3A    -26.332606
       4A    -20.583623     5A    -11.490735     6A    -11.310139
       7A     -1.744594     8A     -1.641494     9A     -1.639736
      10A     -1.407009    11A     -1.049922    12A     -0.927284
      13A     -0.834994    14A     -0.833556    15A     -0.803740
      16A     -0.737603    17A     -0.715774    18A     -0.704766
      19A     -0.669693    20A     -0.662080    21A     -0.645987
      22A     -0.634515    23A     -0.609604    24A     -0.535735
      25A     -0.484531

  @DF-RHF Final Energy:  -450.84650062900812

   => Energetics <=

    Nuclear Repulsion Energy =            277.4839014983175502
    One-Electron Energy =               -1177.3170377625281162
    Two-Electron Energy =                 448.9866356352023899
    DFT Exchange-Correlation Energy =       0.0000000000000000
    Empirical Dispersion Energy =           0.0000000000000000
    PCM Polarization Energy =               0.0000000000000000
    EFP Energy =                            0.0000000000000000
    Total Energy =                       -450.8465006290081760
    Molecular point group: c1
  Basis Set: CC-PVTZ
  Basis Set:

  -Total Gradient:
     Atom            X                  Y                   Z
    ------   -----------------  -----------------  -----------------
       1       -0.001263147000     0.001448390013     0.000435425830
       2        0.001441987375    -0.001480495846    -0.000244896957
       3        0.000706067801    -0.000981214695    -0.001316489724
       4        0.000123567214    -0.000075544135     0.000264034740
       5       -0.000769334294     0.000999670774     0.001108013568
       6       -0.000044350255    -0.000030969884     0.000029207535
       7       -0.000038152065    -0.000075255828    -0.000089196774
       8        0.000000069275     0.000083750612    -0.000036731083
       9       -0.000156708052     0.000111668986    -0.000149367139

  **** Optimization is complete! (in 6 steps) ****
    Final optimized geometry and variables:
    Molecular point group: c1

    Geometry (in Angstrom), charge = 0, multiplicity = 1:

    H           -2.046946117922    -0.517107512950     1.293993679888
    O           -1.985719575254    -0.220213082856     0.404709071970
    C           -0.973687255874     0.716104035681     0.267819933709
    C            0.341823174013     0.058932000647    -0.083342149506
    H           -1.235726375303     1.398294717843    -0.527800490627
    H           -0.814173853365     1.295282828314     1.169786811586
    F            0.281693308261    -0.606621950740    -1.211942775890
    F            1.285553613520     0.971636267046    -0.204146733375
    F            0.720981611690    -0.784609787808     0.856139841738

  Mulliken Charges: (a.u.)
   Center  Symbol    Alpha    Beta     Spin     Total
       1     H     0.38599  0.38599  0.00000  0.22802
       2     O     4.19229  4.19229  0.00000 -0.38457
       3     C     2.99476  2.99476  0.00000  0.01049
       4     C     2.68024  2.68024  0.00000  0.63951
       5     H     0.44850  0.44850  0.00000  0.10300
       6     H     0.46124  0.46124  0.00000  0.07751
       7     F     4.60778  4.60778  0.00000 -0.21556
       8     F     4.61380  4.61380  0.00000 -0.22760
       9     F     4.61540  4.61540  0.00000 -0.23080

   Total alpha = 25.00000, Total beta = 25.00000, Total charge =  0.00000

*** Psi4 exiting successfully. Buy a developer a beer!
