  ==> Input File <==

--------------------------------------------------------------------------
set {
	reference rhf
	basis 6-31G*
}

set_num_threads( 4 )
memory 2 gb

molecule MOL {
0 1

H	 -0.000158	 1.970498	 0.756846
O	 -0.000074	 1.880206	 -0.189275
C	 -0.000015	 0.544847	 -0.545111
C	 -1.278788	 -0.123820	 -0.051541
C	 1.278802	 -0.123718	 -0.051505
H	 -0.000001	 0.490777	 -1.623619
F	 -1.070089	 -0.656854	 1.133307
F	 -2.277600	 0.726755	 0.054559
F	 -1.648702	 -1.094540	 -0.871579
F	 2.323327	 0.466644	 -0.591854
F	 1.326242	 -1.401483	 -0.363667
F	 1.388946	 -0.015632	 1.262939

	symmetry c1
}
set optking {
	frozen_dihedral = ("
		7 4 3 6
	")
}

ee = optimize('scf')
oeprop('DIPOLE', 'QUADRUPOLE', 'MULLIKEN_CHARGES')
f=open( 'psi4out.xyz', 'w' )
f.write( "12  " )
f.write( str(ee) + "\n" )
f.write( MOL.save_string_xyz() )
f.close()
--------------------------------------------------------------------------

    Molecular point group: c1
  Charge       = 0
  Multiplicity = 1
  Basis Set: 6-31G*
  Basis Set:
  @DF-RHF Final Energy:  -786.27278525373617
    Total Energy =                       -786.2727852537358331
    Molecular point group: c1
  Basis Set: 6-31G*
  Basis Set:
  Basis Set: 6-31G*
  Basis Set:
  @DF-RHF Final Energy:  -786.27456409088938
    Total Energy =                       -786.2745640908892710
  Basis Set: 6-31G*
  Basis Set:
  Basis Set: 6-31G*
  Basis Set:
  @DF-RHF Final Energy:  -786.27496488973520
    Total Energy =                       -786.2749648897350880
  Basis Set: 6-31G*
  Basis Set:
  Basis Set: 6-31G*
  Basis Set:
  @DF-RHF Final Energy:  -786.27508942405711
    Total Energy =                       -786.2750894240577964
  Basis Set: 6-31G*
  Basis Set:
  Basis Set: 6-31G*
  Basis Set:
  @DF-RHF Final Energy:  -786.27510848539828
    Total Energy =                       -786.2751084853987322
  Basis Set: 6-31G*
  Basis Set:
  Basis Set: 6-31G*
  Basis Set:
  @DF-RHF Final Energy:  -786.27511120099689
    Total Energy =                       -786.2751112009968892
  Basis Set: 6-31G*
  Basis Set:
  Charge       = 0
  Multiplicity = 1
  Basis Set: 6-31G*
  Basis Set:

    Orbital Energies (a.u.)
    -----------------------

    Doubly Occupied:

       1A    -26.363198     2A    -26.362878     3A    -26.360043
       4A    -26.359675     5A    -26.358579     6A    -26.357081
       7A    -20.618091     8A    -11.525718     9A    -11.524770
      10A    -11.349077    11A     -1.764392    12A     -1.757666
      13A     -1.660716    14A     -1.658825    15A     -1.655650
      16A     -1.654064    17A     -1.436510    18A     -1.101947
      19A     -0.995458    20A     -0.937350    21A     -0.863775
      22A     -0.861834    23A     -0.850706    24A     -0.844444
      25A     -0.831916    26A     -0.813858    27A     -0.737179
      28A     -0.729028    29A     -0.726906    30A     -0.720233
      31A     -0.687873    32A     -0.686251    33A     -0.683731
      34A     -0.674444    35A     -0.668690    36A     -0.660595
      37A     -0.657916    38A     -0.652618    39A     -0.619393
      40A     -0.549416    41A     -0.505849

  @DF-RHF Final Energy:  -786.27511294462022

   => Energetics <=

    Nuclear Repulsion Energy =            670.8959793911066072
    One-Electron Energy =               -2428.6854946702824236
    Two-Electron Energy =                 971.5144023345555979
    DFT Exchange-Correlation Energy =       0.0000000000000000
    Empirical Dispersion Energy =           0.0000000000000000
    PCM Polarization Energy =               0.0000000000000000
    EFP Energy =                            0.0000000000000000
    Total Energy =                       -786.2751129446201048
    Molecular point group: c1
  Basis Set: 6-31G*
  Basis Set:

  -Total Gradient:
     Atom            X                  Y                   Z
    ------   -----------------  -----------------  -----------------
       1       -0.000000479297    -0.000034706264    -0.000019099209
       2        0.000004152900    -0.000012813309    -0.000032925250
       3       -0.002497024990     0.003787835228    -0.000785679944
       4       -0.001237909439     0.003556984180     0.002295886431
       5        0.000015172978     0.000049376226     0.000010225308
       6        0.002471378752    -0.004029849397     0.000204158445
       7        0.001299506970    -0.003368554879    -0.001736676104
       8       -0.000042961971     0.000055055639     0.000026452959
       9        0.000025165918     0.000017491986     0.000051154492
      10       -0.000024163360     0.000013290304     0.000003605810
      11       -0.000021294378    -0.000034861509    -0.000011105654
      12        0.000008455913     0.000000751792    -0.000005997288

  **** Optimization is complete! (in 7 steps) ****
    Final optimized geometry and variables:
    Molecular point group: c1

    Geometry (in Angstrom), charge = 0, multiplicity = 1:

    H            0.059183345426     2.008089630216     0.813080880935
    O            0.006081037477     1.929024387249    -0.132139366242
    C           -0.008353399794     0.604471738262    -0.512126625950
    C           -1.273013815138    -0.134209114377    -0.052424885331
    C            1.265569981796    -0.091857678105    -0.043284669587
    H            0.007924188639     0.555756935644    -1.590452005307
    F           -1.125666415488    -0.695454617833     1.135865717690
    F           -2.296631792160     0.685829587305     0.008286057721
    F           -1.566079958167    -1.098205510514    -0.905750321978
    F            2.305608235252     0.391910805108    -0.689091156484
    F            1.215036660982    -1.390376667073    -0.261292291463
    F            1.469031719215     0.107215321186     1.248397924293

  Mulliken Charges: (a.u.)
   Center  Symbol    Alpha    Beta     Spin     Total
       1     H     0.26661  0.26661  0.00000  0.46679
       2     O     4.35994  4.35994  0.00000 -0.71989
       3     C     3.05404  3.05404  0.00000 -0.10808
       4     C     2.44427  2.44427  0.00000  1.11146
       5     C     2.44143  2.44143  0.00000  1.11715
       6     H     0.37380  0.37380  0.00000  0.25240
       7     F     4.67849  4.67849  0.00000 -0.35697
       8     F     4.67206  4.67206  0.00000 -0.34413
       9     F     4.67748  4.67748  0.00000 -0.35496
      10     F     4.67532  4.67532  0.00000 -0.35064
      11     F     4.67531  4.67531  0.00000 -0.35062
      12     F     4.68125  4.68125  0.00000 -0.36250

   Total alpha = 41.00000, Total beta = 41.00000, Total charge = -0.00000
