  ==> Input File <==

--------------------------------------------------------------------------
set {
	reference rhf
	basis 6-31G*
}

set_num_threads( 4 )
memory 2 gb

molecule MOL {
0 1

O	 -1.276010	 1.052711	 -0.768302
C	 -1.204840	 0.067374	 -0.106123
C	 -2.388195	 -0.672128	 0.458071
O	 -0.067104	 -0.527208	 0.221609
H	 -2.388023	 -1.694060	 0.097175
H	 -3.300579	 -0.174919	 0.164318
H	 -2.315377	 -0.706351	 1.539059
C	 0.068195	 -1.939074	 0.006531
C	 1.113186	 -2.413971	 1.000540
C	 0.458026	 -2.203444	 -1.439424
H	 -0.885549	 -2.399741	 0.217874
H	 0.804365	 -2.192610	 2.015861
H	 1.254115	 -3.486105	 0.911104
H	 2.064949	 -1.926408	 0.818656
H	 0.584495	 -3.268941	 -1.602942
H	 -0.308911	 -1.846893	 -2.115186
H	 1.394029	 -1.707742	 -1.676458

	symmetry c1
}
set optking {
	frozen_dihedral = ("
		8 4 2 1
	")
}

ee = optimize('scf')
oeprop('DIPOLE', 'QUADRUPOLE', 'MULLIKEN_CHARGES')
f=open( 'psi4out.xyz', 'w' )
f.write( "17  " )
f.write( str(ee) + "\n" )
f.write( MOL.save_string_xyz() )
f.close()
--------------------------------------------------------------------------

    Molecular point group: c1
  Charge       = 0
  Multiplicity = 1
  Basis Set: 6-31G*
  Basis Set:
  @DF-RHF Final Energy:  -344.88725957883736
    Total Energy =                       -344.8872595788374156
    Molecular point group: c1
  Basis Set: 6-31G*
  Basis Set:
  Basis Set: 6-31G*
  Basis Set:
  @DF-RHF Final Energy:  -344.89295197711664
    Total Energy =                       -344.8929519771166952
  Basis Set: 6-31G*
  Basis Set:
  Basis Set: 6-31G*
  Basis Set:
  @DF-RHF Final Energy:  -344.89469555454070
    Total Energy =                       -344.8946955545407036
  Basis Set: 6-31G*
  Basis Set:
  Basis Set: 6-31G*
  Basis Set:
  @DF-RHF Final Energy:  -344.89569512161830
    Total Energy =                       -344.8956951216183597
  Basis Set: 6-31G*
  Basis Set:
  @DF-RHF Final Energy:  -344.89632898131032
    Total Energy =                       -344.8963289813101483
  @DF-RHF Final Energy:  -344.89645447210023
    Total Energy =                       -344.8964544721004017
  Basis Set: 6-31G*
  Basis Set:
  @DF-RHF Final Energy:  -344.89649869031831
    Total Energy =                       -344.8964986903177987
  Basis Set: 6-31G*
  Basis Set:
  Basis Set: 6-31G*
  Basis Set:
  @DF-RHF Final Energy:  -344.89651447119473
    Total Energy =                       -344.8965144711950188
  Basis Set: 6-31G*
  Basis Set:
  Basis Set: 6-31G*
  Basis Set:
  @DF-RHF Final Energy:  -344.89651735224481
    Total Energy =                       -344.8965173522448140
  Basis Set: 6-31G*
  Basis Set:
  Charge       = 0
  Multiplicity = 1
  Basis Set: 6-31G*
  Basis Set:

    Orbital Energies (a.u.)
    -----------------------

    Doubly Occupied:

       1A    -20.587875     2A    -20.546481     3A    -11.375446
       4A    -11.304050     5A    -11.239388     6A    -11.226584
       7A    -11.224307     8A     -1.457398     9A     -1.365132
      10A     -1.075762    11A     -1.014177    12A     -0.956407
      13A     -0.855791    14A     -0.768821    15A     -0.694980
      16A     -0.671865    17A     -0.659339    18A     -0.625909
      19A     -0.592710    20A     -0.585357    21A     -0.560630
      22A     -0.555040    23A     -0.543284    24A     -0.528396
      25A     -0.508448    26A     -0.482115    27A     -0.447144
      28A     -0.432603

  @DF-RHF Final Energy:  -344.89651757887657

   => Energetics <=

    Nuclear Repulsion Energy =            323.1188650933754616
    One-Electron Energy =               -1110.2598859417057611
    Two-Electron Energy =                 442.2445032694538440
    DFT Exchange-Correlation Energy =       0.0000000000000000
    Empirical Dispersion Energy =           0.0000000000000000
    PCM Polarization Energy =               0.0000000000000000
    EFP Energy =                            0.0000000000000000
    Total Energy =                       -344.8965175788764554
    Molecular point group: c1
  Basis Set: 6-31G*
  Basis Set:

  -Total Gradient:
     Atom            X                  Y                   Z
    ------   -----------------  -----------------  -----------------
       1        0.000107757847    -0.001687038563    -0.002874112040
       2        0.000542044903     0.002815328792     0.002845061889
       3       -0.000004039799    -0.000013132041    -0.000032351115
       4       -0.001925524333    -0.001673107686     0.002455169287
       5       -0.000008707481     0.000001848678     0.000007572154
       6        0.000003079775     0.000006101046    -0.000000839518
       7        0.000003391674    -0.000000420728     0.000003966540
       8        0.001243182997     0.000580369383    -0.002406827604
       9        0.000012776953    -0.000011775681    -0.000010472506
      10        0.000013388783    -0.000000195246     0.000023913765
      11        0.000007813563    -0.000005911160     0.000002960643
      12       -0.000010013291     0.000000189571    -0.000010011763
      13        0.000006131799    -0.000001992600    -0.000000402814
      14        0.000005547600     0.000001006863     0.000002079479
      15        0.000003849970    -0.000010720667    -0.000004946388
      16        0.000001583594    -0.000000431978     0.000005755218
      17       -0.000002264553    -0.000000117984    -0.000006515228

  **** Optimization is complete! (in 10 steps) ****
    Final optimized geometry and variables:
    Molecular point group: c1

    Geometry (in Angstrom), charge = 0, multiplicity = 1:

    O           -0.663187025358     2.009756375910    -0.614182612795
    C           -0.745640799952     0.995247836322    -0.012013605464
    C           -2.069859725788     0.362266658371     0.351184140862
    O            0.358314749943     0.363352369356     0.415038245404
    H           -2.284584821747    -0.474944700016    -0.304907833318
    H           -2.848866804876     1.100070154417     0.228802683488
    H           -2.058954065805    -0.003399920969     1.370931304304
    C            0.563095648973    -1.026033012125     0.167823209274
    C            1.741382576509    -1.432784385882     1.034424643988
    C            0.813866754119    -1.262064394235    -1.315061894084
    H           -0.315420703291    -1.578721104938     0.484230134024
    H            1.528920188714    -1.236119918070     2.078642671869
    H            1.949607423343    -2.491020670296     0.916451619057
    H            2.625152695959    -0.871190706230     0.753997896307
    H            0.998151652413    -2.315027436032    -1.502260223129
    H           -0.037118775933    -0.959764839222    -1.917098243385
    H            1.675740432484    -0.692629240040    -1.643412385584

  Mulliken Charges: (a.u.)
   Center  Symbol    Alpha    Beta     Spin     Total
       1     O     4.25575  4.25575  0.00000 -0.51151
       2     C     2.61871  2.61871  0.00000  0.76258
       3     C     3.30231  3.30231  0.00000 -0.60462
       4     O     4.31544  4.31544  0.00000 -0.63089
       5     H     0.40346  0.40346  0.00000  0.19307
       6     H     0.39051  0.39051  0.00000  0.21897
       7     H     0.40279  0.40279  0.00000  0.19443
       8     C     2.92926  2.92926  0.00000  0.14147
       9     C     3.24068  3.24068  0.00000 -0.48137
      10     C     3.24825  3.24825  0.00000 -0.49649
      11     H     0.41978  0.41978  0.00000  0.16044
      12     H     0.40996  0.40996  0.00000  0.18009
      13     H     0.41865  0.41865  0.00000  0.16270
      14     H     0.40822  0.40822  0.00000  0.18356
      15     H     0.41650  0.41650  0.00000  0.16700
      16     H     0.41489  0.41489  0.00000  0.17023
      17     H     0.40483  0.40483  0.00000  0.19035

   Total alpha = 28.00000, Total beta = 28.00000, Total charge = -0.00000
