                              Psi4 1.0.54 Driver

  ==> Input File <==

--------------------------------------------------------------------------
set {
	reference rhf
	basis cc-pvtz
}

set_num_threads( 4 )
memory 2 gb

molecule MOL {
0 1

H	 -2.816458	 -0.841657	 -0.064679
N	 -1.878861	 -0.711874	 0.250184
C	 -1.341419	 0.551458	 -0.220231
H	 -1.333674	 -1.468530	 -0.105118
C	 0.082190	 0.731516	 0.254705
H	 -1.357065	 0.652078	 -1.304747
H	 -1.939897	 1.357530	 0.189797
O	 0.929335	 0.737691	 -0.854355
H	 0.173822	 1.669487	 0.800588
H	 0.348944	 -0.081286	 0.926362
C	 2.280722	 0.828451	 -0.546565
H	 2.833849	 0.827643	 -1.474701
H	 2.505000	 1.746384	 -0.007313
H	 2.608608	 -0.014131	 0.057677

	symmetry c1
}
set optking {
	frozen_dihedral = ("
		8 5 3 6
	")
}

ee,wfn = optimize('scf', return_wfn=True)
oeprop( wfn, 'DIPOLE', 'QUADRUPOLE', 'MULLIKEN_CHARGES')
f=open( 'psi4out.xyz', 'w' )
f.write( "14  " )
f.write( str(ee) + "\n" )
f.write( MOL.save_string_xyz() )
f.close()
--------------------------------------------------------------------------

    Molecular point group: c1
  Charge       = 0
  Multiplicity = 1
  Basis Set: CC-PVTZ
  Basis Set:
  @DF-RHF Final Energy:  -248.21878784646620
    Total Energy =                       -248.2187878464659434
    Molecular point group: c1
  Basis Set: CC-PVTZ
  Basis Set:
  Basis Set: CC-PVTZ
  Basis Set:
  @DF-RHF Final Energy:  -248.21933743281301
    Total Energy =                       -248.2193374328130062
  Basis Set: CC-PVTZ
  Basis Set:
  Basis Set: CC-PVTZ
  Basis Set:
  @DF-RHF Final Energy:  -248.21949907538411
    Total Energy =                       -248.2194990753843058
  Basis Set: CC-PVTZ
  Basis Set:
  Basis Set: CC-PVTZ
  Basis Set:
  @DF-RHF Final Energy:  -248.21950653414950
    Total Energy =                       -248.2195065341495592
  Basis Set: CC-PVTZ
  Basis Set:
  Basis Set: CC-PVTZ
  Basis Set:
  @DF-RHF Final Energy:  -248.21950863352041
    Total Energy =                       -248.2195086335203769
  Basis Set: CC-PVTZ
  Basis Set:
  Charge       = 0
  Multiplicity = 1
  Basis Set: CC-PVTZ
  Basis Set:

    Orbital Energies (a.u.)
    -----------------------

    Doubly Occupied:

       1A    -20.549045     2A    -15.529397     3A    -11.263159
       4A    -11.262412     5A    -11.240135     6A     -1.382469
       7A     -1.178788     8A     -0.997982     9A     -0.902289
      10A     -0.822914    11A     -0.685748    12A     -0.668162
      13A     -0.652271    14A     -0.619019    15A     -0.593653
      16A     -0.556967    17A     -0.520418    18A     -0.499163
      19A     -0.472044    20A     -0.419010    21A     -0.385925

  @DF-RHF Final Energy:  -248.21950874550873

   => Energetics <=

    Nuclear Repulsion Energy =            191.6404226150534669
    One-Electron Energy =                -717.3179170911116671
    Two-Electron Energy =                 277.4579857305496944
    DFT Exchange-Correlation Energy =       0.0000000000000000
    Empirical Dispersion Energy =           0.0000000000000000
    PCM Polarization Energy =               0.0000000000000000
    EFP Energy =                            0.0000000000000000
    Total Energy =                       -248.2195087455085059
    Molecular point group: c1
  Basis Set: CC-PVTZ
  Basis Set:

  -Total Gradient:
     Atom            X                  Y                   Z
    ------   -----------------  -----------------  -----------------
       1       -0.000001741373    -0.000000778460    -0.000006612764
       2       -0.000015176960    -0.000024099573     0.000029080935
       3       -0.000422528400     0.003266728449     0.000157217185
       4        0.000002488754     0.000002719170    -0.000008294409
       5        0.000293210880    -0.002770457363     0.000145302041
       6        0.000323823202    -0.002225793639    -0.000183684269
       7       -0.000000222836    -0.000011333796     0.000007586088
       8       -0.000160961206     0.001760339781    -0.000133545127
       9       -0.000006576702     0.000003236883     0.000002114863
      10       -0.000006873826     0.000002824668     0.000004699655
      11        0.000000725839    -0.000002548233    -0.000015704664
      12        0.000007459396     0.000001407575    -0.000001200755
      13       -0.000008059022    -0.000002157782     0.000000488663
      14       -0.000005567745    -0.000000087677     0.000002552560

  **** Optimization is complete! (in 6 steps) ****
    Final optimized geometry and variables:
    Molecular point group: c1

    Geometry (in Angstrom), charge = 0, multiplicity = 1:

    H           -2.893767158499    -1.200535448328     0.226721020004
    N           -1.929945591853    -1.127004402286     0.475570715005
    C           -1.374497360513     0.139416129114     0.015896327433
    H           -1.458214953884    -1.893806088089     0.042027132899
    C            0.071411624590     0.312011447392     0.482744079643
    H           -1.377742384842     0.231734116792    -1.066035082743
    H           -1.989961219789     0.933013473717     0.419019436131
    O            0.921942198674     0.300060440259    -0.625482628745
    H            0.192122536785     1.251089103152     1.019125269071
    H            0.329441327299    -0.489884630275     1.168933054026
    C            2.267005705696     0.441124056886    -0.311890169277
    H            2.827422080053     0.419850409856    -1.235438550444
    H            2.461553349073     1.384951597905     0.193398867490
    H            2.615364801042    -0.367054940962     0.327762893552

  Mulliken Charges: (a.u.)
   Center  Symbol    Alpha    Beta     Spin     Total
       1     H     0.42938  0.42938  0.00000  0.14123
       2     N     3.69244  3.69244  0.00000 -0.38488
       3     C     3.03041  3.03041  0.00000 -0.06083
       4     H     0.42755  0.42755  0.00000  0.14490
       5     C     2.97135  2.97135  0.00000  0.05730
       6     H     0.45817  0.45817  0.00000  0.08365
       7     H     0.45624  0.45624  0.00000  0.08751
       8     O     4.17376  4.17376  0.00000 -0.34751
       9     H     0.47273  0.47273  0.00000  0.05454
      10     H     0.46753  0.46753  0.00000  0.06493
      11     C     3.02895  3.02895  0.00000 -0.05790
      12     H     0.44740  0.44740  0.00000  0.10521
      13     H     0.47204  0.47204  0.00000  0.05593
      14     H     0.47204  0.47204  0.00000  0.05592

   Total alpha = 21.00000, Total beta = 21.00000, Total charge = -0.00000

*** Psi4 exiting successfully. Buy a developer a beer!
