  ==> Input File <==

--------------------------------------------------------------------------
set {
	reference rhf
	basis cc-pvtz
}

set_num_threads( 4 )
memory 2 gb

molecule MOL {
0 1

H	 1.565136	 -4.558549	 3.386952
C	 1.623316	 -3.739704	 2.696864
C	 0.654497	 -3.573645	 1.717248
C	 2.658700	 -2.837025	 2.767768
H	 -0.161048	 -4.268208	 1.646530
C	 0.725162	 -2.525940	 0.831053
H	 3.417662	 -2.949030	 3.518847
C	 2.745333	 -1.773131	 1.880618
H	 -0.018128	 -2.388669	 0.070562
C	 1.774822	 -1.616593	 0.908156
H	 3.563536	 -1.088035	 1.962165
O	 1.760432	 -0.625184	 0.000000
C	 2.773565	 0.334879	 0.000000
H	 2.728295	 0.960928	 -0.884150
H	 3.706387	 -0.206610	 0.000000
H	 2.728295	 0.960928	 0.884150

	symmetry c1
}
set optking {
	frozen_dihedral = ("
		10 12 13 14
	")
}

ee = optimize('scf')
oeprop('DIPOLE', 'QUADRUPOLE', 'MULLIKEN_CHARGES')
f=open( 'psi4out.xyz', 'w' )
f.write( "16  " )
f.write( str(ee) + "\n" )
f.write( MOL.save_string_xyz() )
f.close()
--------------------------------------------------------------------------

    Molecular point group: c1
  Charge       = 0
  Multiplicity = 1
  Basis Set: CC-PVTZ
  Basis Set:
  @DF-RHF Final Energy:  -344.70135225586694
    Total Energy =                       -344.7013522558671070
    Molecular point group: c1
  Basis Set: CC-PVTZ
  Basis Set:
  Basis Set: CC-PVTZ
  Basis Set:
  @DF-RHF Final Energy:  -344.70309004798133
    Total Energy =                       -344.7030900479812772
  Basis Set: CC-PVTZ
  Basis Set:
  Basis Set: CC-PVTZ
  Basis Set:
  @DF-RHF Final Energy:  -344.70351406652895
    Total Energy =                       -344.7035140665290101
  Basis Set: CC-PVTZ
  Basis Set:
  Basis Set: CC-PVTZ
  Basis Set:
  @DF-RHF Final Energy:  -344.70352110153488
    Total Energy =                       -344.7035211015351592
  Basis Set: CC-PVTZ
  Basis Set:
  Charge       = 0
  Multiplicity = 1
  Basis Set: CC-PVTZ
  Basis Set:

    Orbital Energies (a.u.)
    -----------------------

    Doubly Occupied:

       1A    -20.580322     2A    -11.293690     3A    -11.278500
       4A    -11.231241     5A    -11.229991     6A    -11.221823
       7A    -11.217986     8A    -11.216907     9A     -1.419805
      10A     -1.150945    11A     -1.025720    12A     -1.016648
      13A     -0.944307    14A     -0.834586    15A     -0.808309
      16A     -0.726226    17A     -0.667783    18A     -0.666449
      19A     -0.660870    20A     -0.619336    21A     -0.590226
      22A     -0.579651    23A     -0.528156    24A     -0.523580
      25A     -0.512388    26A     -0.479193    27A     -0.467201
      28A     -0.339759    29A     -0.310068

  @DF-RHF Final Energy:  -344.70352209282191

   => Energetics <=

    Nuclear Repulsion Energy =            348.8943039066939491
    One-Electron Energy =               -1158.9123176459920614
    Two-Electron Energy =                 465.3144916464763128
    DFT Exchange-Correlation Energy =       0.0000000000000000
    Empirical Dispersion Energy =           0.0000000000000000
    PCM Polarization Energy =               0.0000000000000000
    EFP Energy =                            0.0000000000000000
    Total Energy =                       -344.7035220928217996
    Molecular point group: c1
  Basis Set: CC-PVTZ
  Basis Set:

  -Total Gradient:
     Atom            X                  Y                   Z
    ------   -----------------  -----------------  -----------------
       1       -0.000002541908     0.000000739456    -0.000002093138
       2        0.000066794035     0.000015079954     0.000021575116
       3       -0.000037011024     0.000055136603    -0.000042569849
       4       -0.000032919348    -0.000057140602     0.000034428698
       5        0.000002250726    -0.000001876496    -0.000003088825
       6       -0.000046937696    -0.000042300503     0.000033055847
       7        0.000001047017     0.000004257085    -0.000000231749
       8       -0.000040409615     0.000060976266    -0.000042736496
       9        0.000002931715    -0.000000957865    -0.000005917104
      10        0.000640079242    -0.000714924012    -0.000874829475
      11        0.000009482290     0.000002691686    -0.000010062231
      12       -0.000628426475     0.000870663932     0.001091959161
      13       -0.000630948499     0.000787789374     0.000527255824
      14        0.000666392915    -0.000916161223    -0.000717146203
      15        0.000036875989    -0.000043387831     0.000021011092
      16       -0.000006659366    -0.000020585825    -0.000030610674

  **** Optimization is complete! (in 5 steps) ****
    Final optimized geometry and variables:
    Molecular point group: c1

    Geometry (in Angstrom), charge = 0, multiplicity = 1:

    H           -0.280356652517    -2.629800221293     2.045632209114
    C           -0.230297305341    -1.795812488781     1.373244478645
    C           -1.193504826958    -1.625933572962     0.388819074060
    C            0.788065686072    -0.876619972078     1.472952844762
    H           -1.996038496428    -2.332993474713     0.296343968234
    C           -1.132661236645    -0.559677827245    -0.475795247319
    H            1.540790899932    -0.989672399497     2.230128585931
    C            0.863494028011     0.206911739748     0.608954814455
    H           -1.871197024121    -0.419677484207    -1.240417436942
    C           -0.098986658292     0.364927954246    -0.371112934761
    H            1.664557732576     0.908665939059     0.716371977539
    O           -0.126579449674     1.379796919697    -1.252925086406
    C            0.944523613338     2.272615444346    -1.323911234374
    H            0.782289257436     2.875007056055    -2.203896201256
    H            1.888951222545     1.751189311258    -1.430349970712
    H            0.986779907574     2.914358824719    -0.450914575747

  Mulliken Charges: (a.u.)
   Center  Symbol    Alpha    Beta     Spin     Total
       1     H     0.42442  0.42442  0.00000  0.15117
       2     C     3.10086  3.10086  0.00000 -0.20172
       3     C     3.05803  3.05803  0.00000 -0.11606
       4     C     3.06166  3.06166  0.00000 -0.12332
       5     H     0.42299  0.42299  0.00000  0.15401
       6     C     3.11145  3.11145  0.00000 -0.22289
       7     H     0.42358  0.42358  0.00000  0.15284
       8     C     3.14333  3.14333  0.00000 -0.28667
       9     H     0.42090  0.42090  0.00000  0.15821
      10     C     2.85063  2.85063  0.00000  0.29874
      11     H     0.42262  0.42262  0.00000  0.15476
      12     O     4.15131  4.15131  0.00000 -0.30263
      13     C     3.04453  3.04453  0.00000 -0.08906
      14     H     0.43914  0.43914  0.00000  0.12171
      15     H     0.46341  0.46341  0.00000  0.07319
      16     H     0.46114  0.46114  0.00000  0.07773

   Total alpha = 29.00000, Total beta = 29.00000, Total charge = -0.00000
