  ==> Input File <==

--------------------------------------------------------------------------
set {
	reference rhf
	basis cc-pvtz
}

set_num_threads( 4 )
memory 2 gb

molecule MOL {
0 1

H	 1.651322	 -0.822465	 0.000000
O	 0.729993	 -1.034364	 0.000000
C	 0.037305	 0.100061	 0.000000
C	 0.771752	 1.207148	 0.694999
O	 -1.030258	 0.189768	 -0.499054
H	 0.975928	 0.918745	 1.718036
H	 0.176935	 2.105143	 0.672089
H	 1.721859	 1.374216	 0.204232

	symmetry c1
}
set optking {
	frozen_dihedral = ("
		4 3 2 1
	")
}

ee = optimize('scf')
oeprop('DIPOLE', 'QUADRUPOLE', 'MULLIKEN_CHARGES')
f=open( 'psi4out.xyz', 'w' )
f.write( "8  " )
f.write( str(ee) + "\n" )
f.write( MOL.save_string_xyz() )
f.close()
--------------------------------------------------------------------------

    Molecular point group: c1
  Charge       = 0
  Multiplicity = 1
  Basis Set: CC-PVTZ
  Basis Set:
  @DF-RHF Final Energy:  -227.89073796509953
    Total Energy =                       -227.8907379650993903
    Molecular point group: c1
  Basis Set: CC-PVTZ
  Basis Set:
  Basis Set: CC-PVTZ
  Basis Set:
  @DF-RHF Final Energy:  -227.89035655548906
    Total Energy =                       -227.8903565554889781
  Basis Set: CC-PVTZ
  Basis Set:
  Basis Set: CC-PVTZ
  Basis Set:
  @DF-RHF Final Energy:  -227.89141983882550
    Total Energy =                       -227.8914198388254988
  Basis Set: CC-PVTZ
  Basis Set:
  Basis Set: CC-PVTZ
  Basis Set:
  @DF-RHF Final Energy:  -227.89253907932599
    Total Energy =                       -227.8925390793260419
  Basis Set: CC-PVTZ
  Basis Set:
  @DF-RHF Final Energy:  -227.89255673574593
    Total Energy =                       -227.8925567357459272
  @DF-RHF Final Energy:  -227.89256318071901
    Total Energy =                       -227.8925631807189518
  @DF-RHF Final Energy:  -227.89256781842187
    Total Energy =                       -227.8925678184219237
  @DF-RHF Final Energy:  -227.89257144173519
    Total Energy =                       -227.8925714417352708
  @DF-RHF Final Energy:  -227.89257341715498
    Total Energy =                       -227.8925734171549493
  @DF-RHF Final Energy:  -227.89257335383701
    Total Energy =                       -227.8925733538370366
  @DF-RHF Final Energy:  -227.89257316940441
    Total Energy =                       -227.8925731694043009
  @DF-RHF Final Energy:  -227.89257228086453
    Total Energy =                       -227.8925722808645844
  @DF-RHF Final Energy:  -227.89257357088940
    Total Energy =                       -227.8925735708892830
  Basis Set: CC-PVTZ
  Basis Set:
  @DF-RHF Final Energy:  -227.89257392343004
    Total Energy =                       -227.8925739234300352
  Basis Set: CC-PVTZ
  Basis Set:
  Basis Set: CC-PVTZ
  Basis Set:
  @DF-RHF Final Energy:  -227.89257417195984
    Total Energy =                       -227.8925741719597511
  Basis Set: CC-PVTZ
  Basis Set:
  Basis Set: CC-PVTZ
  Basis Set:
  @DF-RHF Final Energy:  -227.89257445802775
    Total Energy =                       -227.8925744580276955
  Basis Set: CC-PVTZ
  Basis Set:
  Charge       = 0
  Multiplicity = 1
  Basis Set: CC-PVTZ
  Basis Set:

    Orbital Energies (a.u.)
    -----------------------

    Doubly Occupied:

       1A    -20.604473     2A    -20.540865     3A    -11.377978
       4A    -11.249084     5A     -1.472542     6A     -1.376259
       7A     -1.026804     8A     -0.841414     9A     -0.721307
      10A     -0.672223    11A     -0.660803    12A     -0.603295
      13A     -0.575295    14A     -0.548424    15A     -0.486116
      16A     -0.450388

  @DF-RHF Final Energy:  -227.89257469035419

   => Energetics <=

    Nuclear Repulsion Energy =            122.5042126452644879
    One-Electron Energy =                -554.3790348134747319
    Two-Electron Energy =                 203.9822474778560490
    DFT Exchange-Correlation Energy =       0.0000000000000000
    Empirical Dispersion Energy =           0.0000000000000000
    PCM Polarization Energy =               0.0000000000000000
    EFP Energy =                            0.0000000000000000
    Total Energy =                       -227.8925746903541949
    Molecular point group: c1
  Basis Set: CC-PVTZ
  Basis Set:

  -Total Gradient:
     Atom            X                  Y                   Z
    ------   -----------------  -----------------  -----------------
       1       -0.000078951233     0.000157098359    -0.005317825734
       2       -0.000580307624    -0.000639033800     0.008392210104
       3        0.002244998349     0.001315631194    -0.006429435295
       4       -0.001562073222    -0.001002725877     0.003083947355
       5       -0.000019490647     0.000153526618     0.000293524624
       6        0.000017822381    -0.000036520107    -0.000003038874
       7        0.000005216445     0.000011914883    -0.000013804098
       8       -0.000027214452     0.000040108731    -0.000005578082

  **** Optimization is complete! (in 17 steps) ****
    Final optimized geometry and variables:
    Molecular point group: c1

    Geometry (in Angstrom), charge = 0, multiplicity = 1:

    H            1.503856175794    -1.014784308536    -0.112211157811
    O            0.571711009158    -1.145808347263    -0.102035280645
    C           -0.100324524029     0.012181650595    -0.063422774475
    C            0.611006548820     1.141063085833     0.637160644502
    O           -1.198245527550     0.078098461700    -0.475729895762
    H            0.751486862533     0.871019620836     1.676848712045
    H            0.018547112839     2.038278072671     0.569903711065
    H            1.589063939581     1.319329809871     0.203612830375

  Mulliken Charges: (a.u.)
   Center  Symbol    Alpha    Beta     Spin     Total
       1     H     0.38893  0.38893  0.00000  0.22214
       2     O     4.14795  4.14795  0.00000 -0.29591
       3     C     2.81024  2.81024  0.00000  0.37952
       4     C     3.14757  3.14757  0.00000 -0.29515
       5     O     4.17229  4.17229  0.00000 -0.34458
       6     H     0.44174  0.44174  0.00000  0.11651
       7     H     0.43444  0.43444  0.00000  0.13111
       8     H     0.45682  0.45682  0.00000  0.08636

   Total alpha = 16.00000, Total beta = 16.00000, Total charge =  0.00000
