  ==> Input File <==

--------------------------------------------------------------------------
set {
	reference rhf
	basis 6-31G*
}

set_num_threads( 4 )
memory 2 gb

molecule MOL {
0 1

H	 -0.000158	 1.970498	 0.756846
O	 -0.000074	 1.880206	 -0.189275
C	 -0.000015	 0.544847	 -0.545111
C	 -1.278788	 -0.123820	 -0.051541
C	 1.278802	 -0.123718	 -0.051505
H	 -0.000001	 0.490777	 -1.623619
F	 -1.638760	 -1.066949	 -0.895621
F	 -1.128169	 -0.674312	 1.134474
F	 -2.268857	 0.751334	 0.022394
F	 2.323327	 0.466644	 -0.591854
F	 1.326242	 -1.401483	 -0.363667
F	 1.388946	 -0.015632	 1.262939

	symmetry c1
}
set optking {
	frozen_dihedral = ("
		7 4 3 6
	")
}

ee = optimize('scf')
oeprop('DIPOLE', 'QUADRUPOLE', 'MULLIKEN_CHARGES')
f=open( 'psi4out.xyz', 'w' )
f.write( "12  " )
f.write( str(ee) + "\n" )
f.write( MOL.save_string_xyz() )
f.close()
--------------------------------------------------------------------------

    Molecular point group: c1
  Charge       = 0
  Multiplicity = 1
  Basis Set: 6-31G*
  Basis Set:
  @DF-RHF Final Energy:  -786.27335177711689
    Total Energy =                       -786.2733517771162042
    Molecular point group: c1
  Basis Set: 6-31G*
  Basis Set:
  Basis Set: 6-31G*
  Basis Set:
  @DF-RHF Final Energy:  -786.27469688459132
    Total Energy =                       -786.2746968845912079
  Basis Set: 6-31G*
  Basis Set:
  Basis Set: 6-31G*
  Basis Set:
  @DF-RHF Final Energy:  -786.27506202930044
    Total Energy =                       -786.2750620293004431
  Basis Set: 6-31G*
  Basis Set:
  Basis Set: 6-31G*
  Basis Set:
  @DF-RHF Final Energy:  -786.27513073959767
    Total Energy =                       -786.2751307395969889
  Basis Set: 6-31G*
  Basis Set:
  Basis Set: 6-31G*
  Basis Set:
  @DF-RHF Final Energy:  -786.27514797767139
    Total Energy =                       -786.2751479776720771
  Basis Set: 6-31G*
  Basis Set:
  Basis Set: 6-31G*
  Basis Set:
  @DF-RHF Final Energy:  -786.27515331958716
    Total Energy =                       -786.2751533195880711
  Basis Set: 6-31G*
  Basis Set:
  Charge       = 0
  Multiplicity = 1
  Basis Set: 6-31G*
  Basis Set:

    Orbital Energies (a.u.)
    -----------------------

    Doubly Occupied:

       1A    -26.363301     2A    -26.363161     3A    -26.361594
       4A    -26.358760     5A    -26.358661     6A    -26.356554
       7A    -20.618071     8A    -11.525660     9A    -11.524798
      10A    -11.349113    11A     -1.764454    12A     -1.757732
      13A     -1.660933    14A     -1.658836    15A     -1.655959
      16A     -1.653843    17A     -1.436616    18A     -1.102067
      19A     -0.995457    20A     -0.937384    21A     -0.863797
      22A     -0.861941    23A     -0.850711    24A     -0.845127
      25A     -0.831447    26A     -0.813988    27A     -0.737750
      28A     -0.728332    29A     -0.726762    30A     -0.720634
      31A     -0.688532    32A     -0.686502    33A     -0.683100
      34A     -0.675057    35A     -0.668996    36A     -0.660637
      37A     -0.657776    38A     -0.653095    39A     -0.618640
      40A     -0.549653    41A     -0.505759

  @DF-RHF Final Energy:  -786.27515373355277

   => Energetics <=

    Nuclear Repulsion Energy =            670.7355299933599326
    One-Electron Energy =               -2428.3589902622588852
    Two-Electron Energy =                 971.3483065353466372
    DFT Exchange-Correlation Energy =       0.0000000000000000
    Empirical Dispersion Energy =           0.0000000000000000
    PCM Polarization Energy =               0.0000000000000000
    EFP Energy =                            0.0000000000000000
    Total Energy =                       -786.2751537335523153
    Molecular point group: c1
  Basis Set: 6-31G*
  Basis Set:

  -Total Gradient:
     Atom            X                  Y                   Z
    ------   -----------------  -----------------  -----------------
       1        0.000003899699    -0.000026347060    -0.000014553714
       2       -0.000004119493    -0.000013656234    -0.000021681533
       3       -0.003639251993     0.005736077160    -0.000836249518
       4        0.003437479493    -0.004229766309     0.002664884509
       5       -0.000025043252     0.000061654070     0.000024852167
       6        0.002502548604    -0.004100750982     0.000206352924
       7       -0.002257477636     0.002640630901    -0.002050792161
       8        0.000010064557    -0.000027351717     0.000065244700
       9       -0.000014556959    -0.000002327005    -0.000003346779
      10       -0.000003841901     0.000000536560     0.000007455178
      11       -0.000005425135    -0.000020429305     0.000010765101
      12       -0.000004275974    -0.000018270086    -0.000052930875

  **** Optimization is complete! (in 7 steps) ****
    Final optimized geometry and variables:
    Molecular point group: c1

    Geometry (in Angstrom), charge = 0, multiplicity = 1:

    H            0.050739319239     1.999628570092     0.823848882157
    O            0.011475730172     1.925733167806    -0.122465546367
    C           -0.001735545511     0.603824829357    -0.509713687496
    C           -1.269197879708    -0.136866228105    -0.060321361015
    C            1.268095719259    -0.096850230903    -0.036806438606
    H            0.020606333141     0.559913556386    -1.588140653044
    F           -1.573346789700    -1.088855986769    -0.920651755193
    F           -1.142582481555    -0.683127447398     1.135766277168
    F           -2.287213017120     0.695599955884    -0.010534160072
    F            2.313918225369     0.384514743068    -0.674678496004
    F            1.212955094087    -1.394840641408    -0.259760845836
    F            1.464615105983     0.095867924157     1.256808327409

  Mulliken Charges: (a.u.)
   Center  Symbol    Alpha    Beta     Spin     Total
       1     H     0.26656  0.26656  0.00000  0.46688
       2     O     4.35951  4.35951  0.00000 -0.71903
       3     C     3.05337  3.05337  0.00000 -0.10673
       4     C     2.44488  2.44488  0.00000  1.11024
       5     C     2.44209  2.44209  0.00000  1.11583
       6     H     0.37381  0.37381  0.00000  0.25239
       7     F     4.67627  4.67627  0.00000 -0.35255
       8     F     4.67752  4.67752  0.00000 -0.35503
       9     F     4.67409  4.67409  0.00000 -0.34818
      10     F     4.67515  4.67515  0.00000 -0.35029
      11     F     4.67568  4.67568  0.00000 -0.35136
      12     F     4.68108  4.68108  0.00000 -0.36216

   Total alpha = 41.00000, Total beta = 41.00000, Total charge = -0.00000
