  ==> Input File <==

--------------------------------------------------------------------------
set {
	reference rhf
	basis 6-31G*
}

set_num_threads( 4 )
memory 2 gb

molecule MOL {
0 1

H	 -0.835307	 -1.312655	 -0.259662
O	 -1.422729	 -0.573567	 -0.196946
C	 -0.731407	 0.539437	 0.309156
C	 0.680193	 0.672443	 -0.251532
H	 -1.319765	 1.404033	 0.030086
H	 -0.700012	 0.506517	 1.397677
C	 1.599139	 -0.492137	 0.118598
H	 0.616402	 0.758534	 -1.332349
H	 1.107032	 1.602637	 0.117369
H	 1.239738	 -1.428634	 -0.297334
H	 2.601428	 -0.335055	 -0.265730
H	 1.674954	 -0.608418	 1.197020

	symmetry c1
}
set optking {
	frozen_dihedral = ("
		1 2 3 4
	")
}

ee = optimize('scf')
oeprop('DIPOLE', 'QUADRUPOLE', 'MULLIKEN_CHARGES')
f=open( 'psi4out.xyz', 'w' )
f.write( "12  " )
f.write( str(ee) + "\n" )
f.write( MOL.save_string_xyz() )
f.close()
--------------------------------------------------------------------------

    Molecular point group: c1
  Charge       = 0
  Multiplicity = 1
  Basis Set: 6-31G*
  Basis Set:
  @DF-RHF Final Energy:  -193.10840571450933
    Total Energy =                       -193.1084057145092743
    Molecular point group: c1
  Basis Set: 6-31G*
  Basis Set:
  Basis Set: 6-31G*
  Basis Set:
  @DF-RHF Final Energy:  -193.10842511348272
    Total Energy =                       -193.1084251134827809
  Basis Set: 6-31G*
  Basis Set:
  Basis Set: 6-31G*
  Basis Set:
  @DF-RHF Final Energy:  -193.10855696162017
    Total Energy =                       -193.1085569616200814
  Basis Set: 6-31G*
  Basis Set:
  Basis Set: 6-31G*
  Basis Set:
  @DF-RHF Final Energy:  -193.10857627375131
    Total Energy =                       -193.1085762737513676
  Basis Set: 6-31G*
  Basis Set:
  Basis Set: 6-31G*
  Basis Set:
  @DF-RHF Final Energy:  -193.10857858717026
    Total Energy =                       -193.1085785871702569
  Basis Set: 6-31G*
  Basis Set:
  Charge       = 0
  Multiplicity = 1
  Basis Set: 6-31G*
  Basis Set:

    Orbital Energies (a.u.)
    -----------------------

    Doubly Occupied:

       1A    -20.551011     2A    -11.267441     3A    -11.224425
       4A    -11.223291     5A     -1.358689     6A     -1.054733
       7A     -0.930334     8A     -0.815700     9A     -0.685501
      10A     -0.640597    11A     -0.612399    12A     -0.586168
      13A     -0.548857    14A     -0.509576    15A     -0.495578
      16A     -0.468214    17A     -0.430082

  @DF-RHF Final Energy:  -193.10857893010845

   => Energetics <=

    Nuclear Repulsion Energy =            133.0159336142221207
    One-Electron Energy =                -525.4438317858927121
    Two-Electron Energy =                 199.3193192415621127
    DFT Exchange-Correlation Energy =       0.0000000000000000
    Empirical Dispersion Energy =           0.0000000000000000
    PCM Polarization Energy =               0.0000000000000000
    EFP Energy =                            0.0000000000000000
    Total Energy =                       -193.1085789301084503
    Molecular point group: c1
  Basis Set: 6-31G*
  Basis Set:

  -Total Gradient:
     Atom            X                  Y                   Z
    ------   -----------------  -----------------  -----------------
       1        0.000579827125     0.000662651554    -0.002265127347
       2       -0.000456452374    -0.001240053517     0.003295766190
       3       -0.000651283427     0.001476820004    -0.002186036840
       4        0.000528898150    -0.000909746463     0.001150383287
       5        0.000009273201     0.000017893077     0.000006507051
       6        0.000005657568    -0.000013453788    -0.000010925880
       7       -0.000003915801    -0.000002533200    -0.000008996930
       8       -0.000003509433    -0.000006601018     0.000008404515
       9       -0.000003227787     0.000007165100     0.000007058509
      10       -0.000007228641     0.000002026346    -0.000000369491
      11        0.000002630114     0.000002437398    -0.000000206157
      12       -0.000000668694     0.000003394509     0.000003543093

  **** Optimization is complete! (in 6 steps) ****
    Final optimized geometry and variables:
    Molecular point group: c1

    Geometry (in Angstrom), charge = 0, multiplicity = 1:

    H           -0.884865098876    -1.313729434303    -0.271888888817
    O           -1.450780069276    -0.560206554101    -0.191733985284
    C           -0.730439528626     0.532985019615     0.316073001415
    C            0.679936784490     0.659327922166    -0.250939658738
    H           -1.308832709229     1.413194722327     0.066404908309
    H           -0.679727954511     0.473988639567     1.402949145836
    C            1.612597670033    -0.491343964586     0.134320224407
    H            0.618537443493     0.738343697857    -1.333151886423
    H            1.103486460322     1.593575180974     0.109267942680
    H            1.283528913750    -1.443255471936    -0.274647235084
    H            2.614398203005    -0.318502089915    -0.244069239346
    H            1.678810576291    -0.599048223145     1.213233283597

  Mulliken Charges: (a.u.)
   Center  Symbol    Alpha    Beta     Spin     Total
       1     H     0.27918  0.27918  0.00000  0.44163
       2     O     4.37479  4.37479  0.00000 -0.74959
       3     C     2.98506  2.98506  0.00000  0.02987
       4     C     3.17453  3.17453  0.00000 -0.34906
       5     H     0.41616  0.41616  0.00000  0.16769
       6     H     0.43201  0.43201  0.00000  0.13598
       7     C     3.24859  3.24859  0.00000 -0.49719
       8     H     0.41415  0.41415  0.00000  0.17169
       9     H     0.41893  0.41893  0.00000  0.16213
      10     H     0.42718  0.42718  0.00000  0.14564
      11     H     0.41219  0.41219  0.00000  0.17563
      12     H     0.41721  0.41721  0.00000  0.16558

   Total alpha = 17.00000, Total beta = 17.00000, Total charge =  0.00000
