                              Psi4 1.0.54 Driver

  ==> Input File <==

--------------------------------------------------------------------------
set {
	reference rhf
	basis cc-pvtz
}

set_num_threads( 4 )
memory 2 gb

molecule MOL {
0 1

H	 2.010512	 -3.725808	 -0.511658
C	 2.221877	 -2.696151	 -0.248525
C	 0.964011	 -1.838777	 -0.334171
H	 2.632048	 -2.690313	 0.755848
H	 2.992544	 -2.335349	 -0.921512
C	 1.215950	 -0.382441	 0.027187
H	 0.198705	 -2.232564	 0.325376
H	 0.560309	 -1.891932	 -1.342524
N	 0.000002	 0.398953	 -0.040851
H	 1.595821	 -0.325848	 1.042896
H	 2.002010	 0.020302	 -0.618561
C	 -1.215959	 -0.382435	 0.027143
H	 -0.000012	 1.086078	 0.683841
C	 -2.451944	 0.502410	 -0.038737
H	 -1.221867	 -1.069392	 -0.813828
H	 -1.259993	 -0.999709	 0.929424
C	 -3.752217	 -0.292550	 0.005776
H	 -2.407325	 1.093801	 -0.946480
H	 -2.431979	 1.206234	 0.790023
H	 -3.817783	 -0.982946	 -0.828547
H	 -4.612613	 0.364348	 -0.042306
H	 -3.830160	 -0.871666	 0.919868

	symmetry c1
}
set optking {
	frozen_dihedral = ("
		10 6 9 12
	")
}

ee,wfn = optimize('scf', return_wfn=True)
oeprop( wfn, 'DIPOLE', 'QUADRUPOLE', 'MULLIKEN_CHARGES')
f=open( 'psi4out.xyz', 'w' )
f.write( "22  " )
f.write( str(ee) + "\n" )
f.write( MOL.save_string_xyz() )
f.close()
--------------------------------------------------------------------------

    Molecular point group: c1
  Charge       = 0
  Multiplicity = 1
  Basis Set: CC-PVTZ
  Basis Set:
  @DF-RHF Final Energy:  -290.47262916693654
    Total Energy =                       -290.4726291669363718
    Molecular point group: c1
  Basis Set: CC-PVTZ
  Basis Set:
  Basis Set: CC-PVTZ
  Basis Set:
  @DF-RHF Final Energy:  -290.20957837073269
    Total Energy =                       -290.2095783707325154
  Basis Set: CC-PVTZ
  Basis Set:
  Basis Set: CC-PVTZ
  Basis Set:
  @DF-RHF Final Energy:  -290.35571377443569
    Total Energy =                       -290.3557137744355714
  Basis Set: CC-PVTZ
  Basis Set:
  Basis Set: CC-PVTZ
  Basis Set:
  @DF-RHF Final Energy:  -290.46064391768624
    Total Energy =                       -290.4606439176860135
  Basis Set: CC-PVTZ
  Basis Set:
  @DF-RHF Final Energy:  -290.47921543283883
    Total Energy =                       -290.4792154328385436
  @DF-RHF Final Energy:  -290.48050018836767
    Total Energy =                       -290.4805001883677278
  Basis Set: CC-PVTZ
  Basis Set:
  @DF-RHF Final Energy:  -290.48073410378009
    Total Energy =                       -290.4807341037797528
  Basis Set: CC-PVTZ
  Basis Set:
  Basis Set: CC-PVTZ
  Basis Set:
  @DF-RHF Final Energy:  -290.48076846404933
    Total Energy =                       -290.4807684640493335
  Basis Set: CC-PVTZ
  Basis Set:
  Basis Set: CC-PVTZ
  Basis Set:
  @DF-RHF Final Energy:  -290.48077161547690
    Total Energy =                       -290.4807716154768968
  Basis Set: CC-PVTZ
  Basis Set:
  Charge       = 0
  Multiplicity = 1
  Basis Set: CC-PVTZ
  Basis Set:

    Orbital Energies (a.u.)
    -----------------------

    Doubly Occupied:

       1A    -15.522839     2A    -11.236824     3A    -11.235032
       4A    -11.214020     5A    -11.210676     6A    -11.208356
       7A    -11.206699     8A     -1.198784     9A     -1.058293
      10A     -1.028800    11A     -0.929950    12A     -0.875780
      13A     -0.814374    14A     -0.779179    15A     -0.664188
      16A     -0.632617    17A     -0.621104    18A     -0.614465
      19A     -0.568619    20A     -0.557377    21A     -0.545872
      22A     -0.530043    23A     -0.504558    24A     -0.486893
      25A     -0.478698    26A     -0.473234    27A     -0.464732
      28A     -0.462212    29A     -0.347150

  @DF-RHF Final Energy:  -290.48077185243881

   => Energetics <=

    Nuclear Repulsion Energy =            318.5154758429980575
    One-Electron Energy =               -1023.0497583029904263
    Two-Electron Energy =                 414.0535106075535055
    DFT Exchange-Correlation Energy =       0.0000000000000000
    Empirical Dispersion Energy =           0.0000000000000000
    PCM Polarization Energy =               0.0000000000000000
    EFP Energy =                            0.0000000000000000
    Total Energy =                       -290.4807718524388633
    Molecular point group: c1
  Basis Set: CC-PVTZ
  Basis Set:

  -Total Gradient:
     Atom            X                  Y                   Z
    ------   -----------------  -----------------  -----------------
       1       -0.000002080433    -0.000029324338     0.000024793984
       2        0.000009304791     0.000010937164     0.000028277601
       3       -0.000001995335    -0.000000371848    -0.000087776821
       4        0.000013671960    -0.000002436747     0.000016827723
       5        0.000006139034    -0.000005222820    -0.000008376714
       6       -0.004622185999    -0.004716306987     0.001903006749
       7       -0.000046576681    -0.000003111756     0.000009306174
       8        0.000001468585    -0.000006025527    -0.000007657641
       9        0.000149295637     0.004976260927     0.004293507885
      10        0.003877922347     0.002629318121    -0.002808812220
      11        0.000000292204     0.000001889159    -0.000010880613
      12        0.000612079636    -0.002869793943    -0.003302757921
      13        0.000011163801     0.000015201763    -0.000015936379
      14       -0.000007367233     0.000014145586    -0.000050133914
      15       -0.000000493537    -0.000027110234     0.000003147490
      16        0.000007031621    -0.000012550578     0.000019771963
      17        0.000022317813     0.000010341577    -0.000000125202
      18       -0.000008852658     0.000005363423    -0.000016481133
      19       -0.000008477301     0.000013879193     0.000004179322
      20       -0.000004243195    -0.000008255373    -0.000001732698
      21       -0.000002163597     0.000006947660    -0.000003062207
      22       -0.000006251459    -0.000003774424     0.000010914574

  **** Optimization is complete! (in 10 steps) ****
    Final optimized geometry and variables:
    Molecular point group: c1

    Geometry (in Angstrom), charge = 0, multiplicity = 1:

    H            2.185192599648    -3.039431936018     1.773487765792
    C            2.419705249159    -2.013707374443     1.514452584772
    C            1.248857805310    -1.350415562991     0.795894634272
    H            2.665837853826    -1.489642477927     2.431888456639
    H            3.307691900415    -2.024684474246     0.891751571984
    C            1.567794205999     0.090106926019     0.420525304358
    H            0.371242385852    -1.392235224917     1.430957933660
    H            1.014059292142    -1.912627616980    -0.101924906214
    N            0.541380830461     0.788360848187    -0.344839370541
    H            1.840103053882     0.650383040605     1.316400988640
    H            2.471685153469     0.077759358122    -0.183539033742
    C           -0.843886829273     0.385773879685    -0.237746364499
    H            0.629483455451     1.771493814967    -0.218723530566
    C           -1.719206054626     1.257044935339    -1.128375654784
    H           -0.939476885995    -0.644184751620    -0.556994846375
    H           -1.228535347036     0.432157362851     0.785421247714
    C           -3.191013551999     0.862303091784    -1.079419538176
    H           -1.349618072466     1.194076400990    -2.145903383110
    H           -1.615998566737     2.296418004128    -0.825240942553
    H           -3.333061078945    -0.161939122567    -1.407871898462
    H           -3.786926607619     1.499435051296    -1.722259734918
    H           -3.589063289914     0.944351188214    -0.073517617515

  Mulliken Charges: (a.u.)
   Center  Symbol    Alpha    Beta     Spin     Total
       1     H     0.44740  0.44740  0.00000  0.10521
       2     C     3.15241  3.15241  0.00000 -0.30482
       3     C     3.09656  3.09656  0.00000 -0.19312
       4     H     0.45556  0.45556  0.00000  0.08888
       5     H     0.45380  0.45380  0.00000  0.09240
       6     C     3.01850  3.01850  0.00000 -0.03701
       7     H     0.44980  0.44980  0.00000  0.10040
       8     H     0.44951  0.44951  0.00000  0.10098
       9     N     3.64547  3.64547  0.00000 -0.29094
      10     H     0.46946  0.46946  0.00000  0.06108
      11     H     0.46049  0.46049  0.00000  0.07902
      12     C     3.02341  3.02341  0.00000 -0.04682
      13     H     0.44234  0.44234  0.00000  0.11531
      14     C     3.08279  3.08279  0.00000 -0.16557
      15     H     0.45611  0.45611  0.00000  0.08777
      16     H     0.47476  0.47476  0.00000  0.05047
      17     C     3.15341  3.15341  0.00000 -0.30683
      18     H     0.44961  0.44961  0.00000  0.10078
      19     H     0.45963  0.45963  0.00000  0.08073
      20     H     0.45510  0.45510  0.00000  0.08979
      21     H     0.44777  0.44777  0.00000  0.10447
      22     H     0.45609  0.45609  0.00000  0.08781

   Total alpha = 29.00000, Total beta = 29.00000, Total charge = -0.00000

*** Psi4 exiting successfully. Buy a developer a beer!
