                              Psi4 1.0.54 Driver

  ==> Input File <==

--------------------------------------------------------------------------
set {
	reference rhf
	basis cc-pvtz
}

set_num_threads( 4 )
memory 2 gb

molecule MOL {
0 1

H	 -3.294565	 0.569785	 0.000000
C	 -2.246225	 0.343737	 0.000000
C	 -1.809462	 -0.973484	 0.000000
C	 -1.312577	 1.353775	 0.000000
H	 -2.523539	 -1.775124	 0.000000
C	 -0.467257	 -1.267606	 0.000000
H	 -1.631287	 2.379013	 0.000000
C	 0.046966	 1.074396	 0.000000
H	 -0.119372	 -2.281828	 0.000000
C	 0.471772	 -0.241514	 0.000000
H	 0.748162	 1.882966	 0.000000
O	 1.760432	 -0.625184	 0.000000
C	 2.129679	 -1.827784	 0.604622
H	 1.897941	 -1.828039	 1.663869
H	 3.197107	 -1.917163	 0.478224
H	 1.645650	 -2.675429	 0.132477

	symmetry c1
}
set optking {
	frozen_dihedral = ("
		13 12 10 8
	")
}

ee,wfn = optimize('scf', return_wfn=True)
oeprop( wfn, 'DIPOLE', 'QUADRUPOLE', 'MULLIKEN_CHARGES')
f=open( 'psi4out.xyz', 'w' )
f.write( "16  " )
f.write( str(ee) + "\n" )
f.write( MOL.save_string_xyz() )
f.close()
--------------------------------------------------------------------------

    Molecular point group: c1
  Charge       = 0
  Multiplicity = 1
  Basis Set: CC-PVTZ
  Basis Set:
  @DF-RHF Final Energy:  -344.69446855448666
    Total Energy =                       -344.6944685544868321
    Molecular point group: c1
  Basis Set: CC-PVTZ
  Basis Set:
  Basis Set: CC-PVTZ
  Basis Set:
  @DF-RHF Final Energy:  -344.20590509385232
    Total Energy =                       -344.2059050938522660
  Basis Set: CC-PVTZ
  Basis Set:
  Basis Set: CC-PVTZ
  Basis Set:
  @DF-RHF Final Energy:  -344.41832445537955
    Total Energy =                       -344.4183244553794339
  Basis Set: CC-PVTZ
  Basis Set:
  Basis Set: CC-PVTZ
  Basis Set:
  @DF-RHF Final Energy:  -344.62665651943303
    Total Energy =                       -344.6266565194330269
  Basis Set: CC-PVTZ
  Basis Set:
  @DF-RHF Final Energy:  -344.69647116518883
    Total Energy =                       -344.6964711651886546
  Basis Set: CC-PVTZ
  Basis Set:
  @DF-RHF Final Energy:  -344.70134992000294
    Total Energy =                       -344.7013499200030537
  Basis Set: CC-PVTZ
  Basis Set:
  Basis Set: CC-PVTZ
  Basis Set:
  @DF-RHF Final Energy:  -344.70234538834575
    Total Energy =                       -344.7023453883459752
  Basis Set: CC-PVTZ
  Basis Set:
  Basis Set: CC-PVTZ
  Basis Set:
  @DF-RHF Final Energy:  -344.70241251298569
    Total Energy =                       -344.7024125129860863
  Basis Set: CC-PVTZ
  Basis Set:
  Charge       = 0
  Multiplicity = 1
  Basis Set: CC-PVTZ
  Basis Set:

    Orbital Energies (a.u.)
    -----------------------

    Doubly Occupied:

       1A    -20.576265     2A    -11.291626     3A    -11.277562
       4A    -11.231635     5A    -11.230309     6A    -11.222843
       7A    -11.218944     8A    -11.218687     9A     -1.415312
      10A     -1.151481    11A     -1.024496    12A     -1.017202
      13A     -0.942117    14A     -0.835605    15A     -0.808877
      16A     -0.723859    17A     -0.668109    18A     -0.666994
      19A     -0.655865    20A     -0.618303    21A     -0.592182
      22A     -0.582180    23A     -0.530239    24A     -0.519347
      25A     -0.510655    26A     -0.483544    27A     -0.458895
      28A     -0.339849    29A     -0.313391

  @DF-RHF Final Energy:  -344.70241816996258

   => Energetics <=

    Nuclear Repulsion Energy =            348.8000647549280302
    One-Electron Energy =               -1158.7522187462791408
    Two-Electron Energy =                 465.2497358213886400
    DFT Exchange-Correlation Energy =       0.0000000000000000
    Empirical Dispersion Energy =           0.0000000000000000
    PCM Polarization Energy =               0.0000000000000000
    EFP Energy =                            0.0000000000000000
    Total Energy =                       -344.7024181699624705
    Molecular point group: c1
  Basis Set: CC-PVTZ
  Basis Set:

  -Total Gradient:
     Atom            X                  Y                   Z
    ------   -----------------  -----------------  -----------------
       1       -0.000066465431    -0.000006143081    -0.000059605929
       2        0.000179202165     0.000283284075     0.000043366117
       3        0.000102552836    -0.000117334920     0.000268165197
       4       -0.000236942635    -0.000137003378    -0.000154511783
       5        0.000018885083    -0.000050457717    -0.000010977021
       6       -0.000202735905    -0.000108886939    -0.000227675672
       7        0.000040733084     0.000027507508     0.000031602941
       8       -0.001161837120    -0.000271009757     0.001412799091
       9        0.000025400706    -0.000029503432     0.000016925654
      10        0.001365258187     0.000880793012    -0.001292551377
      11       -0.000005098730     0.000060505046    -0.000028052480
      12        0.001076024855    -0.001413136848    -0.001224473931
      13       -0.001164797826     0.000977734466     0.001167502396
      14       -0.000053897029    -0.000036424376     0.000020276694
      15        0.000074294281    -0.000011894777     0.000142047493
      16        0.000009423482    -0.000048028880    -0.000104837386

  **** Optimization is complete! (in 9 steps) ****
    Final optimized geometry and variables:
    Molecular point group: c1

    Geometry (in Angstrom), charge = 0, multiplicity = 1:

    H           -2.242238646733     0.377219235622    -2.445910550285
    C           -1.500494337194     0.296136719632    -1.675295124521
    C           -1.066974677337    -0.941041125120    -1.249771230371
    C           -0.966978171050     1.433072036175    -1.091255965532
    H           -1.470657775735    -1.832357379334    -1.691693077598
    C           -0.108758453150    -1.057073597885    -0.256454632434
    H           -1.297434920247     2.404465960168    -1.406964943333
    C           -0.018412228555     1.332612162600    -0.097823616612
    H            0.217335563252    -2.029036343336     0.054055784677
    C            0.421350175258     0.084505828221     0.318448449184
    H            0.398127838830     2.206233348711     0.363758714846
    O            1.369331153470     0.066275139536     1.277278826544
    C            1.419830926139    -1.008553684645     2.171069318056
    H            0.437885432597    -1.229982777063     2.573632367706
    H            2.076639526786    -0.710946238335     2.974058397329
    H            1.823692577482    -1.900318282015     1.705452097009

  Mulliken Charges: (a.u.)
   Center  Symbol    Alpha    Beta     Spin     Total
       1     H     0.42423  0.42423  0.00000  0.15154
       2     C     3.09765  3.09765  0.00000 -0.19529
       3     C     3.06167  3.06167  0.00000 -0.12333
       4     C     3.06038  3.06038  0.00000 -0.12075
       5     H     0.42306  0.42306  0.00000  0.15388
       6     C     3.13148  3.13148  0.00000 -0.26295
       7     H     0.42273  0.42273  0.00000  0.15454
       8     C     3.11062  3.11062  0.00000 -0.22125
       9     H     0.42289  0.42289  0.00000  0.15423
      10     C     2.85823  2.85823  0.00000  0.28353
      11     H     0.41964  0.41964  0.00000  0.16072
      12     O     4.15875  4.15875  0.00000 -0.31750
      13     C     3.04535  3.04535  0.00000 -0.09070
      14     H     0.46089  0.46089  0.00000  0.07821
      15     H     0.44065  0.44065  0.00000  0.11871
      16     H     0.46179  0.46179  0.00000  0.07641

   Total alpha = 29.00000, Total beta = 29.00000, Total charge = -0.00000

*** Psi4 exiting successfully. Buy a developer a beer!
