  ==> Input File <==

--------------------------------------------------------------------------
set {
	reference rhf
	basis cc-pvtz
}

set_num_threads( 4 )
memory 2 gb

molecule MOL {
0 1

O	 0.395927	 1.296676	 -0.000076
C	 0.503051	 0.114301	 -0.000074
C	 -0.701422	 -0.805636	 -0.000109
C	 1.858118	 -0.556123	 0.000212
C	 -0.729817	 -1.789856	 1.158591
H	 -1.590890	 -0.180911	 -0.000134
H	 -0.714699	 -1.328122	 -0.953142
H	 -0.740813	 -1.271239	 2.107876
H	 -1.612709	 -2.415046	 1.099469
H	 0.143138	 -2.428630	 1.146431
H	 1.961106	 -1.191101	 -0.872843
H	 2.636688	 0.191085	 -0.000109
H	 1.961070	 -1.190284	 0.873873

	symmetry c1
}
set optking {
	frozen_dihedral = ("
		6 3 2 1
	")
}

ee = optimize('scf')
oeprop('DIPOLE', 'QUADRUPOLE', 'MULLIKEN_CHARGES')
f=open( 'psi4out.xyz', 'w' )
f.write( "13  " )
f.write( str(ee) + "\n" )
f.write( MOL.save_string_xyz() )
f.close()
--------------------------------------------------------------------------

    Molecular point group: c1
  Charge       = 0
  Multiplicity = 1
  Basis Set: CC-PVTZ
  Basis Set:
  @DF-RHF Final Energy:  -231.08008722236346
    Total Energy =                       -231.0800872223634315
    Molecular point group: c1
  Basis Set: CC-PVTZ
  Basis Set:
  Basis Set: CC-PVTZ
  Basis Set:
  @DF-RHF Final Energy:  -231.07942062578019
    Total Energy =                       -231.0794206257804149
  Basis Set: CC-PVTZ
  Basis Set:
  Basis Set: CC-PVTZ
  Basis Set:
  @DF-RHF Final Energy:  -231.08018085361277
    Total Energy =                       -231.0801808536127737
  Basis Set: CC-PVTZ
  Basis Set:
  Basis Set: CC-PVTZ
  Basis Set:
  @DF-RHF Final Energy:  -231.08092968230682
    Total Energy =                       -231.0809296823067598
  Basis Set: CC-PVTZ
  Basis Set:
  Basis Set: CC-PVTZ
  Basis Set:
  @DF-RHF Final Energy:  -231.08097622834714
    Total Energy =                       -231.0809762283471400
  Basis Set: CC-PVTZ
  Basis Set:
  Basis Set: CC-PVTZ
  Basis Set:
  @DF-RHF Final Energy:  -231.08100020592192
    Total Energy =                       -231.0810002059217823
  Basis Set: CC-PVTZ
  Basis Set:
  Basis Set: CC-PVTZ
  Basis Set:
  @DF-RHF Final Energy:  -231.08101710159087
    Total Energy =                       -231.0810171015906462
  Basis Set: CC-PVTZ
  Basis Set:
  Charge       = 0
  Multiplicity = 1
  Basis Set: CC-PVTZ
  Basis Set:

    Orbital Energies (a.u.)
    -----------------------

    Doubly Occupied:

       1A    -20.538541     2A    -11.320487     3A    -11.232359
       4A    -11.228597     5A    -11.227241     6A     -1.398289
       7A     -1.068976     8A     -0.995308     9A     -0.889376
      10A     -0.734476    11A     -0.655460    12A     -0.649693
      13A     -0.616855    14A     -0.593120    15A     -0.561732
      16A     -0.543975    17A     -0.530028    18A     -0.504773
      19A     -0.487082    20A     -0.402425

  @DF-RHF Final Energy:  -231.08101780780015

   => Energetics <=

    Nuclear Repulsion Energy =            177.2533935474625082
    One-Electron Energy =                -664.3112305525637566
    Two-Electron Energy =                 255.9768191973011540
    DFT Exchange-Correlation Energy =       0.0000000000000000
    Empirical Dispersion Energy =           0.0000000000000000
    PCM Polarization Energy =               0.0000000000000000
    EFP Energy =                            0.0000000000000000
    Total Energy =                       -231.0810178078000945
    Molecular point group: c1
  Basis Set: CC-PVTZ
  Basis Set:

  -Total Gradient:
     Atom            X                  Y                   Z
    ------   -----------------  -----------------  -----------------
       1        0.000027147436     0.000011311104    -0.000144547615
       2        0.000002298757    -0.000036923514     0.000263456265
       3       -0.000001208632     0.000037917828    -0.000364410171
       4       -0.000005316539     0.000034500990    -0.000018157773
       5       -0.000007072030    -0.000050251043     0.000077583132
       6        0.000007255820    -0.000013745756     0.000162660495
       7       -0.000011110059    -0.000010415621     0.000022766041
       8       -0.000000177866    -0.000001597080    -0.000006189056
       9        0.000006141112     0.000004506719     0.000000581309
      10       -0.000008894543     0.000017520143    -0.000010382580
      11       -0.000012860226     0.000014584576     0.000011328092
      12        0.000005635291    -0.000008084402     0.000005783371
      13       -0.000001838520     0.000000676058    -0.000000471508

  **** Optimization is complete! (in 8 steps) ****
    Final optimized geometry and variables:
    Molecular point group: c1

    Geometry (in Angstrom), charge = 0, multiplicity = 1:

    O            0.124628359295     1.648669943152    -0.179376524866
    C            0.239370366864     0.467277810907    -0.226198239788
    C           -0.975386775263    -0.438792641006    -0.263419172974
    C            1.604945706458    -0.182826215251    -0.255577263980
    C           -1.023613377775    -1.458934721874     0.876160144939
    H           -1.848041829244     0.198217383372    -0.238975692317
    H           -0.971227659775    -0.961522271981    -1.216125949807
    H           -0.997185418263    -0.966536775490     1.841452450022
    H           -1.940350752963    -2.032035265819     0.822378651014
    H           -0.197154483712    -2.157249265602     0.831108174144
    H            1.645766446955    -0.977334384293    -0.991475861835
    H            2.353407248042     0.563604127289    -0.472713357868
    H            1.818640783651    -0.623733775715     0.711803813297

  Mulliken Charges: (a.u.)
   Center  Symbol    Alpha    Beta     Spin     Total
       1     O     4.17121  4.17121  0.00000 -0.34243
       2     C     2.85483  2.85483  0.00000  0.29034
       3     C     3.09773  3.09773  0.00000 -0.19545
       4     C     3.16114  3.16114  0.00000 -0.32227
       5     C     3.15646  3.15646  0.00000 -0.31292
       6     H     0.43742  0.43742  0.00000  0.12516
       7     H     0.44955  0.44955  0.00000  0.10090
       8     H     0.44688  0.44688  0.00000  0.10624
       9     H     0.44222  0.44222  0.00000  0.11556
      10     H     0.45270  0.45270  0.00000  0.09461
      11     H     0.44961  0.44961  0.00000  0.10078
      12     H     0.43267  0.43267  0.00000  0.13465
      13     H     0.44758  0.44758  0.00000  0.10484

   Total alpha = 20.00000, Total beta = 20.00000, Total charge = -0.00000
