  ==> Input File <==

--------------------------------------------------------------------------
set {
	reference rhf
	basis 6-31G*
}

set_num_threads( 4 )
memory 2 gb

molecule MOL {
0 1

O	 0.653587	 -0.125839	 0.500792
C	 1.705091	 0.115954	 0.001797
C	 2.070425	 1.402617	 -0.697415
O	 2.721346	 -0.737485	 -0.000216
C	 0.935964	 2.422437	 -0.722127
H	 2.949701	 1.803705	 -0.200710
H	 2.390958	 1.145746	 -1.703395
C	 1.333540	 3.715720	 -1.435159
H	 0.629851	 2.641505	 0.295955
H	 0.070935	 1.983377	 -1.209221
C	 0.207425	 4.750425	 -1.468454
H	 2.203632	 4.149217	 -0.944225
H	 1.641728	 3.489096	 -2.454739
C	 0.604867	 6.041945	 -2.182084
H	 -0.099845	 4.979819	 -0.450562
H	 -0.662161	 4.319172	 -1.959349
H	 1.451467	 6.515796	 -1.693262
H	 -0.213810	 6.754802	 -2.189362
H	 0.885144	 5.849801	 -3.213994
C	 4.024888	 -0.184556	 -0.001949
H	 4.179030	 0.422472	 -0.882452
H	 4.701782	 -1.024608	 -0.003642
H	 4.181981	 0.421185	 0.878906

	symmetry c1
}
set optking {
	frozen_dihedral = ("
		1 2 4 20
	")
}

ee = optimize('scf')
oeprop('DIPOLE', 'QUADRUPOLE', 'MULLIKEN_CHARGES')
f=open( 'psi4out.xyz', 'w' )
f.write( "23  " )
f.write( str(ee) + "\n" )
f.write( MOL.save_string_xyz() )
f.close()
--------------------------------------------------------------------------

    Molecular point group: c1
  Charge       = 0
  Multiplicity = 1
  Basis Set: 6-31G*
  Basis Set:
  @DF-RHF Final Energy:  -422.95045945406304
    Total Energy =                       -422.9504594540642302
    Molecular point group: c1
  Basis Set: 6-31G*
  Basis Set:
  Basis Set: 6-31G*
  Basis Set:
  @DF-RHF Final Energy:  -422.95012560530733
    Total Energy =                       -422.9501256053074485
  Basis Set: 6-31G*
  Basis Set:
  Basis Set: 6-31G*
  Basis Set:
  @DF-RHF Final Energy:  -422.95772367320734
    Total Energy =                       -422.9577236732071697
  Basis Set: 6-31G*
  Basis Set:
  Basis Set: 6-31G*
  Basis Set:
  @DF-RHF Final Energy:  -422.95902918660045
    Total Energy =                       -422.9590291866004463
  Basis Set: 6-31G*
  Basis Set:
  @DF-RHF Final Energy:  -422.95817520092220
    Total Energy =                       -422.9581752009225966
  Basis Set: 6-31G*
  Basis Set:
  @DF-RHF Final Energy:  -422.95944284017520
    Total Energy =                       -422.9594428401761661
  Basis Set: 6-31G*
  Basis Set:
  Basis Set: 6-31G*
  Basis Set:
  @DF-RHF Final Energy:  -422.95951096291179
    Total Energy =                       -422.9595109629117360
  Basis Set: 6-31G*
  Basis Set:
  Basis Set: 6-31G*
  Basis Set:
  @DF-RHF Final Energy:  -422.95951307590735
    Total Energy =                       -422.9595130759074664
  Basis Set: 6-31G*
  Basis Set:
  Charge       = 0
  Multiplicity = 1
  Basis Set: 6-31G*
  Basis Set:

    Orbital Energies (a.u.)
    -----------------------

    Doubly Occupied:

       1A    -20.598111     2A    -20.543505     3A    -11.373950
       4A    -11.295981     5A    -11.244826     6A    -11.223533
       7A    -11.221789     8A    -11.219252     9A    -11.212122
      10A     -1.461652    11A     -1.365920    12A     -1.096336
      13A     -1.041748    14A     -0.985424    15A     -0.951936
      16A     -0.854085    17A     -0.799189    18A     -0.766339
      19A     -0.699507    20A     -0.687057    21A     -0.672879
      22A     -0.654927    23A     -0.614661    24A     -0.604396
      25A     -0.580099    26A     -0.568643    27A     -0.560089
      28A     -0.539063    29A     -0.514669    30A     -0.508837
      31A     -0.489624    32A     -0.473046    33A     -0.469320
      34A     -0.466079    35A     -0.447887    36A     -0.430267

  @DF-RHF Final Energy:  -422.95951311087458

   => Energetics <=

    Nuclear Repulsion Energy =            454.5449103560939648
    One-Electron Energy =               -1476.5353524073802873
    Two-Electron Energy =                 599.0309289404117408
    DFT Exchange-Correlation Energy =       0.0000000000000000
    Empirical Dispersion Energy =           0.0000000000000000
    PCM Polarization Energy =               0.0000000000000000
    EFP Energy =                            0.0000000000000000
    Total Energy =                       -422.9595131108745818
    Molecular point group: c1
  Basis Set: 6-31G*
  Basis Set:

  -Total Gradient:
     Atom            X                  Y                   Z
    ------   -----------------  -----------------  -----------------
       1        0.001152229500     0.001093910001     0.002757648096
       2       -0.001648671155    -0.001565830245    -0.002419164338
       3        0.000000895736    -0.000005913164    -0.000005089987
       4        0.000476129734     0.000521977469    -0.003075980931
       5       -0.000007316138    -0.000008594161    -0.000016891203
       6       -0.000000780687    -0.000005723665     0.000004458027
       7       -0.000005070220     0.000004217842     0.000003501538
       8        0.000003404626     0.000003614945     0.000006368079
       9       -0.000000701039     0.000001621599    -0.000000300702
      10        0.000000663020    -0.000002708725    -0.000001324885
      11       -0.000000070326     0.000002177812     0.000005343715
      12        0.000002459528    -0.000000044601    -0.000001839387
      13       -0.000003391823    -0.000002820275     0.000000784292
      14        0.000001226636    -0.000000878282     0.000000379015
      15       -0.000001196941     0.000000898864     0.000000882213
      16        0.000001070339    -0.000000377754     0.000000206862
      17       -0.000000501241     0.000000314825     0.000000127388
      18       -0.000000264512    -0.000001058240    -0.000000235537
      19        0.000000605127    -0.000000034624    -0.000000197183
      20        0.000013908041    -0.000038987138     0.002738296905
      21        0.000004616787    -0.000002277543     0.000005750830
      22        0.000008932714     0.000002797633    -0.000002249316
      23        0.000001822294     0.000003717433    -0.000000473495

  **** Optimization is complete! (in 9 steps) ****
    Final optimized geometry and variables:
    Molecular point group: c1

    Geometry (in Angstrom), charge = 0, multiplicity = 1:

    O           -0.875141130187    -1.933647860684     1.206080715533
    C            0.166538941056    -1.725900429654     0.685026387657
    C            0.511445368131    -0.422007916352    -0.007160034176
    O            1.096846533355    -2.689748418987     0.668275245015
    C           -0.670222720450     0.542123751725    -0.078079834984
    H            1.342579947628     0.043180049250     0.517312624720
    H            0.878563682018    -0.655434823775    -1.003554030715
    C           -0.307609839751     1.851767312371    -0.779689956705
    H           -1.024092200734     0.744794876757     0.926984701325
    H           -1.492594765897     0.059739227474    -0.596235064362
    C           -1.480938712706     2.829977502859    -0.859858160588
    H            0.520194361160     2.328758533963    -0.256564048536
    H            0.050533498254     1.639815191920    -1.786144143845
    C           -1.119109973614     4.139108519479    -1.560169738304
    H           -1.839080801251     3.044113993510     0.144509457764
    H           -2.307957084121     2.356299526333    -1.383798932449
    H           -0.316901656426     4.654329812739    -1.039259144173
    H           -1.970826781953     4.810735683212    -1.601425794658
    H           -0.789212766561     3.960713107014    -2.579798562060
    C            2.473645275514    -2.393178711099     0.661185932809
    H            2.782036868894    -1.916654709141    -0.261006329827
    H            2.980035509238    -3.341232913384     0.753481241917
    H            2.743402067257    -1.765921992302     1.502418134598

  Mulliken Charges: (a.u.)
   Center  Symbol    Alpha    Beta     Spin     Total
       1     O     4.26271  4.26271  0.00000 -0.52542
       2     C     2.60070  2.60070  0.00000  0.79860
       3     C     3.23192  3.23192  0.00000 -0.46385
       4     O     4.30554  4.30554  0.00000 -0.61108
       5     C     3.14933  3.14933  0.00000 -0.29866
       6     H     0.40510  0.40510  0.00000  0.18980
       7     H     0.40274  0.40274  0.00000  0.19453
       8     C     3.15377  3.15377  0.00000 -0.30755
       9     H     0.40840  0.40840  0.00000  0.18319
      10     H     0.40980  0.40980  0.00000  0.18040
      11     C     3.15189  3.15189  0.00000 -0.30378
      12     H     0.42506  0.42506  0.00000  0.14988
      13     H     0.42441  0.42441  0.00000  0.15118
      14     C     3.23970  3.23970  0.00000 -0.47940
      15     H     0.42059  0.42059  0.00000  0.15881
      16     H     0.42047  0.42047  0.00000  0.15905
      17     H     0.42199  0.42199  0.00000  0.15601
      18     H     0.41776  0.41776  0.00000  0.16447
      19     H     0.42182  0.42182  0.00000  0.15636
      20     C     3.09420  3.09420  0.00000 -0.18839
      21     H     0.41771  0.41771  0.00000  0.16457
      22     H     0.39858  0.39858  0.00000  0.20285
      23     H     0.41579  0.41579  0.00000  0.16843

   Total alpha = 36.00000, Total beta = 36.00000, Total charge = -0.00000
