  ==> Input File <==

--------------------------------------------------------------------------
set {
	reference rhf
	basis 6-31G*
}

set_num_threads( 1 )
memory 2 gb

molecule MOL {
0 1

O	 -2.821601	 1.309235	 -0.001213
C	 -2.668563	 0.129746	 -0.000350
C	 -3.801572	 -0.864014	 -0.000442
O	 -1.481751	 -0.454642	 0.000584
H	 -4.417280	 -0.689587	 -0.874708
H	 -3.443784	 -1.883046	 -0.000565
H	 -4.417179	 -0.689832	 0.873954
C	 -0.334255	 0.388708	 0.000906
C	 0.891947	 -0.504646	 0.000751
H	 -0.365390	 1.025305	 -0.873475
H	 -0.365484	 1.024911	 0.875569
C	 2.191998	 0.301789	 0.000897
H	 0.855148	 -1.151283	 -0.871571
H	 0.855132	 -1.151660	 0.872805
C	 2.253543	 1.333276	 -1.127186
H	 2.304711	 0.810056	 0.956955
H	 3.040023	 -0.375171	 -0.086638
C	 3.551482	 2.139637	 -1.126182
H	 1.407013	 2.010798	 -1.041016
H	 2.143383	 0.826814	 -2.083445
H	 3.673717	 2.685033	 -0.194722
H	 3.565350	 2.861867	 -1.936384
H	 4.415577	 1.492214	 -1.245323

	symmetry c1
}
set optking {
	frozen_dihedral = ("
		13 9 8 10,
		2 4 8 10,
		19 15 12 16,
		1 2 4 8
	")
}

ee = energy('scf')
oeprop('DIPOLE', 'QUADRUPOLE', 'MULLIKEN_CHARGES')
f=open( 'psi4out.xyz', 'w' )
f.write( "23  " )
f.write( str(ee) + "\n" )
f.write( MOL.save_string_xyz() )
f.close()
--------------------------------------------------------------------------

    Molecular point group: c1

    Geometry (in Angstrom), charge = 0, multiplicity = 1:

       Center              X                  Y                   Z               Mass
    ------------   -----------------  -----------------  -----------------  -----------------
           O         -2.556469359696     0.881771814553     0.250148233032    15.994914619560
           C         -2.403431359696    -0.297717185447     0.251011233032    12.000000000000
           C         -3.536440359696    -1.291477185447     0.250919233032    12.000000000000
           O         -1.216619359696    -0.882105185447     0.251945233032    15.994914619560
           H         -4.152148359696    -1.117050185447    -0.623346766968     1.007825032070
           H         -3.178652359696    -2.310509185447     0.250796233032     1.007825032070
           H         -4.152047359696    -1.117295185447     1.125315233032     1.007825032070
           C         -0.069123359696    -0.038755185447     0.252267233032    12.000000000000
           C          1.157078640304    -0.932109185447     0.252112233032    12.000000000000
           H         -0.100258359696     0.597841814553    -0.622113766968     1.007825032070
           H         -0.100352359696     0.597447814553     1.126930233032     1.007825032070
           C          2.457129640304    -0.125674185447     0.252258233032    12.000000000000
           H          1.120279640304    -1.578746185447    -0.620209766968     1.007825032070
           H          1.120263640304    -1.579123185447     1.124166233032     1.007825032070
           C          2.518674640304     0.905812814553    -0.875824766968    12.000000000000
           H          2.569842640304     0.382592814553     1.208316233032     1.007825032070
           H          3.305154640304    -0.802634185447     0.164723233032     1.007825032070
           C          3.816613640304     1.712173814553    -0.874820766968    12.000000000000
           H          1.672144640304     1.583334814553    -0.789654766968     1.007825032070
           H          2.408514640304     0.399350814553    -1.832083766968     1.007825032070
           H          3.938848640304     2.257569814553     0.056639233032     1.007825032070
           H          3.830481640304     2.434403814553    -1.685022766968     1.007825032070
           H          4.680708640304     1.064750814553    -0.993961766968     1.007825032070

  Charge       = 0
  Multiplicity = 1
  Basis Set: 6-31G*
  Basis Set:

    Orbital Energies (a.u.)
    -----------------------

    Doubly Occupied:

       1A    -20.602666     2A    -20.540441     3A    -11.373987
       4A    -11.280437     5A    -11.232313     6A    -11.224162
       7A    -11.223488     8A    -11.221183     9A    -11.212740
      10A     -1.467718    11A     -1.360580    12A     -1.097016
      13A     -1.039251    14A     -1.002284    15A     -0.931016
      16A     -0.851895    17A     -0.790566    18A     -0.779967
      19A     -0.688786    20A     -0.684730    21A     -0.671233
      22A     -0.637065    23A     -0.612773    24A     -0.587870
      25A     -0.577961    26A     -0.572731    27A     -0.563937
      28A     -0.527798    29A     -0.526712    30A     -0.514008
      31A     -0.494725    32A     -0.476034    33A     -0.467846
      34A     -0.461017    35A     -0.448139    36A     -0.435871

  @DF-RHF Final Energy:  -422.97584813062139

   => Energetics <=

    Nuclear Repulsion Energy =            458.7858336977736258
    One-Electron Energy =               -1485.1615648039221469
    Two-Electron Energy =                 603.3998829755232691
    DFT Exchange-Correlation Energy =       0.0000000000000000
    Empirical Dispersion Energy =           0.0000000000000000
    PCM Polarization Energy =               0.0000000000000000
    EFP Energy =                            0.0000000000000000
    Total Energy =                       -422.9758481306253088

  Mulliken Charges: (a.u.)
   Center  Symbol    Alpha    Beta     Spin     Total
       1     O     4.28418  4.28418  0.00000 -0.56837
       2     C     2.61536  2.61536  0.00000  0.76927
       3     C     3.28780  3.28780  0.00000 -0.57561
       4     O     4.31366  4.31366  0.00000 -0.62732
       5     H     0.39755  0.39755  0.00000  0.20489
       6     H     0.39982  0.39982  0.00000  0.20035
       7     H     0.39753  0.39753  0.00000  0.20494
       8     C     2.99872  2.99872  0.00000  0.00257
       9     C     3.16488  3.16488  0.00000 -0.32976
      10     H     0.40767  0.40767  0.00000  0.18467
      11     H     0.41113  0.41113  0.00000  0.17773
      12     C     3.15968  3.15968  0.00000 -0.31936
      13     H     0.41451  0.41451  0.00000  0.17099
      14     H     0.41216  0.41216  0.00000  0.17568
      15     C     3.16037  3.16037  0.00000 -0.32073
      16     H     0.42077  0.42077  0.00000  0.15847
      17     H     0.41694  0.41694  0.00000  0.16612
      18     C     3.23851  3.23851  0.00000 -0.47701
      19     H     0.41823  0.41823  0.00000  0.16353
      20     H     0.42106  0.42106  0.00000  0.15788
      21     H     0.42061  0.42061  0.00000  0.15878
      22     H     0.41754  0.41754  0.00000  0.16492
      23     H     0.42132  0.42132  0.00000  0.15737

   Total alpha = 36.00000, Total beta = 36.00000, Total charge =  0.00000
