                              Psi4 1.0.54 Driver

  ==> Input File <==

--------------------------------------------------------------------------
set {
	reference rhf
	basis cc-pvtz
}

set_num_threads( 4 )
memory 2 gb

molecule MOL {
0 1

H	 2.614283	 2.028610	 0.296620
O	 3.358864	 1.662087	 -0.142800
C	 3.565468	 0.338079	 0.273842
C	 2.533667	 -0.637565	 -0.272227
H	 4.548038	 0.064914	 -0.086598
H	 3.593945	 0.282242	 1.360360
C	 1.580927	 -0.032388	 -1.300768
H	 3.055653	 -1.483092	 -0.710144
H	 1.959558	 -1.021461	 0.567667
C	 0.539226	 -1.031867	 -1.801503
H	 2.153435	 0.344584	 -2.141678
H	 1.071509	 0.823032	 -0.860272
C	 -0.488293	 -0.459073	 -2.779444
H	 1.046773	 -1.873530	 -2.266503
H	 0.008590	 -1.435925	 -0.943813
C	 0.074648	 -0.037980	 -4.135734
H	 -1.258076	 -1.208291	 -2.942645
H	 -0.987734	 0.389992	 -2.318139
C	 -1.002623	 0.432996	 -5.109428
H	 0.612439	 -0.875159	 -4.575483
H	 0.802451	 0.757556	 -4.007564
C	 -0.443597	 0.857721	 -6.463307
H	 -1.728521	 -0.362552	 -5.253489
H	 -1.546438	 1.263960	 -4.668037
H	 0.079104	 0.038209	 -6.945408
H	 -1.233744	 1.183274	 -7.130233
H	 0.258234	 1.678433	 -6.357395

	symmetry c1
}
set optking {
	frozen_dihedral = ("
		8 4 3 2
	")
}

ee,wfn = optimize('scf', return_wfn=True)
oeprop( wfn, 'DIPOLE', 'QUADRUPOLE', 'MULLIKEN_CHARGES')
f=open( 'psi4out.xyz', 'w' )
f.write( "27  " )
f.write( str(ee) + "\n" )
f.write( MOL.save_string_xyz() )
f.close()
--------------------------------------------------------------------------

    Molecular point group: c1
  Charge       = 0
  Multiplicity = 1
  Basis Set: CC-PVTZ
  Basis Set:
  @DF-RHF Final Energy:  -388.41876380830132
    Total Energy =                       -388.4187638083016054
    Molecular point group: c1
  Basis Set: CC-PVTZ
  Basis Set:
  Basis Set: CC-PVTZ
  Basis Set:
  @DF-RHF Final Energy:  -388.41945560982941
    Total Energy =                       -388.4194556098292423
  Basis Set: CC-PVTZ
  Basis Set:
  Basis Set: CC-PVTZ
  Basis Set:
  @DF-RHF Final Energy:  -388.42010126248323
    Total Energy =                       -388.4201012624837404
  Basis Set: CC-PVTZ
  Basis Set:
  Basis Set: CC-PVTZ
  Basis Set:
  @DF-RHF Final Energy:  -388.42012537548925
    Total Energy =                       -388.4201253754893060
  Basis Set: CC-PVTZ
  Basis Set:
  Basis Set: CC-PVTZ
  Basis Set:
  @DF-RHF Final Energy:  -388.42013279395837
    Total Energy =                       -388.4201327939588282
  Basis Set: CC-PVTZ
  Basis Set:
  Basis Set: CC-PVTZ
  Basis Set:
  @DF-RHF Final Energy:  -388.42013452816474
    Total Energy =                       -388.4201345281649083
  Basis Set: CC-PVTZ
  Basis Set:
  Charge       = 0
  Multiplicity = 1
  Basis Set: CC-PVTZ
  Basis Set:

    Orbital Energies (a.u.)
    -----------------------

    Doubly Occupied:

       1A    -20.546258     2A    -11.265848     3A    -11.213543
       4A    -11.210871     5A    -11.210741     6A    -11.210217
       7A    -11.209680     8A    -11.207824     9A    -11.204334
      10A     -1.363599    11A     -1.091895    12A     -1.057629
      13A     -1.007735    14A     -0.946111    15A     -0.886902
      16A     -0.818956    17A     -0.798818    18A     -0.774000
      19A     -0.691027    20A     -0.645751    21A     -0.639879
      22A     -0.615085    23A     -0.602890    24A     -0.585876
      25A     -0.571872    26A     -0.557355    27A     -0.541089
      28A     -0.523396    29A     -0.499867    30A     -0.496592
      31A     -0.478108    32A     -0.469063    33A     -0.462855
      34A     -0.457151    35A     -0.448875    36A     -0.441166
      37A     -0.424125

  @DF-RHF Final Energy:  -388.42013457591020

   => Energetics <=

    Nuclear Repulsion Energy =            461.1996443979103333
    One-Electron Energy =               -1440.8855956232398512
    Two-Electron Energy =                 591.2658166494195484
    DFT Exchange-Correlation Energy =       0.0000000000000000
    Empirical Dispersion Energy =           0.0000000000000000
    PCM Polarization Energy =               0.0000000000000000
    EFP Energy =                            0.0000000000000000
    Total Energy =                       -388.4201345759099695
    Molecular point group: c1
  Basis Set: CC-PVTZ
  Basis Set:

  -Total Gradient:
     Atom            X                  Y                   Z
    ------   -----------------  -----------------  -----------------
       1       -0.000030511892     0.000099644848    -0.000020566389
       2        0.001458721432    -0.000383239475    -0.002189304029
       3       -0.002069013196     0.001021378789     0.002277001541
       4        0.000506946150    -0.002086845149     0.002858599901
       5        0.000020507222    -0.000125360181     0.000023248390
       6       -0.000016196443    -0.000090945667     0.000024279721
       7       -0.000000882232     0.000026399916    -0.000054552738
       8        0.000128210136     0.001550140743    -0.002968441849
       9       -0.000007038723    -0.000028793676     0.000043967035
      10       -0.000023172054     0.000009678295     0.000036641342
      11       -0.000002412172     0.000029107734    -0.000065265976
      12       -0.000005337024    -0.000021468113    -0.000002790574
      13        0.000004858961    -0.000010455893     0.000002410676
      14       -0.000003937350     0.000000074218     0.000006287603
      15        0.000004194695     0.000002574266     0.000017349297
      16       -0.000000742361    -0.000017166337     0.000002322578
      17        0.000020353770    -0.000008501637     0.000006252884
      18       -0.000013721138    -0.000008226305    -0.000004662240
      19        0.000012145541     0.000017190813    -0.000002137678
      20       -0.000010648197    -0.000000442970     0.000000969085
      21        0.000028375510     0.000009642020     0.000011001429
      22       -0.000006032615     0.000013522078    -0.000000972138
      23        0.000008866721    -0.000002623751     0.000006725138
      24       -0.000004435275     0.000002166250    -0.000003727518
      25       -0.000002328093    -0.000000589308     0.000004571458
      26        0.000002371264     0.000001544011    -0.000004927069
      27        0.000000857364     0.000001594483    -0.000004279885

  **** Optimization is complete! (in 7 steps) ****
    Final optimized geometry and variables:
    Molecular point group: c1

    Geometry (in Angstrom), charge = 0, multiplicity = 1:

    H            1.513532648423     1.951773911953     2.735396166462
    O            2.249288775339     1.547575805990     2.313867360201
    C            2.379567219967     0.212868718090     2.727352713360
    C            1.298360745728    -0.752122189998     2.189997189799
    H            3.349318044851    -0.095279508283     2.362587868629
    H            2.419458540340     0.157728125399     3.810971385806
    C            0.389578057950    -0.170328182617     1.106240221445
    H            1.798400615121    -1.616654235170     1.765500252519
    H            0.685225250813    -1.115470408151     3.008768237650
    C           -0.590863145380    -1.208987080653     0.563519109437
    H            0.999650489649     0.228407264054     0.305806998825
    H           -0.173860687976     0.669421367215     1.503301337217
    C           -1.596581114889    -0.671027819903    -0.456093621320
    H           -0.034536931161    -2.030212800055     0.117436099299
    H           -1.142792418244    -1.637101322538     1.396238779989
    C           -0.989266597679    -0.210814151552    -1.780029428962
    H           -2.325390588644    -1.450297119862    -0.661942303145
    H           -2.152572738184     0.151216027516    -0.011188005054
    C           -2.038077609212     0.233781935750    -2.796141109101
    H           -0.402002661381    -1.022128760307    -2.204933040767
    H           -0.297756425809     0.608049536493    -1.608301157892
    C           -1.434544113090     0.697009954673    -4.117889376921
    H           -2.727408643550    -0.585224654944    -2.982785774606
    H           -2.631106932078     1.038713148006    -2.370202160953
    H           -0.861951972285    -0.096880432304    -4.586033294567
    H           -2.205004674047     1.004136574540    -4.815937437659
    H           -0.767679548605     1.539883145711    -3.969708674562

  Mulliken Charges: (a.u.)
   Center  Symbol    Alpha    Beta     Spin     Total
       1     H     0.39506  0.39506  0.00000  0.20988
       2     O     4.20042  4.20042  0.00000 -0.40084
       3     C     2.97395  2.97395  0.00000  0.05211
       4     C     3.12151  3.12151  0.00000 -0.24302
       5     H     0.45467  0.45467  0.00000  0.09067
       6     H     0.46208  0.46208  0.00000  0.07583
       7     C     3.08341  3.08341  0.00000 -0.16682
       8     H     0.45253  0.45253  0.00000  0.09494
       9     H     0.45058  0.45058  0.00000  0.09883
      10     C     3.09942  3.09942  0.00000 -0.19883
      11     H     0.44237  0.44237  0.00000  0.11526
      12     H     0.46175  0.46175  0.00000  0.07651
      13     C     3.09754  3.09754  0.00000 -0.19507
      14     H     0.45358  0.45358  0.00000  0.09284
      15     H     0.44961  0.44961  0.00000  0.10078
      16     C     3.08845  3.08845  0.00000 -0.17689
      17     H     0.44891  0.44891  0.00000  0.10217
      18     H     0.45468  0.45468  0.00000  0.09063
      19     C     3.08400  3.08400  0.00000 -0.16800
      20     H     0.45553  0.45553  0.00000  0.08893
      21     H     0.45148  0.45148  0.00000  0.09704
      22     C     3.14972  3.14972  0.00000 -0.29944
      23     H     0.45453  0.45453  0.00000  0.09094
      24     H     0.45504  0.45504  0.00000  0.08992
      25     H     0.45541  0.45541  0.00000  0.08918
      26     H     0.44889  0.44889  0.00000  0.10222
      27     H     0.45488  0.45488  0.00000  0.09023

   Total alpha = 37.00000, Total beta = 37.00000, Total charge =  0.00000

*** Psi4 exiting successfully. Buy a developer a beer!
