  ==> Input File <==

--------------------------------------------------------------------------
set {
	reference rhf
	basis 6-31G*
}

set_num_threads( 4 )
memory 2 gb

molecule MOL {
0 1

O	 3.226247	 0.970860	 -0.598556
C	 2.701189	 0.057885	 -0.047330
C	 1.244996	 -0.014558	 0.343877
O	 3.347903	 -1.046386	 0.304773
C	 0.454731	 1.230665	 -0.052378
H	 0.838920	 -0.914402	 -0.106206
H	 1.206776	 -0.176708	 1.418094
C	 -0.999768	 1.217981	 0.430082
H	 0.483224	 1.345046	 -1.131834
H	 0.956204	 2.102254	 0.354165
C	 -1.883300	 0.144476	 -0.211844
H	 -1.432188	 2.193881	 0.221864
H	 -1.021599	 1.103552	 1.512874
C	 -3.347986	 0.243434	 0.219318
H	 -1.820957	 0.230964	 -1.295565
H	 -1.510135	 -0.846250	 0.037519
C	 -4.239331	 -0.827632	 -0.411915
H	 -3.733285	 1.228346	 -0.038999
H	 -3.410017	 0.167778	 1.303812
C	 -5.701096	 -0.719461	 0.020800
H	 -4.177743	 -0.754102	 -1.495632
H	 -3.858325	 -1.812853	 -0.151235
H	 -6.307192	 -1.491631	 -0.442889
H	 -6.122025	 0.242704	 -0.257141
H	 -5.799967	 -0.823599	 1.097672
C	 4.728119	 -1.109107	 -0.004993
H	 4.882018	 -1.033965	 -1.071845
H	 5.068212	 -2.067527	 0.355250
H	 5.265056	 -0.311663	 0.488280

	symmetry c1
}
set optking {
	frozen_dihedral = ("
		1 2 4 26
	")
}

ee = optimize('scf')
oeprop('DIPOLE', 'QUADRUPOLE', 'MULLIKEN_CHARGES')
f=open( 'psi4out.xyz', 'w' )
f.write( "29  " )
f.write( str(ee) + "\n" )
f.write( MOL.save_string_xyz() )
f.close()
--------------------------------------------------------------------------

    Molecular point group: c1
  Charge       = 0
  Multiplicity = 1
  Basis Set: 6-31G*
  Basis Set:
  @DF-RHF Final Energy:  -501.04411289436416
    Total Energy =                       -501.0441128943641615
    Molecular point group: c1
  Basis Set: 6-31G*
  Basis Set:
  Charge       = 0
  Multiplicity = 1
  Basis Set: 6-31G*
  Basis Set:

    Orbital Energies (a.u.)
    -----------------------

    Doubly Occupied:

       1A    -20.603370     2A    -20.545192     3A    -11.372005
       4A    -11.280661     5A    -11.234742     6A    -11.219092
       7A    -11.217637     8A    -11.215998     9A    -11.215854
      10A    -11.214457    11A    -11.209068    12A     -1.469065
      13A     -1.362509    14A     -1.098075    15A     -1.066813
      16A     -1.019503    17A     -0.977229    18A     -0.928566
      19A     -0.861595    20A     -0.799270    21A     -0.790499
      22A     -0.763797    23A     -0.700741    24A     -0.682310
      25A     -0.672171    26A     -0.650896    27A     -0.628791
      28A     -0.604692    29A     -0.594939    30A     -0.580918
      31A     -0.567040    32A     -0.549193    33A     -0.531873
      34A     -0.530432    35A     -0.516037    36A     -0.511825
      37A     -0.496355    38A     -0.477817    39A     -0.470192
      40A     -0.462410    41A     -0.458833    42A     -0.455783
      43A     -0.441139    44A     -0.435396

  @DF-RHF Final Energy:  -501.04411277624251

   => Energetics <=

    Nuclear Repulsion Energy =            610.1917787238918436
    One-Electron Energy =               -1891.5022261359376898
    Two-Electron Energy =                 780.2663346358026502
    DFT Exchange-Correlation Energy =       0.0000000000000000
    Empirical Dispersion Energy =           0.0000000000000000
    PCM Polarization Energy =               0.0000000000000000
    EFP Energy =                            0.0000000000000000
    Total Energy =                       -501.0441127762433098
    Molecular point group: c1
  Basis Set: 6-31G*
  Basis Set:

  -Total Gradient:
     Atom            X                  Y                   Z
    ------   -----------------  -----------------  -----------------
       1        0.000018865968     0.000041600276     0.000086900690
       2       -0.000056462960    -0.000107521392    -0.000235208348
       3        0.000015798342     0.000029593488     0.000065256002
       4        0.000019156582     0.000031304712     0.000075318542
       5        0.000002428739     0.000001561140     0.000003018249
       6        0.000017266322     0.000003231808    -0.000003620175
       7       -0.000015388329    -0.000001621475     0.000006484752
       8        0.000000067668    -0.000002769729     0.000004237368
       9        0.000001057946    -0.000001022784     0.000000351410
      10       -0.000001076667     0.000001690550    -0.000000300539
      11        0.000000513329    -0.000000878528     0.000003205902
      12        0.000000332599    -0.000000998298    -0.000000792860
      13        0.000000719066     0.000000714878     0.000001022530
      14        0.000000255890     0.000002115310    -0.000002345078
      15       -0.000000545290     0.000001659724     0.000001205224
      16       -0.000000284801    -0.000001566957    -0.000001950007
      17       -0.000001346742     0.000001172262    -0.000002751763
      18        0.000000309854    -0.000000676607    -0.000003500195
      19       -0.000001550736     0.000003314446    -0.000000617825
      20        0.000001766998    -0.000003564375     0.000004918161
      21       -0.000001552058     0.000002473673     0.000000227484
      22        0.000001394266    -0.000000166727    -0.000002715473
      23        0.000000240451    -0.000001357303     0.000001506508
      24        0.000000960652    -0.000000940142    -0.000001423290
      25       -0.000001298355     0.000001452786     0.000000928395
      26        0.000000974162     0.000004899652     0.000008382128
      27       -0.000005481299     0.000000846502    -0.000003654286
      28       -0.000001506339    -0.000000422139    -0.000001073542
      29        0.000004384755    -0.000004124745    -0.000003009963

  **** Optimization is complete! (in 2 steps) ****
    Final optimized geometry and variables:
    Molecular point group: c1

    Geometry (in Angstrom), charge = 0, multiplicity = 1:

    O            3.226362142654     0.971706938312    -0.595594514721
    C            2.701095149690     0.058345392756    -0.045204566150
    C            1.244945814722    -0.013997726129     0.346151434062
    O            3.347883119556    -1.045746326493     0.307326044199
    C            0.454875435315     1.231554577499    -0.049462285466
    H            0.838668335284    -0.913570137631    -0.104281519146
    H            1.206821586216    -0.176606119952     1.420306065609
    C           -0.999573762793     1.218901448146     0.433118609591
    H            0.483308346402     1.346430564622    -1.128864837942
    H            0.956541361842     2.102861188759     0.357444018136
    C           -1.883355364759     0.145849755748    -0.209239617439
    H           -1.431835214662     2.194971047129     0.225364705390
    H           -1.021342862806     1.103986511199     1.515861566845
    C           -3.348049192947     0.245056573403     0.221851390729
    H           -1.820916265982     0.232692701898    -1.292923303308
    H           -1.510478756550    -0.845060694981     0.039807422477
    C           -4.239440685961    -0.826198017774    -0.408982700260
    H           -3.733289930742     1.229892435985    -0.036824773329
    H           -3.410087564146     0.169805357976     1.306368956112
    C           -5.700903517999    -0.718791028171     0.024952069326
    H           -4.178753432182    -0.752341670580    -1.492726534235
    H           -3.857801419349    -1.811326034683    -0.148881670008
    H           -6.306956222749    -1.491348714371    -0.438154594963
    H           -6.122592881779     0.243112982930    -0.252731602400
    H           -5.798817199537    -0.822871568817     1.101916960213
    C            4.728473209152    -1.107808309025    -0.000900844454
    H            4.883545710282    -1.031733839844    -1.067525781310
    H            5.068392321686    -2.066442769662     0.358916072517
    H            5.264639793149    -0.310643638210     0.493652652318

  Mulliken Charges: (a.u.)
   Center  Symbol    Alpha    Beta     Spin     Total
       1     O     4.28596  4.28596  0.00000 -0.57192
       2     C     2.60483  2.60483  0.00000  0.79033
       3     C     3.20973  3.20973  0.00000 -0.41947
       4     O     4.30746  4.30746  0.00000 -0.61493
       5     C     3.15378  3.15378  0.00000 -0.30756
       6     H     0.39880  0.39880  0.00000  0.20239
       7     H     0.40123  0.40123  0.00000  0.19754
       8     C     3.15663  3.15663  0.00000 -0.31326
       9     H     0.41309  0.41309  0.00000  0.17383
      10     H     0.40874  0.40874  0.00000  0.18253
      11     C     3.15507  3.15507  0.00000 -0.31014
      12     H     0.41823  0.41823  0.00000  0.16355
      13     H     0.42386  0.42386  0.00000  0.15228
      14     C     3.15029  3.15029  0.00000 -0.30059
      15     H     0.42261  0.42261  0.00000  0.15478
      16     H     0.42361  0.42361  0.00000  0.15278
      17     C     3.15146  3.15146  0.00000 -0.30291
      18     H     0.42331  0.42331  0.00000  0.15337
      19     H     0.42398  0.42398  0.00000  0.15205
      20     C     3.23935  3.23935  0.00000 -0.47870
      21     H     0.42280  0.42280  0.00000  0.15440
      22     H     0.42344  0.42344  0.00000  0.15313
      23     H     0.41923  0.41923  0.00000  0.16154
      24     H     0.42154  0.42154  0.00000  0.15691
      25     H     0.42183  0.42183  0.00000  0.15634
      26     C     3.09240  3.09240  0.00000 -0.18481
      27     H     0.40909  0.40909  0.00000  0.18182
      28     H     0.40852  0.40852  0.00000  0.18297
      29     H     0.40912  0.40912  0.00000  0.18176

   Total alpha = 44.00000, Total beta = 44.00000, Total charge =  0.00000
