  ==> Input File <==

--------------------------------------------------------------------------
set {
	reference rhf
	basis cc-pvtz
}

set_num_threads( 4 )
memory 2 gb

molecule MOL {
0 1

H	 -1.992310	 -0.488579	 -2.741165
N	 -1.057396	 -0.593980	 -2.409655
C	 -1.024093	 -1.365933	 -1.181192
H	 -0.689276	 0.319640	 -2.249089
C	 0.396025	 -1.509825	 -0.683992
H	 -1.625825	 -0.934834	 -0.382057
H	 -1.414341	 -2.357315	 -1.383475
O	 0.881195	 -0.248324	 -0.336237
H	 0.419500	 -2.171113	 0.181062
H	 1.013961	 -1.947616	 -1.464647
C	 2.208068	 -0.234417	 0.074171
H	 2.725499	 -1.027054	 -0.446768
H	 2.688377	 0.712084	 -0.164856
H	 2.295137	 -0.403407	 1.144883

	symmetry c1
}
set optking {
	frozen_dihedral = ("
		5 8 11 13
	")
}

ee = optimize('scf')
oeprop('DIPOLE', 'QUADRUPOLE', 'MULLIKEN_CHARGES')
f=open( 'psi4out.xyz', 'w' )
f.write( "14  " )
f.write( str(ee) + "\n" )
f.write( MOL.save_string_xyz() )
f.close()
--------------------------------------------------------------------------

    Molecular point group: c1
  Charge       = 0
  Multiplicity = 1
  Basis Set: CC-PVTZ
  Basis Set:
  @DF-RHF Final Energy:  -248.22348405246933
    Total Energy =                       -248.2234840524693027
    Molecular point group: c1
  Basis Set: CC-PVTZ
  Basis Set:
  Basis Set: CC-PVTZ
  Basis Set:
  @DF-RHF Final Energy:  -248.22423333918329
    Total Energy =                       -248.2242333391834563
  Basis Set: CC-PVTZ
  Basis Set:
  Basis Set: CC-PVTZ
  Basis Set:
  @DF-RHF Final Energy:  -248.22441742659535
    Total Energy =                       -248.2244174265951528
  Basis Set: CC-PVTZ
  Basis Set:
  Charge       = 0
  Multiplicity = 1
  Basis Set: CC-PVTZ
  Basis Set:

    Orbital Energies (a.u.)
    -----------------------

    Doubly Occupied:

       1A    -20.549138     2A    -15.523278     3A    -11.264232
       4A    -11.263387     5A    -11.239612     6A     -1.382384
       7A     -1.175743     8A     -1.000580     9A     -0.907793
      10A     -0.815637    11A     -0.684430    12A     -0.675224
      13A     -0.646174    14A     -0.612260    15A     -0.607650
      16A     -0.541242    17A     -0.533238    18A     -0.497056
      19A     -0.473714    20A     -0.418045    21A     -0.383663

  @DF-RHF Final Energy:  -248.22441838939727

   => Energetics <=

    Nuclear Repulsion Energy =            194.5814368401649972
    One-Electron Energy =                -723.2227524248175996
    Two-Electron Energy =                 280.4168971952552738
    DFT Exchange-Correlation Energy =       0.0000000000000000
    Empirical Dispersion Energy =           0.0000000000000000
    PCM Polarization Energy =               0.0000000000000000
    EFP Energy =                            0.0000000000000000
    Total Energy =                       -248.2244183893973286
    Molecular point group: c1
  Basis Set: CC-PVTZ
  Basis Set:

  -Total Gradient:
     Atom            X                  Y                   Z
    ------   -----------------  -----------------  -----------------
       1        0.000000580279    -0.000000780307     0.000000825567
       2       -0.000003390554     0.000007084249    -0.000009226313
       3        0.000020422236     0.000068495881     0.000018106847
       4        0.000001093778     0.000000058862    -0.000000860366
       5        0.000739739337     0.000250491417    -0.002096409796
       6       -0.000003356036     0.000001076930    -0.000000039921
       7        0.000026332665    -0.000003211674     0.000005891672
       8       -0.000752263245    -0.000634187990     0.002498047868
       9        0.000004204641     0.000017240783    -0.000003516712
      10        0.000022860712     0.000023494012    -0.000001618869
      11       -0.000727290840     0.001317655332     0.002095040011
      12        0.000005646731    -0.000022569373    -0.000014772374
      13        0.000719214925    -0.001033186859    -0.002484778980
      14       -0.000053794627     0.000008338737    -0.000006688632

  **** Optimization is complete! (in 4 steps) ****
    Final optimized geometry and variables:
    Molecular point group: c1

    Geometry (in Angstrom), charge = 0, multiplicity = 1:

    H           -2.280517390438     0.306195042085    -1.827052697064
    N           -1.346225572980     0.189678194759    -1.497573928500
    C           -1.318903301301    -0.587456953511    -0.272283124906
    H           -0.968397813942     1.098703573506    -1.333798858516
    C            0.100425059403    -0.746447175588     0.222742485135
    H           -1.916091606799    -0.154265413467     0.529088409615
    H           -1.717999858049    -1.574690521458    -0.477893033544
    O            0.597630976315     0.511909986314     0.566721829131
    H            0.115780921764    -1.410126589027     1.086330222640
    H            0.712702437909    -1.188473063430    -0.558982667563
    C            1.924830672697     0.536744286226     0.984389933661
    H            2.511592032808    -0.232156756746     0.489282606404
    H            2.348431594930     1.495258353876     0.717400541903
    H            2.004174664916     0.391362814289     2.058065115804

  Mulliken Charges: (a.u.)
   Center  Symbol    Alpha    Beta     Spin     Total
       1     H     0.43029  0.43029  0.00000  0.13941
       2     N     3.69424  3.69424  0.00000 -0.38847
       3     C     3.02296  3.02296  0.00000 -0.04591
       4     H     0.42232  0.42232  0.00000  0.15536
       5     C     2.96898  2.96898  0.00000  0.06203
       6     H     0.46460  0.46460  0.00000  0.07080
       7     H     0.45872  0.45872  0.00000  0.08256
       8     O     4.18238  4.18238  0.00000 -0.36476
       9     H     0.47090  0.47090  0.00000  0.05821
      10     H     0.46713  0.46713  0.00000  0.06574
      11     C     3.02930  3.02930  0.00000 -0.05860
      12     H     0.47313  0.47313  0.00000  0.05375
      13     H     0.45073  0.45073  0.00000  0.09854
      14     H     0.46433  0.46433  0.00000  0.07133

   Total alpha = 21.00000, Total beta = 21.00000, Total charge = -0.00000
