  ==> Input File <==

--------------------------------------------------------------------------
set {
	reference rhf
	basis 6-31G*
}

set_num_threads( 4 )
memory 2 gb

molecule MOL {
0 1

H	 -1.151365	 0.162443	 0.789018
N	 -0.712432	 0.000013	 -0.096310
C	 0.734192	 -0.000004	 0.040609
H	 -1.009759	 0.735589	 -0.707360
H	 1.139899	 -0.873598	 -0.456463
H	 1.139939	 0.873831	 -0.456100
H	 1.096456	 -0.000300	 1.069655

	symmetry c1
}
set optking {
	frozen_dihedral = ("
		1 2 3 7
	")
}

ee = optimize('scf')
oeprop('DIPOLE', 'QUADRUPOLE', 'MULLIKEN_CHARGES')
f=open( 'psi4out.xyz', 'w' )
f.write( "7  " )
f.write( str(ee) + "\n" )
f.write( MOL.save_string_xyz() )
f.close()
--------------------------------------------------------------------------

    Molecular point group: c1
  Charge       = 0
  Multiplicity = 1
  Basis Set: 6-31G*
  Basis Set:
  @DF-RHF Final Energy:   -95.20512259096064
    Total Energy =                        -95.2051225909605137
    Molecular point group: c1
  Basis Set: 6-31G*
  Basis Set:
  Basis Set: 6-31G*
  Basis Set:
  @DF-RHF Final Energy:   -95.20604938723461
    Total Energy =                        -95.2060493872346569
  Basis Set: 6-31G*
  Basis Set:
  Basis Set: 6-31G*
  Basis Set:
  @DF-RHF Final Energy:   -95.20624107286548
    Total Energy =                        -95.2062410728655379
  Basis Set: 6-31G*
  Basis Set:
  Basis Set: 6-31G*
  Basis Set:
  @DF-RHF Final Energy:   -95.20624750593753
    Total Energy =                        -95.2062475059375117
  Basis Set: 6-31G*
  Basis Set:
  Charge       = 0
  Multiplicity = 1
  Basis Set: 6-31G*
  Basis Set:

    Orbital Energies (a.u.)
    -----------------------

    Doubly Occupied:

       1A    -15.531315     2A    -11.237325     3A     -1.166593
       4A     -0.897256     5A     -0.664670     6A     -0.599222
       7A     -0.560085     8A     -0.518118     9A     -0.377991

  @DF-RHF Final Energy:   -95.20624825386992

   => Energetics <=

    Nuclear Repulsion Energy =             42.2561162042155729
    One-Electron Energy =                -211.8195780280467488
    Two-Electron Energy =                  74.3572135699612744
    DFT Exchange-Correlation Energy =       0.0000000000000000
    Empirical Dispersion Energy =           0.0000000000000000
    PCM Polarization Energy =               0.0000000000000000
    EFP Energy =                            0.0000000000000000
    Total Energy =                        -95.2062482538699015
    Molecular point group: c1
  Basis Set: 6-31G*
  Basis Set:

  -Total Gradient:
     Atom            X                  Y                   Z
    ------   -----------------  -----------------  -----------------
       1       -0.000049547289    -0.001628824180     0.000260795360
       2       -0.000061524844     0.002487897724    -0.000345325949
       3        0.000119364493    -0.002423857262     0.000071993990
       4       -0.000001780687    -0.000006898851     0.000011720417
       5        0.000004148898     0.000034562717    -0.000003877117
       6       -0.000022847291    -0.000000101044     0.000002281660
       7        0.000012186719     0.001537220895     0.000002411639

  **** Optimization is complete! (in 5 steps) ****
    Final optimized geometry and variables:
    Molecular point group: c1

    Geometry (in Angstrom), charge = 0, multiplicity = 1:

    H           -1.149818682108     0.134237829116     0.826666710072
    N           -0.717909244838    -0.023692255784    -0.059593136771
    C            0.737073983426    -0.031432869464     0.040048511556
    H           -1.046918446457     0.676683219378    -0.690874226932
    H            1.151212760388    -0.910939089454    -0.441417050743
    H            1.190822628687     0.842499016530    -0.420814467394
    H            1.053370600289    -0.039026683317     1.077596184752

  Mulliken Charges: (a.u.)
   Center  Symbol    Alpha    Beta     Spin     Total
       1     H     0.33071  0.33071  0.00000  0.33859
       2     N     3.92648  3.92648  0.00000 -0.85296
       3     C     3.14461  3.14461  0.00000 -0.28921
       4     H     0.33071  0.33071  0.00000  0.33859
       5     H     0.41675  0.41675  0.00000  0.16649
       6     H     0.42740  0.42740  0.00000  0.14520
       7     H     0.42334  0.42334  0.00000  0.15331

   Total alpha =  9.00000, Total beta =  9.00000, Total charge = -0.00000
