  ==> Input File <==

--------------------------------------------------------------------------
set {
	reference rhf
	basis 6-31G*
}

set_num_threads( 4 )
memory 2 gb

molecule MOL {
0 1

H	 3.274207	 0.145534	 0.104759
N	 2.434251	 -0.367735	 -0.081097
C	 1.267428	 0.496480	 0.024474
H	 2.388618	 -1.103807	 0.597894
C	 -0.016086	 -0.325158	 -0.029487
H	 1.288818	 1.183521	 -0.816092
H	 1.267576	 1.109062	 0.929528
C	 -1.282277	 0.529072	 0.046735
H	 -0.012495	 -0.908639	 -0.945788
H	 -0.015903	 -1.041248	 0.791956
C	 -2.563920	 -0.301775	 -0.006060
H	 -1.284084	 1.244622	 -0.773004
H	 -1.271387	 1.115393	 0.963286
H	 -2.621848	 -0.873522	 -0.927727
H	 -3.445135	 0.329952	 0.047812
H	 -2.609542	 -1.004582	 0.821105

	symmetry c1
}
set optking {
	frozen_dihedral = ("
		1 2 3 6
	")
}

ee = optimize('scf')
oeprop('DIPOLE', 'QUADRUPOLE', 'MULLIKEN_CHARGES')
f=open( 'psi4out.xyz', 'w' )
f.write( "16  " )
f.write( str(ee) + "\n" )
f.write( MOL.save_string_xyz() )
f.close()
--------------------------------------------------------------------------

    Molecular point group: c1
  Charge       = 0
  Multiplicity = 1
  Basis Set: 6-31G*
  Basis Set:
  @DF-RHF Final Energy:  -212.31654275523891
    Total Energy =                       -212.3165427552389133
    Molecular point group: c1
  Basis Set: 6-31G*
  Basis Set:
  Basis Set: 6-31G*
  Basis Set:
  @DF-RHF Final Energy:  -212.31658934164611
    Total Energy =                       -212.3165893416461358
  Basis Set: 6-31G*
  Basis Set:
  Basis Set: 6-31G*
  Basis Set:
  @DF-RHF Final Energy:  -212.31659727589462
    Total Energy =                       -212.3165972758944235
  Basis Set: 6-31G*
  Basis Set:
  Basis Set: 6-31G*
  Basis Set:
  @DF-RHF Final Energy:  -212.31660072495126
    Total Energy =                       -212.3166007249512859
  Basis Set: 6-31G*
  Basis Set:
  Charge       = 0
  Multiplicity = 1
  Basis Set: 6-31G*
  Basis Set:

    Orbital Energies (a.u.)
    -----------------------

    Doubly Occupied:

       1A    -15.532786     2A    -11.239793     3A    -11.216248
       4A    -11.211918     5A    -11.208812     6A     -1.177145
       7A     -1.060590     8A     -0.959330     9A     -0.844372
      10A     -0.793846    11A     -0.658779    12A     -0.642435
      13A     -0.604040    14A     -0.575014    15A     -0.568474
      16A     -0.523490    17A     -0.503771    18A     -0.470980
      19A     -0.466090    20A     -0.460613    21A     -0.382795

  @DF-RHF Final Energy:  -212.31660097786175

   => Energetics <=

    Nuclear Repulsion Energy =            186.3436214274599934
    One-Electron Energy =                -655.1178035405457649
    Two-Electron Energy =                 256.4575811352240748
    DFT Exchange-Correlation Energy =       0.0000000000000000
    Empirical Dispersion Energy =           0.0000000000000000
    PCM Polarization Energy =               0.0000000000000000
    EFP Energy =                            0.0000000000000000
    Total Energy =                       -212.3166009778616967
    Molecular point group: c1
  Basis Set: 6-31G*
  Basis Set:

  -Total Gradient:
     Atom            X                  Y                   Z
    ------   -----------------  -----------------  -----------------
       1       -0.000122908937    -0.000469958395     0.001977575207
       2       -0.000088515649     0.000308883184    -0.002667630241
       3        0.001216464782     0.001350834155     0.001676885271
       4        0.000010818319    -0.000005242164     0.000004079069
       5       -0.000004845467     0.000004442290     0.000001435473
       6       -0.001013021629    -0.001185732409    -0.000994727087
       7       -0.000003698133    -0.000005190850     0.000002036444
       8       -0.000000738455     0.000003878236    -0.000017110945
       9       -0.000003406546     0.000001586602    -0.000003452166
      10        0.000005772983     0.000002673149     0.000004624346
      11        0.000001375971    -0.000004058352     0.000017677539
      12        0.000014258908     0.000001887232     0.000000561171
      13       -0.000010132522    -0.000003296643     0.000000293566
      14        0.000001316873     0.000005674083    -0.000002430099
      15        0.000000832722     0.000000066533     0.000002283842
      16       -0.000003573223    -0.000006446650    -0.000002101391

  **** Optimization is complete! (in 5 steps) ****
    Final optimized geometry and variables:
    Molecular point group: c1

    Geometry (in Angstrom), charge = 0, multiplicity = 1:

    H            3.277007382540     0.147070639437     0.078132767821
    N            2.434569303499    -0.367009710331    -0.096553447604
    C            1.269635864177     0.498389164377     0.033984677525
    H            2.403305768480    -1.091086202319     0.596844610816
    C           -0.014482346267    -0.323290418845    -0.021368838368
    H            1.274840448852     1.191224705145    -0.802115337638
    H            1.277425340726     1.095830438843     0.948313520039
    C           -1.280374021682     0.532243320074     0.044184741360
    H           -0.008559775403    -0.910204493919    -0.935795690637
    H           -0.020123158794    -1.035414802502     0.803734684937
    C           -2.562224092629    -0.298154318150    -0.010762185268
    H           -1.277177337324     1.243430803373    -0.779013518395
    H           -1.273299369709     1.122755745035     0.958016747142
    H           -2.616331933366    -0.873917630526    -0.930179387604
    H           -3.443064216668     0.334650842938     0.036038104791
    H           -2.612522266795    -0.997106986722     0.819399634259

  Mulliken Charges: (a.u.)
   Center  Symbol    Alpha    Beta     Spin     Total
       1     H     0.33322  0.33322  0.00000  0.33357
       2     N     3.92111  3.92111  0.00000 -0.84223
       3     C     3.05756  3.05756  0.00000 -0.11511
       4     H     0.33613  0.33613  0.00000  0.32773
       5     C     3.15521  3.15521  0.00000 -0.31041
       6     H     0.42016  0.42016  0.00000  0.15967
       7     H     0.43468  0.43468  0.00000  0.13065
       8     C     3.15501  3.15501  0.00000 -0.31002
       9     H     0.41291  0.41291  0.00000  0.17418
      10     H     0.42820  0.42820  0.00000  0.14361
      11     C     3.23890  3.23890  0.00000 -0.47779
      12     H     0.42178  0.42178  0.00000  0.15643
      13     H     0.42346  0.42346  0.00000  0.15308
      14     H     0.42042  0.42042  0.00000  0.15916
      15     H     0.41931  0.41931  0.00000  0.16139
      16     H     0.42196  0.42196  0.00000  0.15609

   Total alpha = 21.00000, Total beta = 21.00000, Total charge = -0.00000
