  ==> Input File <==

--------------------------------------------------------------------------
set {
	reference rhf
	basis 6-31G*
}

set_num_threads( 4 )
memory 2 gb

molecule MOL {
0 1

H	 -4.031818	 -0.453427	 -0.000094
C	 -2.967712	 -0.297022	 -0.000064
C	 -2.458620	 0.992929	 0.000032
C	 -2.109895	 -1.385637	 -0.000122
H	 -3.124998	 1.836319	 0.000077
C	 -1.090278	 1.193236	 0.000070
H	 -2.506361	 -2.384847	 -0.000198
C	 -0.739812	 -1.187531	 -0.000085
H	 -0.678594	 2.184290	 0.000146
C	 -0.226438	 0.104061	 0.000012
H	 -0.072310	 -2.027032	 -0.000131
C	 1.239129	 0.373821	 0.000060
O	 1.788009	 0.259758	 -1.200075
O	 1.862614	 0.662940	 0.972961
C	 3.181061	 0.499820	 -1.291975
H	 3.412532	 1.508020	 -0.980931
H	 3.435283	 0.360031	 -2.331053
H	 3.726879	 -0.198427	 -0.674355

	symmetry c1
}
set optking {
	frozen_dihedral = ("
		13 12 10 6
	")
}

ee = optimize('scf')
oeprop('DIPOLE', 'QUADRUPOLE', 'MULLIKEN_CHARGES')
f=open( 'psi4out.xyz', 'w' )
f.write( "18  " )
f.write( str(ee) + "\n" )
f.write( MOL.save_string_xyz() )
f.close()
--------------------------------------------------------------------------

    Molecular point group: c1
  Charge       = 0
  Multiplicity = 1
  Basis Set: 6-31G*
  Basis Set:
  @DF-RHF Final Energy:  -457.33813769757774
    Total Energy =                       -457.3381376975777357
    Molecular point group: c1
  Basis Set: 6-31G*
  Basis Set:
  Basis Set: 6-31G*
  Basis Set:
  @DF-RHF Final Energy:  -457.33733338093515
    Total Energy =                       -457.3373333809350925
  Basis Set: 6-31G*
  Basis Set:
  Basis Set: 6-31G*
  Basis Set:
  @DF-RHF Final Energy:  -457.33851634506459
    Total Energy =                       -457.3385163450641357
  Basis Set: 6-31G*
  Basis Set:
  Basis Set: 6-31G*
  Basis Set:
  @DF-RHF Final Energy:  -457.33858705923194
    Total Energy =                       -457.3385870592317133
  Basis Set: 6-31G*
  Basis Set:
  Charge       = 0
  Multiplicity = 1
  Basis Set: 6-31G*
  Basis Set:

    Orbital Energies (a.u.)
    -----------------------

    Doubly Occupied:

       1A    -20.610002     2A    -20.551144     3A    -11.380829
       4A    -11.283742     5A    -11.251705     6A    -11.243996
       7A    -11.243607     8A    -11.240554     9A    -11.239713
      10A    -11.238821    11A     -1.475719    12A     -1.368319
      13A     -1.166604    14A     -1.048824    15A     -1.025766
      16A     -0.980010    17A     -0.859617    18A     -0.838360
      19A     -0.780496    20A     -0.737672    21A     -0.685370
      22A     -0.680333    23A     -0.676863    24A     -0.631227
      25A     -0.629658    26A     -0.597286    27A     -0.591437
      28A     -0.548200    29A     -0.536872    30A     -0.517722
      31A     -0.507612    32A     -0.502046    33A     -0.459823
      34A     -0.444638    35A     -0.342690    36A     -0.342062

  @DF-RHF Final Energy:  -457.33858931880042

   => Energetics <=

    Nuclear Repulsion Energy =            491.5975168450621027
    One-Electron Energy =               -1597.3535368522830140
    Two-Electron Energy =                 648.4174306884204952
    DFT Exchange-Correlation Energy =       0.0000000000000000
    Empirical Dispersion Energy =           0.0000000000000000
    PCM Polarization Energy =               0.0000000000000000
    EFP Energy =                            0.0000000000000000
    Total Energy =                       -457.3385893188004729
    Molecular point group: c1
  Basis Set: 6-31G*
  Basis Set:

  -Total Gradient:
     Atom            X                  Y                   Z
    ------   -----------------  -----------------  -----------------
       1       -0.000000682099     0.000002143912    -0.000019397538
       2        0.000024360359    -0.000172825165     0.000033788269
       3        0.000147516602     0.000149519177    -0.000018056404
       4       -0.000175457805    -0.000009403859     0.000051918773
       5        0.000000135140     0.000006430782     0.000018664435
       6       -0.000130053269     0.000178614313    -0.002662979508
       7        0.000009046556    -0.000010000231     0.000006395434
       8        0.000118154754     0.000025527330    -0.000142530613
       9        0.000006325890    -0.000072695155     0.000014652885
      10        0.000033097093     0.000564084662     0.003684992805
      11       -0.000062180499     0.000048056713     0.000048237864
      12        0.000470173444    -0.003186752171    -0.000685857882
      13       -0.000439639257     0.002477958378    -0.000452702191
      14        0.000025391579    -0.000003069071     0.000098471110
      15        0.000014203609     0.000002731806     0.000030436942
      16       -0.000004655789     0.000001712541    -0.000004361908
      17       -0.000031761356    -0.000002280498     0.000003955073
      18       -0.000003974966     0.000000246537    -0.000005627546

  **** Optimization is complete! (in 5 steps) ****
    Final optimized geometry and variables:
    Molecular point group: c1

    Geometry (in Angstrom), charge = 0, multiplicity = 1:

    H           -4.002145921898    -0.620569525338     0.145039801586
    C           -2.940485381876    -0.450749422183     0.153834171964
    C           -2.445415194329     0.843456511714     0.165010316049
    C           -2.066378349095    -1.525649759355     0.151792290239
    H           -3.121001167360     1.679715307767     0.163203135180
    C           -1.078439645222     1.063863789951     0.180882009938
    H           -2.447058258046    -2.531005580841     0.141389069418
    C           -0.698571666979    -1.308150090138     0.156902700943
    H           -0.694034277698     2.067724991399     0.199636815571
    C           -0.204541113589    -0.012924761510     0.184668267657
    H           -0.021314922913    -2.143202017348     0.144994562237
    C            1.274209198911     0.235969843081     0.190560187638
    O            1.800357569070     0.107176466847    -1.016601140275
    O            1.902224715327     0.540318681900     1.151777534236
    C            3.196279874339     0.325965104292    -1.133996269162
    H            3.447119760371     1.334286630001    -0.838158030817
    H            3.430275822122     0.170859645989    -2.175369744162
    H            3.743157415078    -0.372568162411    -0.517300881185

  Mulliken Charges: (a.u.)
   Center  Symbol    Alpha    Beta     Spin     Total
       1     H     0.39650  0.39650  0.00000  0.20701
       2     C     3.09741  3.09741  0.00000 -0.19481
       3     C     3.10005  3.10005  0.00000 -0.20010
       4     C     3.10001  3.10001  0.00000 -0.20002
       5     H     0.39580  0.39580  0.00000  0.20840
       6     C     3.09884  3.09884  0.00000 -0.19767
       7     H     0.39592  0.39592  0.00000  0.20816
       8     C     3.09734  3.09734  0.00000 -0.19468
       9     H     0.39004  0.39004  0.00000  0.21992
      10     C     3.00892  3.00892  0.00000 -0.01785
      11     H     0.39166  0.39166  0.00000  0.21667
      12     C     2.64113  2.64113  0.00000  0.71773
      13     O     4.29476  4.29476  0.00000 -0.58952
      14     O     4.27471  4.27471  0.00000 -0.54941
      15     C     3.09429  3.09429  0.00000 -0.18859
      16     H     0.40790  0.40790  0.00000  0.18421
      17     H     0.40635  0.40635  0.00000  0.18729
      18     H     0.40837  0.40837  0.00000  0.18325

   Total alpha = 36.00000, Total beta = 36.00000, Total charge =  0.00000
