                              Psi4 1.0.54 Driver

  ==> Input File <==

--------------------------------------------------------------------------
set {
	reference rhf
	basis cc-pvtz
}

set_num_threads( 4 )
memory 2 gb

molecule MOL {
0 1

H	 -2.149496	 -2.244167	 0.000000
O	 -2.454378	 -1.354528	 0.000000
C	 -1.430628	 -0.482077	 0.000000
C	 -0.670837	 -0.387835	 -1.156939
C	 -1.123109	 0.302054	 1.091692
H	 -0.926031	 -1.005942	 -1.994703
C	 0.388926	 0.488241	 -1.213536
H	 -1.702500	 0.239295	 1.992978
C	 -0.050726	 1.180818	 1.018227
H	 0.971265	 0.554989	 -2.111735
C	 0.712264	 1.283120	 -0.127557
C	 0.263940	 1.997447	 2.165141
H	 1.536445	 1.965759	 -0.168830
N	 0.507217	 2.634529	 3.063822

	symmetry c1
}
set optking {
	frozen_dihedral = ("
		5 3 2 1
	")
}

ee,wfn = optimize('scf', return_wfn=True)
oeprop( wfn, 'DIPOLE', 'QUADRUPOLE', 'MULLIKEN_CHARGES')
f=open( 'psi4out.xyz', 'w' )
f.write( "14  " )
f.write( str(ee) + "\n" )
f.write( MOL.save_string_xyz() )
f.close()
--------------------------------------------------------------------------

    Molecular point group: c1
  Charge       = 0
  Multiplicity = 1
  Basis Set: CC-PVTZ
  Basis Set:
  @DF-RHF Final Energy:  -397.42767012036620
    Total Energy =                       -397.4276701203662014
    Molecular point group: c1
  Basis Set: CC-PVTZ
  Basis Set:
  Basis Set: CC-PVTZ
  Basis Set:
  @DF-RHF Final Energy:  -397.42888929208652
    Total Energy =                       -397.4288892920868648
  Basis Set: CC-PVTZ
  Basis Set:
  Basis Set: CC-PVTZ
  Basis Set:
  @DF-RHF Final Energy:  -397.42898885930833
    Total Energy =                       -397.4289888593084470
  Basis Set: CC-PVTZ
  Basis Set:
  Basis Set: CC-PVTZ
  Basis Set:
  @DF-RHF Final Energy:  -397.42900213376532
    Total Energy =                       -397.4290021337653798
  Basis Set: CC-PVTZ
  Basis Set:
  Charge       = 0
  Multiplicity = 1
  Basis Set: CC-PVTZ
  Basis Set:

    Orbital Energies (a.u.)
    -----------------------

    Doubly Occupied:

       1A    -20.594049     2A    -15.564369     3A    -11.317023
       4A    -11.291143     5A    -11.267923     6A    -11.261869
       7A    -11.260359     8A    -11.260325     9A    -11.257242
      10A     -1.423050    11A     -1.237471    12A     -1.187494
      13A     -1.066568    14A     -1.043176    15A     -0.897156
      16A     -0.863362    17A     -0.789366    18A     -0.714030
      19A     -0.694053    20A     -0.690312    21A     -0.637622
      22A     -0.624108    23A     -0.570700    24A     -0.563166
      25A     -0.552030    26A     -0.549308    27A     -0.505217
      28A     -0.484682    29A     -0.478043    30A     -0.366986
      31A     -0.355130

  @DF-RHF Final Energy:  -397.42900513414156

   => Energetics <=

    Nuclear Repulsion Energy =            379.9684835134495415
    One-Electron Energy =               -1292.0603116346908337
    Two-Electron Energy =                 514.6628229871000713
    DFT Exchange-Correlation Energy =       0.0000000000000000
    Empirical Dispersion Energy =           0.0000000000000000
    PCM Polarization Energy =               0.0000000000000000
    EFP Energy =                            0.0000000000000000
    Total Energy =                       -397.4290051341412209
    Molecular point group: c1
  Basis Set: CC-PVTZ
  Basis Set:

  -Total Gradient:
     Atom            X                  Y                   Z
    ------   -----------------  -----------------  -----------------
       1        0.000011146401     0.000076557169     0.001327172040
       2        0.000117374360    -0.000573160157    -0.001530962125
       3       -0.000609136068     0.001306045083     0.000007711999
       4       -0.000041713800    -0.000062104811    -0.000080442079
       5        0.000423637015    -0.000770749068     0.000318896471
       6        0.000020466289     0.000041019734     0.000017285160
       7       -0.000042621344    -0.000103309499    -0.000025436608
       8       -0.000037487126    -0.000037210514    -0.000032098691
       9        0.000224282429     0.000057107104    -0.000036294720
      10        0.000028298743     0.000041164505     0.000013808478
      11       -0.000112817075     0.000050881697     0.000150508172
      12        0.000055687155     0.000013155358    -0.000060792164
      13        0.000015894933    -0.000006215134    -0.000066614199
      14       -0.000053011914    -0.000033181478    -0.000002741736

  **** Optimization is complete! (in 5 steps) ****
    Final optimized geometry and variables:
    Molecular point group: c1

    Geometry (in Angstrom), charge = 0, multiplicity = 1:

    H           -1.715178866461    -2.800679864736    -0.450819382833
    O           -1.996519206947    -1.902730957118    -0.477774642255
    C           -0.929115036277    -1.059301520011    -0.536019613952
    C           -0.172799749851    -0.952925347630    -1.689042322400
    C           -0.633172738783    -0.279297413133     0.561363887469
    H           -0.425897274612    -1.555694457712    -2.539735804464
    C            0.886936142066    -0.068862764197    -1.741410750769
    H           -1.228621501033    -0.363488613868     1.447896352354
    C            0.427125509684     0.610792622344     0.495864559785
    H            1.470740468462     0.010146146848    -2.637526130654
    C            1.194205138962     0.719991811922    -0.651616881070
    C            0.735984554401     1.429114031675     1.642654737192
    H            2.011725283640     1.411581389966    -0.687684565190
    N            0.979109149909     2.068390523135     2.539899594120

  Mulliken Charges: (a.u.)
   Center  Symbol    Alpha    Beta     Spin     Total
       1     H     0.38503  0.38503  0.00000  0.22994
       2     O     4.18507  4.18507  0.00000 -0.37014
       3     C     2.86024  2.86024  0.00000  0.27951
       4     C     3.11309  3.11309  0.00000 -0.22619
       5     C     3.12167  3.12167  0.00000 -0.24334
       6     H     0.41430  0.41430  0.00000  0.17139
       7     C     3.06059  3.06059  0.00000 -0.12117
       8     H     0.40664  0.40664  0.00000  0.18672
       9     C     2.92961  2.92961  0.00000  0.14077
      10     H     0.41619  0.41619  0.00000  0.16761
      11     C     3.09526  3.09526  0.00000 -0.19052
      12     C     3.02383  3.02383  0.00000 -0.04766
      13     H     0.41367  0.41367  0.00000  0.17266
      14     N     3.57479  3.57479  0.00000 -0.14959

   Total alpha = 31.00000, Total beta = 31.00000, Total charge = -0.00000

*** Psi4 exiting successfully. Buy a developer a beer!
