  ==> Input File <==

--------------------------------------------------------------------------
set {
	reference rhf
	basis 6-31G*
}

set_num_threads( 1 )
memory 2 gb

molecule MOL {
0 1

O	 3.225979	 0.970355	 -0.599647
C	 2.701189	 0.057885	 -0.047330
C	 1.245376	 -0.013843	 0.345420
O	 3.347903	 -1.046386	 0.304773
C	 0.455112	 1.231400	 -0.050772
H	 0.838542	 -0.913825	 -0.103701
H	 1.208210	 -0.175333	 1.419774
C	 -0.998893	 1.219485	 0.433193
H	 0.482531	 1.345121	 -1.130325
H	 0.957290	 2.103070	 0.354729
C	 -1.883438	 0.145884	 -0.207175
H	 -1.431207	 2.195402	 0.224832
H	 -1.019646	 1.105716	 1.516076
C	 -1.338054	 -0.353044	 -1.546812
H	 -1.978036	 -0.695111	 0.478097
H	 -2.889291	 0.530790	 -0.359099
C	 -2.216626	 -1.422421	 -2.198484
H	 -0.335861	 -0.752491	 -1.400917
H	 -1.233101	 0.489142	 -2.229020
C	 -1.663003	 -1.918061	 -3.533978
H	 -2.323372	 -2.264307	 -1.517695
H	 -3.217628	 -1.023563	 -2.349106
H	 -2.307324	 -2.674756	 -3.970865
H	 -0.675975	 -2.354993	 -3.411257
H	 -1.576583	 -1.104517	 -4.248787
C	 4.728119	 -1.109107	 -0.004993
H	 4.882018	 -1.033965	 -1.071845
H	 5.068212	 -2.067527	 0.355250
H	 5.265056	 -0.311663	 0.488280

	symmetry c1
}
set optking {
	frozen_dihedral = ("
		21 17 14 11,
		17 14 11 15,
		6 3 5 9,
		11 8 5 9,
		2 4 26 27,
		1 2 4 26,
		6 3 2 1
	")
}

ee = energy('scf')
oeprop('DIPOLE', 'QUADRUPOLE', 'MULLIKEN_CHARGES')
f=open( 'psi4out.xyz', 'w' )
f.write( "29  " )
f.write( str(ee) + "\n" )
f.write( MOL.save_string_xyz() )
f.close()
--------------------------------------------------------------------------

    Molecular point group: c1

    Geometry (in Angstrom), charge = 0, multiplicity = 1:

       Center              X                  Y                   Z               Mass
    ------------   -----------------  -----------------  -----------------  -----------------
           O          2.484708165050     1.190554366916     0.055102056434    15.994914619560
           C          1.959918165050     0.278084366916     0.607419056434    12.000000000000
           C          0.504105165050     0.206356366916     1.000169056434    12.000000000000
           O          2.606632165050    -0.826186633084     0.959522056434    15.994914619560
           C         -0.286158834950     1.451599366916     0.603977056434    12.000000000000
           H          0.097271165050    -0.693625633084     0.551048056434     1.007825032070
           H          0.466939165050     0.044866366916     2.074523056434     1.007825032070
           C         -1.740163834950     1.439684366916     1.087942056434    12.000000000000
           H         -0.258739834950     1.565320366916    -0.475575943566     1.007825032070
           H          0.216019165050     2.323269366916     1.009478056434     1.007825032070
           C         -2.624708834950     0.366083366916     0.447574056434    12.000000000000
           H         -2.172477834950     2.415601366916     0.879581056434     1.007825032070
           H         -1.760916834950     1.325915366916     2.170825056434     1.007825032070
           C         -2.079324834950    -0.132844633084    -0.892062943566    12.000000000000
           H         -2.719306834950    -0.474911633084     1.132846056434     1.007825032070
           H         -3.630561834950     0.750989366916     0.295650056434     1.007825032070
           C         -2.957896834950    -1.202221633084    -1.543734943566    12.000000000000
           H         -1.077131834950    -0.532291633084    -0.746167943566     1.007825032070
           H         -1.974371834950     0.709341366916    -1.574270943566     1.007825032070
           C         -2.404273834950    -1.697861633084    -2.879228943566    12.000000000000
           H         -3.064642834950    -2.044107633084    -0.862945943566     1.007825032070
           H         -3.958898834950    -0.803363633084    -1.694356943566     1.007825032070
           H         -3.048594834950    -2.454556633084    -3.316115943566     1.007825032070
           H         -1.417245834950    -2.134793633084    -2.756507943566     1.007825032070
           H         -2.317853834950    -0.884317633084    -3.594037943566     1.007825032070
           C          3.986848165050    -0.888907633084     0.649756056434    12.000000000000
           H          4.140747165050    -0.813765633084    -0.417095943566     1.007825032070
           H          4.326941165050    -1.847327633084     1.009999056434     1.007825032070
           H          4.523785165050    -0.091463633084     1.143029056434     1.007825032070

  Charge       = 0
  Multiplicity = 1
  Basis Set: 6-31G*
  Basis Set:

    Orbital Energies (a.u.)
    -----------------------

    Doubly Occupied:

       1A    -20.603564     2A    -20.545325     3A    -11.372062
       4A    -11.280796     5A    -11.233958     6A    -11.217857
       7A    -11.216624     8A    -11.215313     9A    -11.214981
      10A    -11.213171    11A    -11.208831    12A     -1.469213
      13A     -1.362633    14A     -1.103306    15A     -1.062300
      16A     -1.019594    17A     -0.974611    18A     -0.931102
      19A     -0.867595    20A     -0.810820    21A     -0.777017
      22A     -0.758971    23A     -0.702672    24A     -0.683562
      25A     -0.672161    26A     -0.648908    27A     -0.637348
      28A     -0.604429    29A     -0.594731    30A     -0.580231
      31A     -0.565287    32A     -0.551046    33A     -0.541998
      34A     -0.525071    35A     -0.522684    36A     -0.508337
      37A     -0.493096    38A     -0.481029    39A     -0.472461
      40A     -0.456934    41A     -0.456268    42A     -0.449174
      43A     -0.441458    44A     -0.434477

  @DF-RHF Final Energy:  -501.02994091354412

   => Energetics <=

    Nuclear Repulsion Energy =            639.0252619865382258
    One-Electron Energy =               -1949.1441778008427264
    Two-Electron Energy =                 809.0889749007629916
    DFT Exchange-Correlation Energy =       0.0000000000000000
    Empirical Dispersion Energy =           0.0000000000000000
    PCM Polarization Energy =               0.0000000000000000
    EFP Energy =                            0.0000000000000000
    Total Energy =                       -501.0299409135415090

  Mulliken Charges: (a.u.)
   Center  Symbol    Alpha    Beta     Spin     Total
       1     O     4.28552  4.28552  0.00000 -0.57105
       2     C     2.60519  2.60519  0.00000  0.78962
       3     C     3.21088  3.21088  0.00000 -0.42176
       4     O     4.30744  4.30744  0.00000 -0.61489
       5     C     3.16248  3.16248  0.00000 -0.32495
       6     H     0.39806  0.39806  0.00000  0.20389
       7     H     0.40009  0.40009  0.00000  0.19982
       8     C     3.15798  3.15798  0.00000 -0.31597
       9     H     0.40863  0.40863  0.00000  0.18275
      10     H     0.40689  0.40689  0.00000  0.18621
      11     C     3.15608  3.15608  0.00000 -0.31215
      12     H     0.41710  0.41710  0.00000  0.16581
      13     H     0.42134  0.42134  0.00000  0.15732
      14     C     3.15844  3.15844  0.00000 -0.31689
      15     H     0.42283  0.42283  0.00000  0.15435
      16     H     0.41829  0.41829  0.00000  0.16343
      17     C     3.14921  3.14921  0.00000 -0.29843
      18     H     0.42474  0.42474  0.00000  0.15051
      19     H     0.42074  0.42074  0.00000  0.15853
      20     C     3.23920  3.23920  0.00000 -0.47840
      21     H     0.42394  0.42394  0.00000  0.15213
      22     H     0.42301  0.42301  0.00000  0.15398
      23     H     0.41922  0.41922  0.00000  0.16157
      24     H     0.42247  0.42247  0.00000  0.15506
      25     H     0.42117  0.42117  0.00000  0.15767
      26     C     3.09238  3.09238  0.00000 -0.18477
      27     H     0.40911  0.40911  0.00000  0.18178
      28     H     0.40852  0.40852  0.00000  0.18296
      29     H     0.40907  0.40907  0.00000  0.18187

   Total alpha = 44.00000, Total beta = 44.00000, Total charge = -0.00000
