  ==> Input File <==

--------------------------------------------------------------------------
set {
	reference rhf
	basis 6-31G*
}

set_num_threads( 4 )
memory 2 gb

molecule MOL {
0 1

H	 -2.937319	 -0.204620	 1.958032
C	 -3.149605	 -0.344318	 0.890773
C	 -2.696669	 0.782851	 -0.001947
O	 -3.699116	 -1.328476	 0.514980
C	 -1.220012	 1.144545	 0.209990
H	 -2.895418	 0.505491	 -1.030674
H	 -3.314895	 1.647590	 0.236125
C	 -0.252658	 0.041456	 -0.226725
H	 -1.005419	 2.053023	 -0.344900
H	 -1.053809	 1.384444	 1.259076
C	 1.180775	 0.282413	 0.250794
H	 -0.266029	 -0.034465	 -1.312038
H	 -0.597733	 -0.921000	 0.146291
C	 2.148627	 -0.814315	 -0.201312
H	 1.516199	 1.249228	 -0.115937
H	 1.192670	 0.346017	 1.338083
C	 3.580890	 -0.659131	 0.322722
H	 2.166869	 -0.852443	 -1.289387
H	 1.762857	 -1.776509	 0.128956
C	 4.324889	 0.564933	 -0.213704
H	 4.142010	 -1.551473	 0.056605
H	 3.564836	 -0.624694	 1.410140
H	 4.342616	 0.565491	 -1.300421
H	 3.866655	 1.493402	 0.110242
H	 5.353900	 0.572371	 0.132816

	symmetry c1
}
set optking {
	frozen_dihedral = ("
		3 5 8 12
	")
}

ee = optimize('scf')
oeprop('DIPOLE', 'QUADRUPOLE', 'MULLIKEN_CHARGES')
f=open( 'psi4out.xyz', 'w' )
f.write( "25  " )
f.write( str(ee) + "\n" )
f.write( MOL.save_string_xyz() )
f.close()
--------------------------------------------------------------------------

    Molecular point group: c1
  Charge       = 0
  Multiplicity = 1
  Basis Set: 6-31G*
  Basis Set:
  @DF-RHF Final Energy:  -387.12146922631683
    Total Energy =                       -387.1214692263163215
    Molecular point group: c1
  Basis Set: 6-31G*
  Basis Set:
  Basis Set: 6-31G*
  Basis Set:
  @DF-RHF Final Energy:  -387.12105986119894
    Total Energy =                       -387.1210598611991145
  Basis Set: 6-31G*
  Basis Set:
  Basis Set: 6-31G*
  Basis Set:
  @DF-RHF Final Energy:  -387.12081751225537
    Total Energy =                       -387.1208175122558259
  Basis Set: 6-31G*
  Basis Set:
  Basis Set: 6-31G*
  Basis Set:
  @DF-RHF Final Energy:  -387.12147816772921
    Total Energy =                       -387.1214781677296060
  Basis Set: 6-31G*
  Basis Set:
  @DF-RHF Final Energy:  -387.12155084734701
    Total Energy =                       -387.1215508473470663
  Basis Set: 6-31G*
  Basis Set:
  @DF-RHF Final Energy:  -387.12155572846513
    Total Energy =                       -387.1215557284649549
  Basis Set: 6-31G*
  Basis Set:
  Basis Set: 6-31G*
  Basis Set:
  @DF-RHF Final Energy:  -387.12154026974906
    Total Energy =                       -387.1215402697487207
  Basis Set: 6-31G*
  Basis Set:
  Basis Set: 6-31G*
  Basis Set:
  @DF-RHF Final Energy:  -387.12156079961062
    Total Energy =                       -387.1215607996103927
  Basis Set: 6-31G*
  Basis Set:
  Charge       = 0
  Multiplicity = 1
  Basis Set: 6-31G*
  Basis Set:

    Orbital Energies (a.u.)
    -----------------------

    Doubly Occupied:

       1A    -20.562474     2A    -11.326437     3A    -11.235396
       4A    -11.234702     5A    -11.223701     6A    -11.219644
       7A    -11.217903     8A    -11.216803     9A    -11.210645
      10A     -1.402378    11A     -1.103739    12A     -1.069568
      13A     -1.013293    14A     -0.942373    15A     -0.875255
      16A     -0.819850    17A     -0.788914    18A     -0.780836
      19A     -0.664637    20A     -0.662327    21A     -0.633741
      22A     -0.624694    23A     -0.604073    24A     -0.591990
      25A     -0.574785    26A     -0.551853    27A     -0.534542
      28A     -0.524498    29A     -0.508953    30A     -0.495570
      31A     -0.490634    32A     -0.479315    33A     -0.464503
      34A     -0.458612    35A     -0.440875    36A     -0.410098

  @DF-RHF Final Energy:  -387.12156056090038

   => Energetics <=

    Nuclear Repulsion Energy =            439.6441256273024578
    One-Electron Energy =               -1395.6121536728828687
    Two-Electron Energy =                 568.8464674846798061
    DFT Exchange-Correlation Energy =       0.0000000000000000
    Empirical Dispersion Energy =           0.0000000000000000
    PCM Polarization Energy =               0.0000000000000000
    EFP Energy =                            0.0000000000000000
    Total Energy =                       -387.1215605609006616
    Molecular point group: c1
  Basis Set: 6-31G*
  Basis Set:

  -Total Gradient:
     Atom            X                  Y                   Z
    ------   -----------------  -----------------  -----------------
       1        0.000011683624     0.000001429292    -0.000002138464
       2       -0.000020117755    -0.000004126900     0.000008028956
       3       -0.000044844097    -0.000647748893     0.001514850019
       4        0.000004181921     0.000009745960    -0.000006792511
       5        0.000483436141     0.001239132265    -0.002142423392
       6       -0.000003317294    -0.000002651333    -0.000000452233
       7       -0.000008782940    -0.000004603739    -0.000001124908
       8       -0.002092111045    -0.002069683115     0.000715936044
       9        0.000002461459    -0.000006239034    -0.000003326230
      10        0.000003388900     0.000002894477     0.000003291915
      11        0.000002697425     0.000003018326     0.000021332963
      12        0.001675981819     0.001484370721    -0.000125009120
      13       -0.000006806986     0.000012664045     0.000009184124
      14       -0.000002687136    -0.000013601407     0.000010054943
      15        0.000014556127     0.000018070105     0.000008902795
      16       -0.000000834598    -0.000008885227     0.000000326034
      17        0.000009042308    -0.000006599456    -0.000025346716
      18       -0.000004115285    -0.000014631877     0.000002816733
      19        0.000004036830     0.000000632425     0.000011644383
      20       -0.000012120053     0.000001176168     0.000005290308
      21        0.000006075152     0.000004462465    -0.000008131799
      22       -0.000002011536    -0.000008717397    -0.000004146458
      23        0.000000288765    -0.000003479845     0.000004039115
      24       -0.000020462317     0.000010326974    -0.000000404424
      25        0.000000380570     0.000003045003     0.000003597923

  **** Optimization is complete! (in 9 steps) ****
    Final optimized geometry and variables:
    Molecular point group: c1

    Geometry (in Angstrom), charge = 0, multiplicity = 1:

    H           -3.017980782224    -0.086275502191     1.798003407439
    C           -3.200158346886    -0.269316111043     0.731676390771
    C           -2.721719597125     0.821335413774    -0.192591577702
    O           -3.743334583008    -1.266411253000     0.381523471701
    C           -1.243597622559     1.170691727641     0.032094381487
    H           -2.908884259645     0.510430927554    -1.214111348315
    H           -3.333043820263     1.700675528630     0.006079740690
    C           -0.280539306659     0.056422308216    -0.390259705720
    H           -1.008585272335     2.079527812650    -0.513273542982
    H           -1.092992642893     1.403830603628     1.085196703976
    C            1.155395075346     0.305801922588     0.078168687371
    H           -0.286311840560    -0.021618259628    -1.475420741288
    H           -0.622748147854    -0.902688609251    -0.008104924970
    C            2.129857431193    -0.776024178607    -0.395062106351
    H            1.478879755506     1.280703313269    -0.278296184109
    H            1.175342883602     0.355438365129     1.165898412003
    C            3.561934870056    -0.620868689790     0.129297733634
    H            2.147068315780    -0.793570037236    -1.483602765530
    H            1.750918466401    -1.746834903748    -0.082555039222
    C            4.293392514126     0.623144380174    -0.378293677091
    H            4.130460663594    -1.501443650584    -0.159164615937
    H            3.547502394729    -0.613006446458     1.217313024889
    H            4.312677878401     0.648349315491    -1.464591614057
    H            3.824860199376     1.539310336180    -0.034247940711
    H            5.321719787653     0.633960525801    -0.030406599182

  Mulliken Charges: (a.u.)
   Center  Symbol    Alpha    Beta     Spin     Total
       1     H     0.43249  0.43249  0.00000  0.13501
       2     C     2.83073  2.83073  0.00000  0.33853
       3     C     3.20771  3.20771  0.00000 -0.41543
       4     O     4.23778  4.23778  0.00000 -0.47556
       5     C     3.16723  3.16723  0.00000 -0.33446
       6     H     0.39976  0.39976  0.00000  0.20048
       7     H     0.40698  0.40698  0.00000  0.18604
       8     C     3.15539  3.15539  0.00000 -0.31078
       9     H     0.41210  0.41210  0.00000  0.17579
      10     H     0.42006  0.42006  0.00000  0.15987
      11     C     3.15465  3.15465  0.00000 -0.30930
      12     H     0.41835  0.41835  0.00000  0.16329
      13     H     0.41644  0.41644  0.00000  0.16711
      14     C     3.15315  3.15315  0.00000 -0.30630
      15     H     0.42105  0.42105  0.00000  0.15789
      16     H     0.42387  0.42387  0.00000  0.15227
      17     C     3.15271  3.15271  0.00000 -0.30542
      18     H     0.42333  0.42333  0.00000  0.15334
      19     H     0.42036  0.42036  0.00000  0.15927
      20     C     3.24138  3.24138  0.00000 -0.48275
      21     H     0.41996  0.41996  0.00000  0.16008
      22     H     0.42319  0.42319  0.00000  0.15363
      23     H     0.42201  0.42201  0.00000  0.15599
      24     H     0.42066  0.42066  0.00000  0.15869
      25     H     0.41865  0.41865  0.00000  0.16270

   Total alpha = 36.00000, Total beta = 36.00000, Total charge =  0.00000
