  ==> Input File <==

--------------------------------------------------------------------------
set {
	reference rhf
	basis 6-31G*
}

set_num_threads( 1 )
memory 2 gb

molecule MOL {
0 1

H	 -1.044111	 5.561599	 4.816377
C	 -1.812859	 4.797553	 4.754877
C	 -1.716133	 4.021066	 3.442288
H	 -1.691338	 4.136682	 5.608003
H	 -2.776873	 5.289623	 4.851535
C	 -2.791335	 2.939030	 3.320008
H	 -0.734142	 3.565397	 3.367058
H	 -1.806551	 4.713991	 2.607200
C	 -2.730990	 2.156694	 2.007919
H	 -2.704543	 2.244809	 4.148361
H	 -3.772258	 3.402665	 3.396653
C	 -1.542556	 1.213260	 1.894786
H	 -3.624630	 1.543103	 1.904558
H	 -2.736331	 2.829801	 1.153474
C	 -1.181045	 0.701995	 0.511084
O	 -0.923591	 0.868517	 2.856264
C	 -2.285934	 -0.139295	 -0.145128
H	 -0.276405	 0.115291	 0.616528
H	 -0.952976	 1.555695	 -0.124420
C	 -3.651768	 0.085446	 0.506485
H	 -2.346596	 0.110469	 -1.202272
H	 -2.034737	 -1.195320	 -0.088721
C	 -4.759797	 -0.746382	 -0.137905
H	 -3.908762	 1.140117	 0.445781
H	 -3.588286	 -0.154158	 1.565709
H	 -4.868882	 -0.505166	 -1.191300
H	 -4.548009	 -1.809175	 -0.062213
H	 -5.715422	 -0.564821	 0.343442

	symmetry c1
}
set optking {
	frozen_dihedral = ("
		10 6 3 2,
		16 12 15 17
	")
}

ee = energy('scf')
oeprop('DIPOLE', 'QUADRUPOLE', 'MULLIKEN_CHARGES')
f=open( 'psi4out.xyz', 'w' )
f.write( "28  " )
f.write( str(ee) + "\n" )
f.write( MOL.save_string_xyz() )
f.close()
--------------------------------------------------------------------------

    Molecular point group: c1

    Geometry (in Angstrom), charge = 0, multiplicity = 1:

       Center              X                  Y                   Z               Mass
    ------------   -----------------  -----------------  -----------------  -----------------
           H          1.305452920231     3.968227267113     2.903093322012     1.007825032070
           C          0.536704920231     3.204181267113     2.841593322012    12.000000000000
           C          0.633430920231     2.427694267113     1.529004322012    12.000000000000
           H          0.658225920231     2.543310267113     3.694719322012     1.007825032070
           H         -0.427309079769     3.696251267113     2.938251322012     1.007825032070
           C         -0.441771079769     1.345658267113     1.406724322012    12.000000000000
           H          1.615421920231     1.972025267113     1.453774322012     1.007825032070
           H          0.543012920231     3.120619267113     0.693916322012     1.007825032070
           C         -0.381426079769     0.563322267113     0.094635322012    12.000000000000
           H         -0.354979079769     0.651437267113     2.235077322012     1.007825032070
           H         -1.422694079769     1.809293267113     1.483369322012     1.007825032070
           C          0.807007920231    -0.380111732887    -0.018497677988    12.000000000000
           H         -1.275066079769    -0.050268732887    -0.008725677988     1.007825032070
           H         -0.386767079769     1.236429267113    -0.759809677988     1.007825032070
           C          1.168518920231    -0.891376732887    -1.402199677988    12.000000000000
           O          1.425972920231    -0.724854732887     0.942980322012    15.994914619560
           C          0.063629920231    -1.732666732887    -2.058411677988    12.000000000000
           H          2.073158920231    -1.478080732887    -1.296755677988     1.007825032070
           H          1.396587920231    -0.037676732887    -2.037703677988     1.007825032070
           C         -1.302204079769    -1.507925732887    -1.406798677988    12.000000000000
           H          0.002967920231    -1.482902732887    -3.115555677988     1.007825032070
           H          0.314826920231    -2.788691732887    -2.002004677988     1.007825032070
           C         -2.410233079769    -2.339753732887    -2.051188677988    12.000000000000
           H         -1.559198079769    -0.453254732887    -1.467502677988     1.007825032070
           H         -1.238722079769    -1.747529732887    -0.347574677988     1.007825032070
           H         -2.519318079769    -2.098537732887    -3.104583677988     1.007825032070
           H         -2.198445079769    -3.402546732887    -1.975496677988     1.007825032070
           H         -3.365858079769    -2.158192732887    -1.569841677988     1.007825032070

  Charge       = 0
  Multiplicity = 1
  Basis Set: 6-31G*
  Basis Set:

    Orbital Energies (a.u.)
    -----------------------

    Doubly Occupied:

       1A    -20.548614     2A    -11.321622     3A    -11.232654
       4A    -11.227923     5A    -11.226207     6A    -11.220127
       7A    -11.216778     8A    -11.212883     9A    -11.209881
      10A    -11.204012    11A     -1.393614    12A     -1.105711
      13A     -1.072688    14A     -1.016099    15A     -0.996088
      16A     -0.904776    17A     -0.887352    18A     -0.816393
      19A     -0.790667    20A     -0.726721    21A     -0.666287
      22A     -0.653279    23A     -0.631354    24A     -0.628182
      25A     -0.610209    26A     -0.582983    27A     -0.576500
      28A     -0.570105    29A     -0.557713    30A     -0.530553
      31A     -0.519884    32A     -0.512837    33A     -0.500808
      34A     -0.490436    35A     -0.479808    36A     -0.470294
      37A     -0.463344    38A     -0.462465    39A     -0.433592
      40A     -0.393547

  @DF-RHF Final Energy:  -426.12944601562151

   => Energetics <=

    Nuclear Repulsion Energy =            553.6659909693835289
    One-Electron Energy =               -1675.4609326077609239
    Two-Electron Energy =                 695.6654956227566799
    DFT Exchange-Correlation Energy =       0.0000000000000000
    Empirical Dispersion Energy =           0.0000000000000000
    PCM Polarization Energy =               0.0000000000000000
    EFP Energy =                            0.0000000000000000
    Total Energy =                       -426.1294460156207151

  Mulliken Charges: (a.u.)
   Center  Symbol    Alpha    Beta     Spin     Total
       1     H     0.41994  0.41994  0.00000  0.16011
       2     C     3.23996  3.23996  0.00000 -0.47993
       3     C     3.15618  3.15618  0.00000 -0.31235
       4     H     0.41878  0.41878  0.00000  0.16243
       5     H     0.42411  0.42411  0.00000  0.15178
       6     C     3.14530  3.14530  0.00000 -0.29059
       7     H     0.41136  0.41136  0.00000  0.17728
       8     H     0.42844  0.42844  0.00000  0.14313
       9     C     3.22371  3.22371  0.00000 -0.44742
      10     H     0.40845  0.40845  0.00000  0.18310
      11     H     0.42367  0.42367  0.00000  0.15266
      12     C     2.73548  2.73548  0.00000  0.52905
      13     H     0.39193  0.39193  0.00000  0.21614
      14     H     0.41363  0.41363  0.00000  0.17275
      15     C     3.20317  3.20317  0.00000 -0.40634
      16     O     4.26661  4.26661  0.00000 -0.53323
      17     C     3.15226  3.15226  0.00000 -0.30453
      18     H     0.39748  0.39748  0.00000  0.20505
      19     H     0.41054  0.41054  0.00000  0.17891
      20     C     3.18692  3.18692  0.00000 -0.37384
      21     H     0.41587  0.41587  0.00000  0.16826
      22     H     0.41114  0.41114  0.00000  0.17772
      23     C     3.23623  3.23623  0.00000 -0.47246
      24     H     0.40848  0.40848  0.00000  0.18305
      25     H     0.41203  0.41203  0.00000  0.17595
      26     H     0.42063  0.42063  0.00000  0.15874
      27     H     0.41950  0.41950  0.00000  0.16099
      28     H     0.41820  0.41820  0.00000  0.16360

   Total alpha = 40.00000, Total beta = 40.00000, Total charge =  0.00000
