                              Psi4 1.0.54 Driver

  ==> Input File <==

--------------------------------------------------------------------------
set {
	reference rhf
	basis cc-pvtz
}

set_num_threads( 4 )
memory 2 gb

molecule MOL {
0 1

O	 -2.273175	 1.525825	 -0.548885
C	 -2.059442	 0.400531	 -0.233508
C	 -0.861442	 -0.350569	 -0.780036
C	 -2.953180	 -0.332920	 0.738114
C	 0.400882	 -0.041116	 0.034592
H	 -0.717780	 -0.036216	 -1.806026
H	 -1.051955	 -1.418524	 -0.773689
C	 1.630207	 -0.772146	 -0.501001
H	 0.560152	 1.029707	 0.020405
H	 0.244299	 -0.320785	 1.073614
C	 2.907848	 -0.545876	 0.309149
H	 1.801676	 -0.473296	 -1.532148
H	 1.419915	 -1.837905	 -0.524237
C	 3.373802	 0.906639	 0.372125
H	 3.699140	 -1.146831	 -0.127906
H	 2.764321	 -0.923458	 1.318191
H	 3.519798	 1.311927	 -0.623875
H	 4.316899	 0.983758	 0.900700
H	 2.661122	 1.540651	 0.885346
H	 -3.472913	 -1.128582	 0.213903
H	 -3.673664	 0.346667	 1.166640
H	 -2.366322	 -0.796708	 1.523027

	symmetry c1
}
set optking {
	frozen_dihedral = ("
		12 8 11 15
	")
}

ee,wfn = optimize('scf', return_wfn=True)
oeprop( wfn, 'DIPOLE', 'QUADRUPOLE', 'MULLIKEN_CHARGES')
f=open( 'psi4out.xyz', 'w' )
f.write( "22  " )
f.write( str(ee) + "\n" )
f.write( MOL.save_string_xyz() )
f.close()
--------------------------------------------------------------------------

    Molecular point group: c1
  Charge       = 0
  Multiplicity = 1
  Basis Set: CC-PVTZ
  Basis Set:
  @DF-RHF Final Energy:  -348.22340324398812
    Total Energy =                       -348.2234032439882299
    Molecular point group: c1
  Basis Set: CC-PVTZ
  Basis Set:
  Basis Set: CC-PVTZ
  Basis Set:
  @DF-RHF Final Energy:  -348.22338020243546
    Total Energy =                       -348.2233802024353508
  Basis Set: CC-PVTZ
  Basis Set:
  Basis Set: CC-PVTZ
  Basis Set:
  @DF-RHF Final Energy:  -348.22339938763389
    Total Energy =                       -348.2233993876340605
  Basis Set: CC-PVTZ
  Basis Set:
  Basis Set: CC-PVTZ
  Basis Set:
  @DF-RHF Final Energy:  -348.22343220137435
    Total Energy =                       -348.2234322013740666
  Basis Set: CC-PVTZ
  Basis Set:
  Basis Set: CC-PVTZ
  Basis Set:
  @DF-RHF Final Energy:  -348.22342121990113
    Total Energy =                       -348.2234212199010699
  Basis Set: CC-PVTZ
  Basis Set:
  Basis Set: CC-PVTZ
  Basis Set:
  @DF-RHF Final Energy:  -348.22343283894088
    Total Energy =                       -348.2234328389407096
  Basis Set: CC-PVTZ
  Basis Set:
  Charge       = 0
  Multiplicity = 1
  Basis Set: CC-PVTZ
  Basis Set:

    Orbital Energies (a.u.)
    -----------------------

    Doubly Occupied:

       1A    -20.536732     2A    -11.319253     3A    -11.227998
       4A    -11.227402     5A    -11.226894     6A    -11.220622
       7A    -11.219113     8A    -11.209420     9A     -1.396854
      10A     -1.097415    11A     -1.045706    12A     -1.000206
      13A     -0.938858    14A     -0.859548    15A     -0.786170
      16A     -0.734304    17A     -0.664537    18A     -0.646517
      19A     -0.628843    20A     -0.621911    21A     -0.597938
      22A     -0.585048    23A     -0.563956    24A     -0.540190
      25A     -0.536373    26A     -0.522047    27A     -0.498846
      28A     -0.490753    29A     -0.470954    30A     -0.465187
      31A     -0.462283    32A     -0.398513

  @DF-RHF Final Energy:  -348.22343313642142

   => Energetics <=

    Nuclear Repulsion Energy =            373.8444512405413320
    One-Electron Energy =               -1212.6549918420832910
    Two-Electron Energy =                 490.5871074651200843
    DFT Exchange-Correlation Energy =       0.0000000000000000
    Empirical Dispersion Energy =           0.0000000000000000
    PCM Polarization Energy =               0.0000000000000000
    EFP Energy =                            0.0000000000000000
    Total Energy =                       -348.2234331364219315
    Molecular point group: c1
  Basis Set: CC-PVTZ
  Basis Set:

  -Total Gradient:
     Atom            X                  Y                   Z
    ------   -----------------  -----------------  -----------------
       1        0.000007794917    -0.000011250774     0.000010236273
       2       -0.000010678478    -0.000013825865    -0.000002907722
       3        0.000007593921    -0.000001205117    -0.000000855913
       4       -0.000007341787     0.000004292618    -0.000008023517
       5       -0.000004533029     0.000004317507     0.000000176213
       6       -0.000004613299     0.000000689891     0.000004071750
       7       -0.000001093318     0.000008632224    -0.000001347933
       8       -0.000275801801     0.001224971192     0.000130003428
       9        0.000006290823    -0.000010542450    -0.000003548181
      10        0.000003795010     0.000001626860    -0.000003901340
      11       -0.000236763091    -0.001049888704     0.000630567318
      12        0.000265255868    -0.000861284892    -0.000193442404
      13       -0.000000924367     0.000002716240    -0.000002322605
      14        0.000007504520    -0.000003802089     0.000009985848
      15        0.000238269392     0.000698167786    -0.000555880833
      16       -0.000000382005     0.000008223204    -0.000001815240
      17       -0.000002072769    -0.000001030689     0.000000422316
      18       -0.000007735687    -0.000002379130    -0.000005215958
      19        0.000003367565    -0.000006476611    -0.000004858676
      20        0.000006003198     0.000003284123     0.000002494089
      21        0.000003876682     0.000000318320    -0.000000792109
      22        0.000002187731     0.000004446356    -0.000003044806

  **** Optimization is complete! (in 7 steps) ****
    Final optimized geometry and variables:
    Molecular point group: c1

    Geometry (in Angstrom), charge = 0, multiplicity = 1:

    O           -2.301384037304     1.412042013502    -0.506232167772
    C           -2.085927309565     0.293297202085    -0.169625903745
    C           -0.889324822162    -0.467729155870    -0.704993319364
    C           -2.976887505143    -0.421718137529     0.818033127877
    C            0.375036521980    -0.143586398792     0.100797975718
    H           -0.748060023277    -0.172083600646    -1.736826052966
    H           -1.080041922444    -1.535307567148    -0.678672359623
    C            1.603250451484    -0.880110548152    -0.428496051695
    H            0.532178608541     0.927077540665     0.069626932596
    H            0.222492361374    -0.407662957342     1.144602245745
    C            2.879791299352    -0.667721767259     0.386962077188
    H            1.783289402947    -0.586668225540    -1.459715288415
    H            1.387396559387    -1.944966299247    -0.453830395269
    C            3.370924547522     0.777199237005     0.440820745833
    H            3.663425590446    -1.281088321846    -0.046629879049
    H            2.726824349608    -1.035126474473     1.398142122550
    H            3.514007573799     1.177639652366    -0.557665754025
    H            4.320551225347     0.838839508388     0.959573804616
    H            2.674917220802     1.424860585092     0.959669122554
    H           -3.498788157835    -1.226160808415     0.309653927314
    H           -3.695613653705     0.266081560741     1.236237480594
    H           -2.388164251502    -0.871854339162     1.609443490986

  Mulliken Charges: (a.u.)
   Center  Symbol    Alpha    Beta     Spin     Total
       1     O     4.17784  4.17784  0.00000 -0.35567
       2     C     2.85853  2.85853  0.00000  0.28295
       3     C     3.09711  3.09711  0.00000 -0.19423
       4     C     3.15530  3.15530  0.00000 -0.31059
       5     C     3.10475  3.10475  0.00000 -0.20950
       6     H     0.43905  0.43905  0.00000  0.12189
       7     H     0.44844  0.44844  0.00000  0.10312
       8     C     3.09699  3.09699  0.00000 -0.19397
       9     H     0.43825  0.43825  0.00000  0.12350
      10     H     0.45203  0.45203  0.00000  0.09595
      11     C     3.09071  3.09071  0.00000 -0.18142
      12     H     0.45026  0.45026  0.00000  0.09948
      13     H     0.44922  0.44922  0.00000  0.10156
      14     C     3.15297  3.15297  0.00000 -0.30593
      15     H     0.44784  0.44784  0.00000  0.10433
      16     H     0.45409  0.45409  0.00000  0.09182
      17     H     0.45336  0.45336  0.00000  0.09328
      18     H     0.44592  0.44592  0.00000  0.10815
      19     H     0.45220  0.45220  0.00000  0.09560
      20     H     0.44834  0.44834  0.00000  0.10332
      21     H     0.43606  0.43606  0.00000  0.12788
      22     H     0.45075  0.45075  0.00000  0.09849

   Total alpha = 32.00000, Total beta = 32.00000, Total charge = -0.00000

*** Psi4 exiting successfully. Buy a developer a beer!
