  ==> Input File <==

--------------------------------------------------------------------------
set {
	reference rhf
	basis cc-pvtz
}

set_num_threads( 4 )
memory 2 gb

molecule MOL {
0 1

H	 -0.530252	 1.622412	 -1.995117
C	 -1.238182	 1.186733	 -1.297506
O	 -0.775228	 0.000056	 -0.739966
H	 -2.140164	 0.944281	 -1.841379
H	 -1.486280	 1.929865	 -0.546616
C	 0.406133	 -0.000384	 0.036994
C	 1.526415	 -0.003194	 -0.997339
C	 0.498772	 1.259027	 0.900673
C	 0.495883	 -1.257378	 0.904465
H	 1.452279	 0.872071	 -1.630204
H	 1.451276	 -0.881020	 -1.626529
H	 2.497919	 -0.002741	 -0.517601
H	 0.368981	 2.144239	 0.289753
H	 1.470064	 1.313479	 1.377660
H	 -0.248448	 1.271586	 1.684297
H	 0.363971	 -2.144195	 0.296316
H	 1.467114	 -1.312636	 1.381470
H	 -0.251246	 -1.265768	 1.688235

	symmetry c1
}
set optking {
	frozen_dihedral = ("
		2 3 6 7
	")
}

ee = optimize('scf')
oeprop('DIPOLE', 'QUADRUPOLE', 'MULLIKEN_CHARGES')
f=open( 'psi4out.xyz', 'w' )
f.write( "18  " )
f.write( str(ee) + "\n" )
f.write( MOL.save_string_xyz() )
f.close()
--------------------------------------------------------------------------

    Molecular point group: c1
  Charge       = 0
  Multiplicity = 1
  Basis Set: CC-PVTZ
  Basis Set:
  @DF-RHF Final Energy:  -271.26995739422125
    Total Energy =                       -271.2699573942213078
    Molecular point group: c1
  Basis Set: CC-PVTZ
  Basis Set:
  Basis Set: CC-PVTZ
  Basis Set:
  @DF-RHF Final Energy:  -271.27408896843161
    Total Energy =                       -271.2740889684316699
  Basis Set: CC-PVTZ
  Basis Set:
  Basis Set: CC-PVTZ
  Basis Set:
  @DF-RHF Final Energy:  -271.27597038876115
    Total Energy =                       -271.2759703887610385
  Basis Set: CC-PVTZ
  Basis Set:
  Basis Set: CC-PVTZ
  Basis Set:
  @DF-RHF Final Energy:  -271.27620622476428
    Total Energy =                       -271.2762062247639960
  Basis Set: CC-PVTZ
  Basis Set:
  Basis Set: CC-PVTZ
  Basis Set:
  @DF-RHF Final Energy:  -271.27627756403922
    Total Energy =                       -271.2762775640394466
  Basis Set: CC-PVTZ
  Basis Set:
  Basis Set: CC-PVTZ
  Basis Set:
  @DF-RHF Final Energy:  -271.27628720664040
    Total Energy =                       -271.2762872066404043
  Basis Set: CC-PVTZ
  Basis Set:
  Charge       = 0
  Multiplicity = 1
  Basis Set: CC-PVTZ
  Basis Set:

    Orbital Energies (a.u.)
    -----------------------

    Doubly Occupied:

       1A    -20.540235     2A    -11.280136     3A    -11.258629
       4A    -11.209455     5A    -11.205069     6A    -11.201735
       7A     -1.373202     8A     -1.074700     9A     -0.948689
      10A     -0.939064    11A     -0.912908    12A     -0.753364
      13A     -0.656981    14A     -0.647345    15A     -0.639728
      16A     -0.591391    17A     -0.574953    18A     -0.552979
      19A     -0.535407    20A     -0.525701    21A     -0.515218
      22A     -0.490592    23A     -0.487056    24A     -0.441801
      25A     -0.405611

  @DF-RHF Final Energy:  -271.27628709700713

   => Energetics <=

    Nuclear Repulsion Energy =            272.6781905874822201
    One-Electron Energy =                -908.3850483268474818
    Two-Electron Energy =                 364.4305706423579068
    DFT Exchange-Correlation Energy =       0.0000000000000000
    Empirical Dispersion Energy =           0.0000000000000000
    PCM Polarization Energy =               0.0000000000000000
    EFP Energy =                            0.0000000000000000
    Total Energy =                       -271.2762870970072981
    Molecular point group: c1
  Basis Set: CC-PVTZ
  Basis Set:

  -Total Gradient:
     Atom            X                  Y                   Z
    ------   -----------------  -----------------  -----------------
       1       -0.000011560757     0.000015065895    -0.000003835031
       2       -0.000847070802     0.000408910252     0.001568696391
       3        0.001223555586    -0.001203011843    -0.002206229631
       4        0.000015317797     0.000026143722    -0.000003875085
       5       -0.000004481450     0.000033063731    -0.000025590221
       6       -0.000488414519     0.002200742267     0.000518283874
       7        0.000007726459    -0.001478130736     0.000078725200
       8        0.000048713528    -0.000022956853     0.000000640348
       9        0.000077213650     0.000007490068     0.000067830298
      10        0.000015630063    -0.000007334482    -0.000013368679
      11       -0.000000234125    -0.000016523696     0.000026954044
      12        0.000002973687     0.000024817428     0.000000870745
      13       -0.000016376680     0.000029003121    -0.000025140834
      14        0.000014770160     0.000015333328     0.000026428623
      15        0.000019020348    -0.000048460780    -0.000021548992
      16        0.000023295388     0.000063686316    -0.000034115499
      17       -0.000023989980    -0.000009041424     0.000053470699
      18       -0.000056088351    -0.000038796315    -0.000008196250

  **** Optimization is complete! (in 7 steps) ****
    Final optimized geometry and variables:
    Molecular point group: c1

    Geometry (in Angstrom), charge = 0, multiplicity = 1:

    H           -0.762327337248     1.395896872238    -1.728268790589
    C           -1.462386641860     0.914851614019    -1.051152789602
    O           -0.938491902853    -0.231659440581    -0.464149190550
    H           -2.325466411951     0.607005743606    -1.624336220704
    H           -1.785292010424     1.643391064325    -0.315054329223
    C            0.302884297351    -0.171182474811     0.212949372730
    C            1.443740808300    -0.216216004391    -0.804994039227
    C            0.417446253051     1.062662255812     1.108173682811
    C            0.325714505181    -1.433635565110     1.068813867387
    H            1.439134285584     0.654778483674    -1.449574089208
    H            1.350770232457    -1.097778828112    -1.426543289550
    H            2.404278165266    -0.248070654200    -0.303738445239
    H            0.463286513993     1.980999261377     0.536147231062
    H            1.322577344364     1.001226923603     1.699770214500
    H           -0.424986209365     1.122770785122     1.786916755596
    H            0.196053615814    -2.307636324026     0.443480011677
    H            1.264938957632    -1.525837639632     1.601517159617
    H           -0.481486127439    -1.413320729745     1.790321067368

  Mulliken Charges: (a.u.)
   Center  Symbol    Alpha    Beta     Spin     Total
       1     H     0.47023  0.47023  0.00000  0.05954
       2     C     3.04430  3.04430  0.00000 -0.08860
       3     O     4.19200  4.19200  0.00000 -0.38399
       4     H     0.44182  0.44182  0.00000  0.11637
       5     H     0.46697  0.46697  0.00000  0.06605
       6     C     2.87446  2.87446  0.00000  0.25109
       7     C     3.15427  3.15427  0.00000 -0.30854
       8     C     3.17113  3.17113  0.00000 -0.34227
       9     C     3.14141  3.14141  0.00000 -0.28283
      10     H     0.44977  0.44977  0.00000  0.10046
      11     H     0.44742  0.44742  0.00000  0.10515
      12     H     0.45180  0.45180  0.00000  0.09640
      13     H     0.44660  0.44660  0.00000  0.10679
      14     H     0.44531  0.44531  0.00000  0.10938
      15     H     0.44483  0.44483  0.00000  0.11034
      16     H     0.44788  0.44788  0.00000  0.10423
      17     H     0.45934  0.45934  0.00000  0.08132
      18     H     0.45045  0.45045  0.00000  0.09911

   Total alpha = 25.00000, Total beta = 25.00000, Total charge = -0.00000
