  ==> Input File <==

--------------------------------------------------------------------------
set {
	reference rhf
	basis cc-pvtz
}

set_num_threads( 4 )
memory 2 gb

molecule MOL {
0 1

H	 -2.169583	 -0.832760	 -1.529004
C	 -2.724719	 0.115082	 -1.546449
C	 -2.653809	 0.914422	 -0.273689
O	 -3.325090	 0.431119	 -2.514428
C	 -1.216901	 1.136108	 0.207794
H	 -3.172636	 1.851888	 -0.426366
H	 -3.199467	 0.349006	 0.478552
C	 -0.247837	 0.040196	 -0.230469
H	 -0.872882	 2.093195	 -0.169002
H	 -1.209325	 1.218376	 1.291938
C	 1.181757	 0.280428	 0.247371
H	 -0.259600	 -0.030819	 -1.314870
H	 -0.591284	 -0.923375	 0.136958
C	 2.151032	 -0.811012	 -0.202643
H	 1.515939	 1.247397	 -0.115449
H	 1.191514	 0.341223	 1.333422
C	 3.580021	 -0.656538	 0.320835
H	 2.170545	 -0.847575	 -1.289412
H	 1.766632	 -1.772905	 0.124928
C	 4.327657	 0.562694	 -0.213579
H	 4.138806	 -1.549270	 0.057813
H	 3.561991	 -0.620783	 1.406976
H	 4.355973	 0.557257	 -1.298551
H	 3.867136	 1.491650	 0.100501
H	 5.351524	 0.571613	 0.142204

	symmetry c1
}
set optking {
	frozen_dihedral = ("
		6 3 5 8
	")
}

ee = optimize('scf')
oeprop('DIPOLE', 'QUADRUPOLE', 'MULLIKEN_CHARGES')
f=open( 'psi4out.xyz', 'w' )
f.write( "25  " )
f.write( str(ee) + "\n" )
f.write( MOL.save_string_xyz() )
f.close()
--------------------------------------------------------------------------

    Molecular point group: c1
  Charge       = 0
  Multiplicity = 1
  Basis Set: CC-PVTZ
  Basis Set:
  @DF-RHF Final Energy:  -387.25196299581614
    Total Energy =                       -387.2519629958168252
    Molecular point group: c1
  Basis Set: CC-PVTZ
  Basis Set:
  Basis Set: CC-PVTZ
  Basis Set:
  @DF-RHF Final Energy:  -387.25240983493694
    Total Energy =                       -387.2524098349363157
  Basis Set: CC-PVTZ
  Basis Set:
  Basis Set: CC-PVTZ
  Basis Set:
  @DF-RHF Final Energy:  -387.25437186824388
    Total Energy =                       -387.2543718682429699
  Basis Set: CC-PVTZ
  Basis Set:
  Basis Set: CC-PVTZ
  Basis Set:
  @DF-RHF Final Energy:  -387.25400865863514
    Total Energy =                       -387.2540086586350299
  Basis Set: CC-PVTZ
  Basis Set:
  @DF-RHF Final Energy:  -387.25464403031106
    Total Energy =                       -387.2546440303102600
  @DF-RHF Final Energy:  -387.25507237811200
    Total Energy =                       -387.2550723781122315
  Basis Set: CC-PVTZ
  Basis Set:
  @DF-RHF Final Energy:  -387.25510851487843
    Total Energy =                       -387.2551085148777474
  Basis Set: CC-PVTZ
  Basis Set:
  Basis Set: CC-PVTZ
  Basis Set:
  @DF-RHF Final Energy:  -387.25514384572779
    Total Energy =                       -387.2551438457277300
  Basis Set: CC-PVTZ
  Basis Set:
  Basis Set: CC-PVTZ
  Basis Set:
  @DF-RHF Final Energy:  -387.25514562128927
    Total Energy =                       -387.2551456212891026
  Basis Set: CC-PVTZ
  Basis Set:
  Charge       = 0
  Multiplicity = 1
  Basis Set: CC-PVTZ
  Basis Set:

    Orbital Energies (a.u.)
    -----------------------

    Doubly Occupied:

       1A    -20.550293     2A    -11.319279     3A    -11.233329
       4A    -11.232738     5A    -11.225097     6A    -11.219013
       7A    -11.217292     8A    -11.216517     9A    -11.209103
      10A     -1.404934    11A     -1.104827    12A     -1.069357
      13A     -1.014056    14A     -0.943824    15A     -0.878106
      16A     -0.831873    17A     -0.783721    18A     -0.771717
      19A     -0.683445    20A     -0.656020    21A     -0.632258
      22A     -0.620741    23A     -0.613934    24A     -0.586450
      25A     -0.574130    26A     -0.562226    27A     -0.534766
      28A     -0.525012    29A     -0.513050    30A     -0.499653
      31A     -0.490758    32A     -0.475792    33A     -0.466558
      34A     -0.460694    35A     -0.444498    36A     -0.409100

  @DF-RHF Final Energy:  -387.25514509601760

   => Energetics <=

    Nuclear Repulsion Energy =            441.0695452246689001
    One-Electron Energy =               -1398.7010604406596030
    Two-Electron Energy =                 570.3763701199729894
    DFT Exchange-Correlation Energy =       0.0000000000000000
    Empirical Dispersion Energy =           0.0000000000000000
    PCM Polarization Energy =               0.0000000000000000
    EFP Energy =                            0.0000000000000000
    Total Energy =                       -387.2551450960177135
    Molecular point group: c1
  Basis Set: CC-PVTZ
  Basis Set:

  -Total Gradient:
     Atom            X                  Y                   Z
    ------   -----------------  -----------------  -----------------
       1        0.000022469105    -0.000015651384    -0.000004057134
       2       -0.000112193584     0.000093983925     0.000006060772
       3       -0.001367634950     0.000869110285     0.004481645613
       4        0.000039433334    -0.000024947941     0.000038926963
       5       -0.000518338476    -0.002544341169     0.003455600175
       6        0.001306412497    -0.000106697386    -0.004800325766
       7       -0.000016286819    -0.000021228768    -0.000009420597
       8        0.000615197176     0.001779419129    -0.003152444282
       9       -0.000023490500    -0.000022441686    -0.000031427879
      10        0.000021496645     0.000010645593     0.000009300883
      11        0.000015239675     0.000001486521     0.000003994203
      12        0.000013048588     0.000005499492     0.000004331362
      13       -0.000001353922     0.000000539570    -0.000009393294
      14        0.000002192183    -0.000030627187     0.000041764907
      15        0.000027078222     0.000038901435     0.000001692974
      16        0.000001574591    -0.000014607656    -0.000020237633
      17        0.000027248310    -0.000034609323    -0.000046546563
      18        0.000000212939    -0.000015715303     0.000008400830
      19       -0.000009326301     0.000006341998     0.000014377847
      20       -0.000023506087     0.000005900123     0.000010476418
      21        0.000011932364     0.000008082460    -0.000012685791
      22        0.000004426226    -0.000016391826    -0.000004482738
      23        0.000003716354    -0.000009484160     0.000011110140
      24       -0.000037702156     0.000026446929    -0.000006826357
      25       -0.000001845425     0.000010386331     0.000010164942

  **** Optimization is complete! (in 10 steps) ****
    Final optimized geometry and variables:
    Molecular point group: c1

    Geometry (in Angstrom), charge = 0, multiplicity = 1:

    H           -2.791629799131    -1.184678792066    -1.008534549411
    C           -2.992724075156    -0.108770187431    -1.049343087676
    C           -2.814982527169     0.649106564121     0.242084145500
    O           -3.335663488356     0.387109259099    -2.067497354045
    C           -1.337549236646     0.854824449178     0.645461619630
    H           -3.291386446758     1.607709716490     0.089670133271
    H           -3.343351480006     0.102361219752     1.017175138302
    C           -0.363384438755    -0.246722551505     0.226759650603
    H           -0.998055367259     1.785056957227     0.202840572330
    H           -1.290905571000     0.994484860887     1.719436649882
    C            1.057491625065     0.015428858139     0.719922995352
    H           -0.349945146185    -0.331296788751    -0.855922347214
    H           -0.699647570497    -1.208784138826     0.607050647591
    C            2.047348073550    -1.063591699240     0.285015439825
    H            1.381063981317     0.985488162904     0.356377297270
    H            1.053278608901     0.080688046709     1.805491794605
    C            3.467903583680    -0.885377851753     0.823682515370
    H            2.079898658094    -1.103920987248    -0.801274284613
    H            1.674005856238    -2.030072467523     0.612641980026
    C            4.199271461996     0.347734753063     0.298775187494
    H            4.044827401322    -1.767862609698     0.565206045697
    H            3.437708960421    -0.851659668220     1.909614189378
    H            4.239657975730     0.344097560919    -0.785749118162
    H            3.718699418844     1.267882208822     0.608587684708
    H            5.218740007392     0.374463722494     0.666034851813

  Mulliken Charges: (a.u.)
   Center  Symbol    Alpha    Beta     Spin     Total
       1     H     0.45988  0.45988  0.00000  0.08024
       2     C     2.90786  2.90786  0.00000  0.18427
       3     C     3.08732  3.08732  0.00000 -0.17464
       4     O     4.16718  4.16718  0.00000 -0.33437
       5     C     3.09890  3.09890  0.00000 -0.19780
       6     H     0.44021  0.44021  0.00000  0.11958
       7     H     0.44873  0.44873  0.00000  0.10254
       8     C     3.10528  3.10528  0.00000 -0.21057
       9     H     0.44630  0.44630  0.00000  0.10739
      10     H     0.44780  0.44780  0.00000  0.10440
      11     C     3.09292  3.09292  0.00000 -0.18584
      12     H     0.44570  0.44570  0.00000  0.10860
      13     H     0.45098  0.45098  0.00000  0.09805
      14     C     3.09514  3.09514  0.00000 -0.19028
      15     H     0.45038  0.45038  0.00000  0.09924
      16     H     0.45320  0.45320  0.00000  0.09360
      17     C     3.09104  3.09104  0.00000 -0.18208
      18     H     0.45240  0.45240  0.00000  0.09521
      19     H     0.44976  0.44976  0.00000  0.10048
      20     C     3.15260  3.15260  0.00000 -0.30520
      21     H     0.44779  0.44779  0.00000  0.10441
      22     H     0.45473  0.45473  0.00000  0.09054
      23     H     0.45401  0.45401  0.00000  0.09198
      24     H     0.45393  0.45393  0.00000  0.09214
      25     H     0.44594  0.44594  0.00000  0.10812

   Total alpha = 36.00000, Total beta = 36.00000, Total charge = -0.00000
