  ==> Input File <==

--------------------------------------------------------------------------
set {
	reference rhf
	basis 6-31G*
}

set_num_threads( 4 )
memory 2 gb

molecule MOL {
0 1

H	 -3.892951	 0.981613	 -0.358725
C	 -3.196921	 0.361773	 0.172313
C	 -2.076860	 -0.007332	 -0.404944
H	 -3.439953	 0.057760	 1.173024
O	 -1.683870	 -1.307510	 -0.449185
H	 -1.416807	 0.689035	 -0.891358
C	 -0.411031	 -1.593312	 -0.918276
C	 0.621606	 -1.516171	 0.183543
H	 -0.105365	 -0.924253	 -1.714909
H	 -0.418328	 -2.605507	 -1.294965
F	 1.812014	 -1.832411	 -0.305054
F	 0.706918	 -0.297869	 0.691767
F	 0.354674	 -2.345636	 1.171027

	symmetry c1
}
set optking {
	frozen_dihedral = ("
		6 3 2 1
	")
}

ee = optimize('scf')
oeprop('DIPOLE', 'QUADRUPOLE', 'MULLIKEN_CHARGES')
f=open( 'psi4out.xyz', 'w' )
f.write( "13  " )
f.write( str(ee) + "\n" )
f.write( MOL.save_string_xyz() )
f.close()
--------------------------------------------------------------------------

    Molecular point group: c1
  Charge       = 0
  Multiplicity = 1
  Basis Set: 6-31G*
  Basis Set:
  @DF-RHF Final Energy:  -527.48238349638018
    Total Energy =                       -527.4823834963801801
    Molecular point group: c1
  Basis Set: 6-31G*
  Basis Set:
  Basis Set: 6-31G*
  Basis Set:
  @DF-RHF Final Energy:  -527.50406424656512
    Total Energy =                       -527.5040642465652354
  Basis Set: 6-31G*
  Basis Set:
  Basis Set: 6-31G*
  Basis Set:
  @DF-RHF Final Energy:  -527.51696715889545
    Total Energy =                       -527.5169671588953406
  Basis Set: 6-31G*
  Basis Set:
  Basis Set: 6-31G*
  Basis Set:
  @DF-RHF Final Energy:  -527.51771695446200
    Total Energy =                       -527.5177169544620028
  Basis Set: 6-31G*
  Basis Set:
  Basis Set: 6-31G*
  Basis Set:
  @DF-RHF Final Energy:  -527.51777141930575
    Total Energy =                       -527.5177714193056318
  Basis Set: 6-31G*
  Basis Set:
  Basis Set: 6-31G*
  Basis Set:
  @DF-RHF Final Energy:  -527.51778461342735
    Total Energy =                       -527.5177846134281481
  Basis Set: 6-31G*
  Basis Set:
  Basis Set: 6-31G*
  Basis Set:
  @DF-RHF Final Energy:  -527.51778672806506
    Total Energy =                       -527.5177867280647206
  Basis Set: 6-31G*
  Basis Set:
  Charge       = 0
  Multiplicity = 1
  Basis Set: 6-31G*
  Basis Set:

    Orbital Energies (a.u.)
    -----------------------

    Doubly Occupied:

       1A    -26.344654     2A    -26.343765     3A    -26.340784
       4A    -20.608605     5A    -11.503349     6A    -11.318514
       7A    -11.304707     8A    -11.217706     9A     -1.741863
      10A     -1.639900    11A     -1.638469    12A     -1.438092
      13A     -1.084515    14A     -1.015486    15A     -0.924872
      16A     -0.837707    17A     -0.831063    18A     -0.822185
      19A     -0.793331    20A     -0.720808    21A     -0.711278
      22A     -0.694578    23A     -0.674861    24A     -0.660729
      25A     -0.654487    26A     -0.643216    27A     -0.637774
      28A     -0.582202    29A     -0.561224    30A     -0.517048
      31A     -0.511747    32A     -0.349918

  @DF-RHF Final Energy:  -527.51778686107355

   => Energetics <=

    Nuclear Repulsion Energy =            414.8838318873432058
    One-Electron Energy =               -1553.4643702691630551
    Two-Electron Energy =                 611.0627515207465876
    DFT Exchange-Correlation Energy =       0.0000000000000000
    Empirical Dispersion Energy =           0.0000000000000000
    PCM Polarization Energy =               0.0000000000000000
    EFP Energy =                            0.0000000000000000
    Total Energy =                       -527.5177868610733185
    Molecular point group: c1
  Basis Set: 6-31G*
  Basis Set:

  -Total Gradient:
     Atom            X                  Y                   Z
    ------   -----------------  -----------------  -----------------
       1       -0.015606214767    -0.014978809371    -0.010145230399
       2        0.029256395560     0.019634758174     0.022912452535
       3       -0.028759687680    -0.001148602255    -0.031620314306
       4        0.000052572384     0.000017816991     0.000036385661
       5       -0.000055831336    -0.000012923238    -0.000038218829
       6        0.015143680628    -0.003522896864     0.018868978148
       7       -0.000014136349     0.000014222071    -0.000011944736
       8        0.000001977910    -0.000021252289    -0.000015392654
       9       -0.000004305133    -0.000000263326    -0.000000922820
      10       -0.000006636454    -0.000000031804    -0.000003385130
      11       -0.000008431696     0.000003498335     0.000011483136
      12       -0.000006079902     0.000006628263     0.000004936153
      13        0.000006696839     0.000007855310     0.000001173240

  **** Optimization is complete! (in 8 steps) ****
    Final optimized geometry and variables:
    Molecular point group: c1

    Geometry (in Angstrom), charge = 0, multiplicity = 1:

    H           -3.345444906977     2.306056929450    -0.029865902404
    C           -2.705553463546     1.477096844699     0.211532338883
    C           -1.764339219270     1.058148629335    -0.618026336471
    H           -3.165132859666     0.737199746253     0.845673193701
    O           -1.353821549750    -0.240569699504    -0.565519020961
    H           -1.035998918029     1.701512655665    -1.082898654013
    C           -0.065707867677    -0.546575352779    -0.977997233251
    C            0.939130239037    -0.380002291251     0.139538502569
    H            0.254664240904     0.067836276262    -1.812474764324
    H           -0.055002495522    -1.582925582100    -1.281380799968
    F            2.140632840360    -0.735636691474    -0.291425775915
    F            1.015131832300     0.876080505560     0.547472868309
    F            0.645413129953    -1.125319980317     1.184711234347

  Mulliken Charges: (a.u.)
   Center  Symbol    Alpha    Beta     Spin     Total
       1     H     0.40651  0.40651  0.00000  0.18698
       2     C     3.22733  3.22733  0.00000 -0.45466
       3     C     2.90228  2.90228  0.00000  0.19544
       4     H     0.40574  0.40574  0.00000  0.18852
       5     O     4.29758  4.29758  0.00000 -0.59516
       6     H     0.40745  0.40745  0.00000  0.18510
       7     C     3.06422  3.06422  0.00000 -0.12843
       8     C     2.45590  2.45590  0.00000  1.08820
       9     H     0.40590  0.40590  0.00000  0.18819
      10     H     0.39062  0.39062  0.00000  0.21876
      11     F     4.68275  4.68275  0.00000 -0.36551
      12     F     4.67936  4.67936  0.00000 -0.35872
      13     F     4.67435  4.67435  0.00000 -0.34870

   Total alpha = 32.00000, Total beta = 32.00000, Total charge =  0.00000
