  ==> Input File <==

--------------------------------------------------------------------------
set {
	reference rhf
	basis 6-31G*
}

set_num_threads( 4 )
memory 2 gb

molecule MOL {
0 1

O	 -2.821601	 1.309235	 -0.001213
C	 -2.668563	 0.129746	 -0.000350
C	 -3.801572	 -0.864014	 -0.000442
O	 -1.481751	 -0.454642	 0.000584
H	 -4.417280	 -0.689587	 -0.874708
H	 -3.443784	 -1.883046	 -0.000565
H	 -4.417179	 -0.689832	 0.873954
C	 -0.334255	 0.388708	 0.000906
C	 0.891947	 -0.504646	 0.000751
H	 -0.365390	 1.025305	 -0.873475
H	 -0.365484	 1.024911	 0.875569
C	 2.191998	 0.301789	 0.000897
H	 0.855148	 -1.151283	 -0.871571
H	 0.855132	 -1.151660	 0.872805
C	 3.105129	 -0.039554	 -1.178087
H	 1.960433	 1.365242	 -0.022128
H	 2.728746	 0.126454	 0.931619
C	 4.403007	 0.766906	 -1.178635
H	 2.570445	 0.135426	 -2.108985
H	 3.339412	 -1.101468	 -1.155308
H	 4.202353	 1.833009	 -1.235003
H	 5.028557	 0.503052	 -2.025573
H	 4.977248	 0.586569	 -0.274347

	symmetry c1
}
set optking {
	frozen_dihedral = ("
		16 12 9 13
	")
}

ee = optimize('scf')
oeprop('DIPOLE', 'QUADRUPOLE', 'MULLIKEN_CHARGES')
f=open( 'psi4out.xyz', 'w' )
f.write( "23  " )
f.write( str(ee) + "\n" )
f.write( MOL.save_string_xyz() )
f.close()
--------------------------------------------------------------------------

    Molecular point group: c1
  Charge       = 0
  Multiplicity = 1
  Basis Set: 6-31G*
  Basis Set:
  @DF-RHF Final Energy:  -422.97441120597705
    Total Energy =                       -422.9744112059772760
    Molecular point group: c1
  Basis Set: 6-31G*
  Basis Set:
  Basis Set: 6-31G*
  Basis Set:
  @DF-RHF Final Energy:  -422.97461476056480
    Total Energy =                       -422.9746147605641227
  Basis Set: 6-31G*
  Basis Set:
  Basis Set: 6-31G*
  Basis Set:
  @DF-RHF Final Energy:  -422.97467254406973
    Total Energy =                       -422.9746725440700175
  Basis Set: 6-31G*
  Basis Set:
  Basis Set: 6-31G*
  Basis Set:
  @DF-RHF Final Energy:  -422.97459728257940
    Total Energy =                       -422.9745972825792251
  Basis Set: 6-31G*
  Basis Set:
  Basis Set: 6-31G*
  Basis Set:
  @DF-RHF Final Energy:  -422.97467530485858
    Total Energy =                       -422.9746753048583514
  Basis Set: 6-31G*
  Basis Set:
  Charge       = 0
  Multiplicity = 1
  Basis Set: 6-31G*
  Basis Set:

    Orbital Energies (a.u.)
    -----------------------

    Doubly Occupied:

       1A    -20.602975     2A    -20.540616     3A    -11.374202
       4A    -11.281951     5A    -11.232423     6A    -11.224163
       7A    -11.223603     8A    -11.221905     9A    -11.212717
      10A     -1.468079    11A     -1.360852    12A     -1.092292
      13A     -1.042004    14A     -1.002823    15A     -0.930198
      16A     -0.843668    17A     -0.801704    18A     -0.776675
      19A     -0.689044    20A     -0.684956    21A     -0.671136
      22A     -0.637598    23A     -0.611799    24A     -0.586334
      25A     -0.580423    26A     -0.570294    27A     -0.559275
      28A     -0.534031    29A     -0.525298    30A     -0.501708
      31A     -0.495877    32A     -0.478472    33A     -0.467784
      34A     -0.463363    35A     -0.450137    36A     -0.435384

  @DF-RHF Final Energy:  -422.97467532054310

   => Energetics <=

    Nuclear Repulsion Energy =            451.0797424002656157
    One-Electron Energy =               -1469.7573087694099740
    Two-Electron Energy =                 595.7028910486017139
    DFT Exchange-Correlation Energy =       0.0000000000000000
    Empirical Dispersion Energy =           0.0000000000000000
    PCM Polarization Energy =               0.0000000000000000
    EFP Energy =                            0.0000000000000000
    Total Energy =                       -422.9746753205427012
    Molecular point group: c1
  Basis Set: 6-31G*
  Basis Set:

  -Total Gradient:
     Atom            X                  Y                   Z
    ------   -----------------  -----------------  -----------------
       1        0.000011006106     0.000002429129     0.000038173366
       2       -0.000006320615    -0.000028060474    -0.000107163869
       3       -0.000007823203     0.000000562773     0.000041562590
       4       -0.000064536273     0.000003791921     0.000015328397
       5        0.000005359617     0.000002480497    -0.000001822634
       6       -0.000000545639     0.000000076827     0.000001029898
       7       -0.000008527135    -0.000004132521    -0.000001928936
       8        0.000020995830    -0.000011767993     0.000040612736
       9       -0.000421506898     0.000787920925    -0.000356578481
      10        0.000007010088    -0.000003847751     0.000000824907
      11        0.000014087128     0.000002287706    -0.000010875209
      12        0.000081323886    -0.000194434661    -0.000895474884
      13        0.000359969170    -0.000578962007     0.000413327361
      14       -0.000004939693     0.000014236674     0.000004447616
      15        0.000004244137    -0.000009735168     0.000018503216
      16       -0.000003370375     0.000014935044     0.000797852565
      17        0.000009842313    -0.000013956649    -0.000003265591
      18        0.000004771843     0.000013952831    -0.000009514136
      19       -0.000010991267    -0.000008210527     0.000010358615
      20        0.000002796292     0.000005915736     0.000011793826
      21        0.000003656038    -0.000001377318     0.000003385934
      22        0.000007164250     0.000006172771    -0.000005711287
      23       -0.000003665601    -0.000000277765    -0.000004865999

  **** Optimization is complete! (in 6 steps) ****
    Final optimized geometry and variables:
    Molecular point group: c1

    Geometry (in Angstrom), charge = 0, multiplicity = 1:

    O           -2.749916576690     1.188875862229     0.265205120002
    C           -2.599801155159     0.009014852904     0.265923249842
    C           -3.735295697227    -0.981867886218     0.269491475736
    O           -1.414280529072    -0.578200630709     0.264439319199
    H           -4.353339760280    -0.805979280570    -0.602825291592
    H           -3.380065001035    -2.001796249154     0.268374336755
    H           -4.347702040345    -0.806063738671     1.145812595501
    C           -0.264905245464     0.261633378547     0.262193239085
    C            0.960855759756    -0.632623485276     0.258469827633
    H           -0.294384130752     0.898447946468    -0.612410717789
    H           -0.291087057505     0.898241453443     1.136798542205
    C            2.273567296367     0.180920569453     0.252942589133
    H            0.913622653200    -1.283211753567    -0.609500406486
    H            0.916441583096    -1.283055628388     1.125743801965
    C            3.197763617123    -0.157924235227    -0.918752701835
    H            2.051009431357     1.246377642823     0.228780980203
    H            2.808725737166     0.018514781825     1.184331583062
    C            4.492213022249     0.653020474620    -0.910998184776
    H            2.667814175785     0.012828078786    -1.853529326701
    H            3.434252694794    -1.219350634317    -0.892083894068
    H            4.288198453551     1.718391538949    -0.970472731611
    H            5.125300805334     0.390216967560    -1.752651738954
    H            5.060181052125     0.476273510519    -0.001960420540

  Mulliken Charges: (a.u.)
   Center  Symbol    Alpha    Beta     Spin     Total
       1     O     4.28379  4.28379  0.00000 -0.56759
       2     C     2.61549  2.61549  0.00000  0.76902
       3     C     3.28776  3.28776  0.00000 -0.57553
       4     O     4.31238  4.31238  0.00000 -0.62475
       5     H     0.39750  0.39750  0.00000  0.20500
       6     H     0.39987  0.39987  0.00000  0.20027
       7     H     0.39747  0.39747  0.00000  0.20505
       8     C     3.00018  3.00018  0.00000 -0.00036
       9     C     3.16596  3.16596  0.00000 -0.33191
      10     H     0.41067  0.41067  0.00000  0.17865
      11     H     0.41009  0.41009  0.00000  0.17982
      12     C     3.16410  3.16410  0.00000 -0.32820
      13     H     0.41158  0.41158  0.00000  0.17685
      14     H     0.41169  0.41169  0.00000  0.17661
      15     C     3.15302  3.15302  0.00000 -0.30603
      16     H     0.41888  0.41888  0.00000  0.16225
      17     H     0.41692  0.41692  0.00000  0.16616
      18     C     3.24077  3.24077  0.00000 -0.48153
      19     H     0.42174  0.42174  0.00000  0.15653
      20     H     0.42076  0.42076  0.00000  0.15848
      21     H     0.42057  0.42057  0.00000  0.15887
      22     H     0.41786  0.41786  0.00000  0.16428
      23     H     0.42096  0.42096  0.00000  0.15808

   Total alpha = 36.00000, Total beta = 36.00000, Total charge =  0.00000
