  ==> Input File <==

--------------------------------------------------------------------------
set {
	reference rhf
	basis 6-31G*
}

set_num_threads( 4 )
memory 2 gb

molecule MOL {
0 1

O	 0.749854	 1.307668	 -0.000040
C	 0.576249	 0.131685	 -0.000108
C	 -0.766779	 -0.556801	 -0.000461
O	 1.568443	 -0.749345	 -0.000005
C	 -1.945214	 0.412366	 0.000161
H	 -0.796911	 -1.211249	 -0.867467
H	 -0.796854	 -1.212390	 0.865687
C	 -3.249975	 -0.270812	 -0.406575
H	 -1.732421	 1.235143	 -0.673902
H	 -2.048577	 0.849557	 0.987458
H	 -3.182103	 -0.690296	 -1.406515
H	 -4.074448	 0.434600	 -0.400356
H	 -3.502344	 -1.079379	 0.273869
C	 2.886820	 -0.232538	 0.000322
H	 3.059106	 0.369571	 -0.880203
H	 3.540187	 -1.091012	 0.000050
H	 3.059019	 0.368956	 0.881266

	symmetry c1
}
set optking {
	frozen_dihedral = ("
		9 5 3 6
	")
}

ee = optimize('scf')
oeprop('DIPOLE', 'QUADRUPOLE', 'MULLIKEN_CHARGES')
f=open( 'psi4out.xyz', 'w' )
f.write( "17  " )
f.write( str(ee) + "\n" )
f.write( MOL.save_string_xyz() )
f.close()
--------------------------------------------------------------------------

    Molecular point group: c1
  Charge       = 0
  Multiplicity = 1
  Basis Set: 6-31G*
  Basis Set:
  @DF-RHF Final Energy:  -344.90591868318228
    Total Energy =                       -344.9059186831826196
    Molecular point group: c1
  Basis Set: 6-31G*
  Basis Set:
  Basis Set: 6-31G*
  Basis Set:
  @DF-RHF Final Energy:  -344.90602422000268
    Total Energy =                       -344.9060242200027346
  Basis Set: 6-31G*
  Basis Set:
  Basis Set: 6-31G*
  Basis Set:
  @DF-RHF Final Energy:  -344.90603918158416
    Total Energy =                       -344.9060391815844469
  Basis Set: 6-31G*
  Basis Set:
  Basis Set: 6-31G*
  Basis Set:
  @DF-RHF Final Energy:  -344.90596893580528
    Total Energy =                       -344.9059689358056175
  Basis Set: 6-31G*
  Basis Set:
  Basis Set: 6-31G*
  Basis Set:
  @DF-RHF Final Energy:  -344.90605143574163
    Total Energy =                       -344.9060514357415741
  Basis Set: 6-31G*
  Basis Set:
  Charge       = 0
  Multiplicity = 1
  Basis Set: 6-31G*
  Basis Set:

    Orbital Energies (a.u.)
    -----------------------

    Doubly Occupied:

       1A    -20.604188     2A    -20.546146     3A    -11.373117
       4A    -11.281231     5A    -11.235917     6A    -11.221596
       7A    -11.214748     8A     -1.469992     9A     -1.363453
      10A     -1.080108    11A     -1.001696    12A     -0.939874
      13A     -0.827722    14A     -0.767579    15A     -0.701405
      16A     -0.683148    17A     -0.672577    18A     -0.635173
      19A     -0.596071    20A     -0.574641    21A     -0.568861
      22A     -0.528014    23A     -0.522122    24A     -0.498741
      25A     -0.487185    26A     -0.476554    27A     -0.456612
      28A     -0.439003

  @DF-RHF Final Energy:  -344.90605166427957

   => Energetics <=

    Nuclear Repulsion Energy =            312.4208404994716943
    One-Electron Energy =               -1089.1188364864251525
    Two-Electron Energy =                 431.7919443226736007
    DFT Exchange-Correlation Energy =       0.0000000000000000
    Empirical Dispersion Energy =           0.0000000000000000
    PCM Polarization Energy =               0.0000000000000000
    EFP Energy =                            0.0000000000000000
    Total Energy =                       -344.9060516642798007
    Molecular point group: c1
  Basis Set: 6-31G*
  Basis Set:

  -Total Gradient:
     Atom            X                  Y                   Z
    ------   -----------------  -----------------  -----------------
       1       -0.000016277815    -0.000015167793     0.000002795951
       2       -0.000005160185     0.000034616289    -0.000029025111
       3        0.002133498442     0.002637547324    -0.001319594507
       4       -0.000004720242    -0.000017826450     0.000010440298
       5       -0.001804835658    -0.002218629144    -0.002147381278
       6       -0.001471023643    -0.001826983163     0.001441234244
       7       -0.000003219078    -0.000005012269    -0.000000223954
       8        0.000006012257    -0.000006962200    -0.000013083846
       9        0.001154709200     0.001395369641     0.002041923907
      10        0.000000322806     0.000010782775     0.000012493949
      11       -0.000006896229     0.000001124010    -0.000004642365
      12        0.000008514234     0.000004959534     0.000006519276
      13        0.000013856274     0.000004777225    -0.000002008598
      14       -0.000003169521     0.000002399240     0.000001630696
      15       -0.000000534746     0.000000029972    -0.000000680642
      16       -0.000002106601    -0.000000990642    -0.000000271864
      17        0.000001030501    -0.000000034348    -0.000000126159

  **** Optimization is complete! (in 6 steps) ****
    Final optimized geometry and variables:
    Molecular point group: c1

    Geometry (in Angstrom), charge = 0, multiplicity = 1:

    O            0.752278987582     1.303338840690     0.061412041786
    C            0.574388613239     0.128054347725     0.051404383311
    C           -0.769609149607    -0.556666702260     0.029083333592
    O            1.563311304856    -0.756451904697     0.061813139328
    C           -1.954842295054     0.407071422298     0.037038943415
    H           -0.799447113033    -1.215165773015    -0.834943488206
    H           -0.805962008628    -1.221390370385     0.888272570450
    C           -3.268236646590    -0.284579850611    -0.321046267041
    H           -1.755588658317     1.230266720725    -0.639108900449
    H           -2.035503383963     0.856456672079     1.022441752121
    H           -3.235599711864    -0.696677048256    -1.325704725011
    H           -4.097966514171     0.413188596328    -0.276887824925
    H           -3.486191183215    -1.099950262473     0.363257373088
    C            2.883377368199    -0.244366356568     0.084098037405
    H            3.070640469603     0.361874382965    -0.790478692895
    H            3.533653403298    -1.105201380784     0.088637335840
    H            3.044749664897     0.351661984132     0.970773720419

  Mulliken Charges: (a.u.)
   Center  Symbol    Alpha    Beta     Spin     Total
       1     O     4.28565  4.28565  0.00000 -0.57130
       2     C     2.60659  2.60659  0.00000  0.78682
       3     C     3.20728  3.20728  0.00000 -0.41455
       4     O     4.30659  4.30659  0.00000 -0.61319
       5     C     3.15341  3.15341  0.00000 -0.30683
       6     H     0.40079  0.40079  0.00000  0.19842
       7     H     0.40034  0.40034  0.00000  0.19932
       8     C     3.24289  3.24289  0.00000 -0.48578
       9     H     0.40554  0.40554  0.00000  0.18893
      10     H     0.41468  0.41468  0.00000  0.17064
      11     H     0.42075  0.42075  0.00000  0.15851
      12     H     0.41522  0.41522  0.00000  0.16956
      13     H     0.42154  0.42154  0.00000  0.15693
      14     C     3.09245  3.09245  0.00000 -0.18489
      15     H     0.40899  0.40899  0.00000  0.18202
      16     H     0.40834  0.40834  0.00000  0.18332
      17     H     0.40896  0.40896  0.00000  0.18207

   Total alpha = 28.00000, Total beta = 28.00000, Total charge = -0.00000
