                              Psi4 1.0.54 Driver

  ==> Input File <==

--------------------------------------------------------------------------
set {
	reference rhf
	basis cc-pvtz
}

set_num_threads( 4 )
memory 2 gb

molecule MOL {
0 1

O	 1.208706	 1.382554	 0.231811
C	 0.860843	 0.273204	 -0.013120
C	 -0.623368	 -0.117453	 -0.005652
C	 1.897080	 -0.785720	 -0.333924
C	 -0.892588	 -1.253841	 -1.002900
C	 -1.473463	 1.100646	 -0.372896
C	 -0.981836	 -0.579025	 1.418506
H	 -0.609333	 -0.970024	 -2.010649
H	 -1.950451	 -1.487353	 -1.013175
H	 -0.360848	 -2.161259	 -0.746463
H	 -1.232203	 1.461623	 -1.364827
H	 -2.524364	 0.834451	 -0.354500
H	 -1.312381	 1.914833	 0.318657
H	 -2.035706	 -0.826342	 1.468082
H	 -0.425078	 -1.458934	 1.716857
H	 -0.788494	 0.205047	 2.140903
H	 1.928421	 -0.939735	 -1.406799
H	 2.863720	 -0.435906	 -0.005737
H	 1.673093	 -1.738478	 0.125765

	symmetry c1
}
set optking {
	frozen_dihedral = ("
		1 2 3 5
	")
}

ee,wfn = optimize('scf', return_wfn=True)
oeprop( wfn, 'DIPOLE', 'QUADRUPOLE', 'MULLIKEN_CHARGES')
f=open( 'psi4out.xyz', 'w' )
f.write( "19  " )
f.write( str(ee) + "\n" )
f.write( MOL.save_string_xyz() )
f.close()
--------------------------------------------------------------------------

    Molecular point group: c1
  Charge       = 0
  Multiplicity = 1
  Basis Set: CC-PVTZ
  Basis Set:
  @DF-RHF Final Energy:  -309.17350433067594
    Total Energy =                       -309.1735043306761099
    Molecular point group: c1
  Basis Set: CC-PVTZ
  Basis Set:
  Basis Set: CC-PVTZ
  Basis Set:
  @DF-RHF Final Energy:  -309.00073755040961
    Total Energy =                       -309.0007375504093261
  Basis Set: CC-PVTZ
  Basis Set:
  Basis Set: CC-PVTZ
  Basis Set:
  @DF-RHF Final Energy:  -309.11394689459468
    Total Energy =                       -309.1139468945947328
  Basis Set: CC-PVTZ
  Basis Set:
  Basis Set: CC-PVTZ
  Basis Set:
  @DF-RHF Final Energy:  -309.16863913689139
    Total Energy =                       -309.1686391368916702
  Basis Set: CC-PVTZ
  Basis Set:
  @DF-RHF Final Energy:  -309.17238589473737
    Total Energy =                       -309.1723858947373742
  @DF-RHF Final Energy:  -308.99286961849731
    Total Energy =                       -308.9928696184973660
  @DF-RHF Final Energy:  -309.13548958824680
    Total Energy =                       -309.1354895882467986
  @DF-RHF Final Energy:  -309.17144188334476
    Total Energy =                       -309.1714418833444142
  @DF-RHF Final Energy:  -309.17165771020319
    Total Energy =                       -309.1716577102034762
  @DF-RHF Final Energy:  -309.17372618188875
    Total Energy =                       -309.1737261818886964
  @DF-RHF Final Energy:  -309.17396316198034
    Total Energy =                       -309.1739631619804527
  @DF-RHF Final Energy:  -309.17398376491099
    Total Energy =                       -309.1739837649114406
  Basis Set: CC-PVTZ
  Basis Set:
  @DF-RHF Final Energy:  -309.17400903411078
    Total Energy =                       -309.1740090341107816
  Basis Set: CC-PVTZ
  Basis Set:
  Basis Set: CC-PVTZ
  Basis Set:
  @DF-RHF Final Energy:  -309.17400805124180
    Total Energy =                       -309.1740080512419695
  Basis Set: CC-PVTZ
  Basis Set:
  Basis Set: CC-PVTZ
  Basis Set:
  @DF-RHF Final Energy:  -309.17401382586485
    Total Energy =                       -309.1740138258649040
  Basis Set: CC-PVTZ
  Basis Set:
  Charge       = 0
  Multiplicity = 1
  Basis Set: CC-PVTZ
  Basis Set:

    Orbital Energies (a.u.)
    -----------------------

    Doubly Occupied:

       1A    -20.536975     2A    -11.318037     3A    -11.245681
       4A    -11.225583     5A    -11.221385     6A    -11.221053
       7A    -11.207772     8A     -1.398286     9A     -1.110461
      10A     -1.003782    11A     -0.946494    12A     -0.936934
      13A     -0.835214    14A     -0.705535    15A     -0.666807
      16A     -0.634192    17A     -0.622591    18A     -0.595655
      19A     -0.590657    20A     -0.568226    21A     -0.547561
      22A     -0.546610    23A     -0.525367    24A     -0.514221
      25A     -0.502896    26A     -0.473306    27A     -0.465915
      28A     -0.394224

  @DF-RHF Final Energy:  -309.17401379497301

   => Energetics <=

    Nuclear Repulsion Energy =            326.9305570108444954
    One-Electron Energy =               -1067.0863065016642395
    Two-Electron Energy =                 430.9817356958467940
    DFT Exchange-Correlation Energy =       0.0000000000000000
    Empirical Dispersion Energy =           0.0000000000000000
    PCM Polarization Energy =               0.0000000000000000
    EFP Energy =                            0.0000000000000000
    Total Energy =                       -309.1740137949729501
    Molecular point group: c1
  Basis Set: CC-PVTZ
  Basis Set:

  -Total Gradient:
     Atom            X                  Y                   Z
    ------   -----------------  -----------------  -----------------
       1       -0.000878743263     0.000000935273     0.000616559598
       2        0.001071460285    -0.000106330328    -0.000645259520
       3        0.000211081384     0.000442108397    -0.000546235607
       4        0.000014051117    -0.000009594183     0.000001302853
       5       -0.000400522417    -0.000324646068     0.000565410158
       6       -0.000007638202     0.000004792395    -0.000003142302
       7       -0.000006256351     0.000002570724     0.000003528959
       8       -0.000005140441    -0.000003585196     0.000000375804
       9        0.000002200964     0.000009441996     0.000005837810
      10        0.000000538513     0.000003781819     0.000000247764
      11        0.000018932905     0.000008009584    -0.000003793740
      12        0.000008361748    -0.000015220116    -0.000011282284
      13       -0.000015070161    -0.000001498858     0.000005700514
      14       -0.000002326414    -0.000005274726    -0.000001833375
      15        0.000001151915    -0.000001324073     0.000011278613
      16       -0.000010790816     0.000011831286    -0.000001787355
      17        0.000003419128    -0.000011388797    -0.000004846068
      18       -0.000000690243     0.000004990304     0.000002879320
      19       -0.000004019651    -0.000009599435     0.000005058860

  **** Optimization is complete! (in 16 steps) ****
    Final optimized geometry and variables:
    Molecular point group: c1

    Geometry (in Angstrom), charge = 0, multiplicity = 1:

    O            0.368505582998     1.732613886335     0.520455680752
    C            0.432288339639     0.547295221308     0.576296155503
    C           -0.294595538666    -0.328505629904    -0.455700405605
    C            1.190922276643    -0.116145263124     1.706710417540
    C            0.430304606303    -1.658082821065    -0.701332949655
    C           -0.423900675026     0.439657980748    -1.773708780239
    C           -1.696834836762    -0.606455814310     0.117523555886
    H            1.439758118966    -1.500312383219    -1.065252548458
    H           -0.101622365470    -2.227992537743    -1.453590243403
    H            0.485624607463    -2.269155167487     0.190318342711
    H            0.550352532639     0.661292373246    -2.193752032658
    H           -0.973442737607    -0.155044685962    -2.494734842293
    H           -0.941719502626     1.376209819630    -1.631267600916
    H           -2.264560378322    -1.214916255778    -0.576779788895
    H           -1.650063584173    -1.140763492166     1.059900367656
    H           -2.237470890233     0.317519328630     0.278998841779
    H            2.085901490072    -0.592506257328     1.323883379896
    H            1.469757658674     0.637016457962     2.427124660736
    H            0.597113108001    -0.882814012183     2.188285653192

  Mulliken Charges: (a.u.)
   Center  Symbol    Alpha    Beta     Spin     Total
       1     O     4.17827  4.17827  0.00000 -0.35654
       2     C     2.85004  2.85004  0.00000  0.29992
       3     C     3.00713  3.00713  0.00000 -0.01427
       4     C     3.16457  3.16457  0.00000 -0.32914
       5     C     3.16508  3.16508  0.00000 -0.33015
       6     C     3.15160  3.15160  0.00000 -0.30320
       7     C     3.15611  3.15611  0.00000 -0.31222
       8     H     0.44396  0.44396  0.00000  0.11209
       9     H     0.44266  0.44266  0.00000  0.11469
      10     H     0.44565  0.44565  0.00000  0.10869
      11     H     0.44885  0.44885  0.00000  0.10231
      12     H     0.45162  0.45162  0.00000  0.09676
      13     H     0.43633  0.43633  0.00000  0.12734
      14     H     0.44668  0.44668  0.00000  0.10664
      15     H     0.44730  0.44730  0.00000  0.10540
      16     H     0.43990  0.43990  0.00000  0.12020
      17     H     0.44612  0.44612  0.00000  0.10776
      18     H     0.43176  0.43176  0.00000  0.13649
      19     H     0.44638  0.44638  0.00000  0.10724

   Total alpha = 28.00000, Total beta = 28.00000, Total charge = -0.00000

*** Psi4 exiting successfully. Buy a developer a beer!
