  ==> Input File <==

--------------------------------------------------------------------------
set {
	reference rhf
	basis 6-31G*
}

set_num_threads( 4 )
memory 2 gb

molecule MOL {
0 1

H	 0.464437	 1.696384	 4.613890
C	 -0.149164	 0.789529	 4.545120
C	 -1.124128	 0.765429	 3.395566
O	 -0.018688	 -0.081720	 5.342398
C	 -0.452639	 1.064093	 2.047917
H	 -1.620980	 -0.197793	 3.388530
H	 -1.875885	 1.527427	 3.597743
C	 0.527923	 -0.022881	 1.600384
H	 -1.227518	 1.182532	 1.296372
H	 0.062155	 2.021935	 2.105213
C	 1.180775	 0.282413	 0.250794
H	 0.002842	 -0.974113	 1.542968
H	 1.303667	 -0.152573	 2.352674
C	 2.148627	 -0.814315	 -0.201312
H	 0.401222	 0.421140	 -0.494045
H	 1.715484	 1.229174	 0.314924
C	 3.580890	 -0.659131	 0.322722
H	 2.166869	 -0.852443	 -1.289387
H	 1.762857	 -1.776509	 0.128956
C	 4.324889	 0.564933	 -0.213704
H	 4.142010	 -1.551473	 0.056605
H	 3.564836	 -0.624694	 1.410140
H	 4.342616	 0.565491	 -1.300421
H	 3.866655	 1.493402	 0.110242
H	 5.353900	 0.572371	 0.132816

	symmetry c1
}
set optking {
	frozen_dihedral = ("
		8 11 14 18
	")
}

ee = optimize('scf')
oeprop('DIPOLE', 'QUADRUPOLE', 'MULLIKEN_CHARGES')
f=open( 'psi4out.xyz', 'w' )
f.write( "25  " )
f.write( str(ee) + "\n" )
f.write( MOL.save_string_xyz() )
f.close()
--------------------------------------------------------------------------

    Molecular point group: c1
  Charge       = 0
  Multiplicity = 1
  Basis Set: 6-31G*
  Basis Set:
  @DF-RHF Final Energy:  -387.11864079368536
    Total Energy =                       -387.1186407936855858
    Molecular point group: c1
  Basis Set: 6-31G*
  Basis Set:
  Basis Set: 6-31G*
  Basis Set:
  @DF-RHF Final Energy:  -387.11874483781457
    Total Energy =                       -387.1187448378143472
  Basis Set: 6-31G*
  Basis Set:
  Basis Set: 6-31G*
  Basis Set:
  @DF-RHF Final Energy:  -387.11895750606601
    Total Energy =                       -387.1189575060666357
  Basis Set: 6-31G*
  Basis Set:
  Basis Set: 6-31G*
  Basis Set:
  @DF-RHF Final Energy:  -387.11907022916756
    Total Energy =                       -387.1190702291669368
  Basis Set: 6-31G*
  Basis Set:
  @DF-RHF Final Energy:  -387.11913559676555
    Total Energy =                       -387.1191355967661138
  @DF-RHF Final Energy:  -387.11914926210017
    Total Energy =                       -387.1191492621005636
  Basis Set: 6-31G*
  Basis Set:
  @DF-RHF Final Energy:  -387.11914252030834
    Total Energy =                       -387.1191425203084009
  Basis Set: 6-31G*
  Basis Set:
  Basis Set: 6-31G*
  Basis Set:
  @DF-RHF Final Energy:  -387.11914701822781
    Total Energy =                       -387.1191470182272951
  Basis Set: 6-31G*
  Basis Set:
  Basis Set: 6-31G*
  Basis Set:
  @DF-RHF Final Energy:  -387.11915086618018
    Total Energy =                       -387.1191508661801208
  Basis Set: 6-31G*
  Basis Set:
  Charge       = 0
  Multiplicity = 1
  Basis Set: 6-31G*
  Basis Set:

    Orbital Energies (a.u.)
    -----------------------

    Doubly Occupied:

       1A    -20.562151     2A    -11.326292     3A    -11.235373
       4A    -11.234732     5A    -11.223858     6A    -11.219902
       7A    -11.217858     8A    -11.216883     9A    -11.210529
      10A     -1.402086    11A     -1.103732    12A     -1.068659
      13A     -1.012129    14A     -0.942799    15A     -0.874362
      16A     -0.827110    17A     -0.788322    18A     -0.775605
      19A     -0.665273    20A     -0.660325    21A     -0.632156
      22A     -0.623182    23A     -0.609727    24A     -0.589692
      25A     -0.568856    26A     -0.558062    27A     -0.535672
      28A     -0.521329    29A     -0.513841    30A     -0.497487
      31A     -0.488354    32A     -0.481944    33A     -0.458806
      34A     -0.453290    35A     -0.445226    36A     -0.409658

  @DF-RHF Final Energy:  -387.11915084622643

   => Energetics <=

    Nuclear Repulsion Energy =            444.7594163076801692
    One-Electron Energy =               -1405.8466088169948307
    Two-Electron Energy =                 573.9680416630880018
    DFT Exchange-Correlation Energy =       0.0000000000000000
    Empirical Dispersion Energy =           0.0000000000000000
    PCM Polarization Energy =               0.0000000000000000
    EFP Energy =                            0.0000000000000000
    Total Energy =                       -387.1191508462267166
    Molecular point group: c1
  Basis Set: 6-31G*
  Basis Set:

  -Total Gradient:
     Atom            X                  Y                   Z
    ------   -----------------  -----------------  -----------------
       1       -0.000008339672     0.000005096672     0.000007290405
       2        0.000029856996    -0.000017985262    -0.000021993926
       3        0.000007269290     0.000010493629     0.000001011906
       4       -0.000013073769     0.000006528847     0.000009239063
       5       -0.000009833661    -0.000001811545    -0.000004594850
       6        0.000002008236     0.000001868399    -0.000000383425
       7       -0.000004694631     0.000000524748     0.000001518459
       8       -0.001469686716    -0.000979838744    -0.000938938177
       9       -0.000010205169     0.000001410704     0.000003293789
      10        0.000000339186    -0.000004519406    -0.000005304767
      11        0.001609874397     0.000902277198     0.001319375102
      12        0.000004980212    -0.000002592240    -0.000008530247
      13       -0.000001197004    -0.000003584639     0.000005387959
      14        0.001893639431     0.001939460249    -0.000373480187
      15        0.000000884562    -0.000007839057    -0.000002374900
      16        0.000017304609     0.000011203207    -0.000008012451
      17       -0.000005246152    -0.000001143299    -0.000017022852
      18       -0.002009356116    -0.001852816112     0.000023513675
      19       -0.000006960496    -0.000008173434     0.000002994520
      20       -0.000008696539    -0.000001775975     0.000003401015
      21       -0.000006446256    -0.000006848968     0.000000177517
      22       -0.000002605323     0.000008508863    -0.000002136832
      23       -0.000000230259    -0.000001970231     0.000002239153
      24       -0.000011040016     0.000004972441    -0.000000800744
      25        0.000001454865    -0.000001446045     0.000004130785

  **** Optimization is complete! (in 10 steps) ****
    Final optimized geometry and variables:
    Molecular point group: c1

    Geometry (in Angstrom), charge = 0, multiplicity = 1:

    H           -0.687995680232     1.438551088815     2.758004827564
    C           -1.310224340240     0.540560620638     2.656583439216
    C           -2.268723735292     0.557630720529     1.493101758320
    O           -1.204390831325    -0.350059168124     3.435986808389
    C           -1.572347447542     0.873113080400     0.161857537675
    H           -2.781100380451    -0.396859629177     1.458192349838
    H           -3.010665288252     1.327618677116     1.700741915844
    C           -0.606989214933    -0.222511875379    -0.297321611607
    H           -2.333914842662     1.024493149364    -0.597762682200
    H           -1.039762257703     1.818743108590     0.248350932261
    C            0.047204133444     0.089266900346    -1.646221118812
    H           -1.146660387418    -1.163918205878    -0.372307057743
    H            0.160840424087    -0.375450070234     0.458690782844
    C            1.044450836447    -0.988388461584    -2.105220652604
    H           -0.740040767162     0.184897843526    -2.390723375806
    H            0.533346578637     1.060371330950    -1.601326760288
    C            2.473356534023    -0.825609926086    -1.571446031554
    H            1.066451567457    -1.025441680610    -3.191884401378
    H            0.665024797974    -1.959591906567    -1.794352714591
    C            3.251077298689     0.328696089651    -2.206253809157
    H            3.017265062419    -1.749373329052    -1.751246526007
    H            2.449627238451    -0.697309438853    -0.491573109438
    H            3.325523166946     0.200533651001    -3.282580121506
    H            2.781209019937     1.289275762490    -2.021010075949
    H            4.260316467930     0.378933743999    -1.809261973118

  Mulliken Charges: (a.u.)
   Center  Symbol    Alpha    Beta     Spin     Total
       1     H     0.43264  0.43264  0.00000  0.13473
       2     C     2.83088  2.83088  0.00000  0.33823
       3     C     3.20803  3.20803  0.00000 -0.41605
       4     O     4.23778  4.23778  0.00000 -0.47556
       5     C     3.16670  3.16670  0.00000 -0.33339
       6     H     0.39971  0.39971  0.00000  0.20058
       7     H     0.40666  0.40666  0.00000  0.18668
       8     C     3.15604  3.15604  0.00000 -0.31207
       9     H     0.41284  0.41284  0.00000  0.17432
      10     H     0.41967  0.41967  0.00000  0.16067
      11     C     3.15595  3.15595  0.00000 -0.31191
      12     H     0.41779  0.41779  0.00000  0.16442
      13     H     0.41790  0.41790  0.00000  0.16420
      14     C     3.15705  3.15705  0.00000 -0.31409
      15     H     0.42074  0.42074  0.00000  0.15851
      16     H     0.42122  0.42122  0.00000  0.15756
      17     C     3.15431  3.15431  0.00000 -0.30861
      18     H     0.42062  0.42062  0.00000  0.15876
      19     H     0.42004  0.42004  0.00000  0.15992
      20     C     3.24022  3.24022  0.00000 -0.48044
      21     H     0.41950  0.41950  0.00000  0.16099
      22     H     0.42181  0.42181  0.00000  0.15638
      23     H     0.42158  0.42158  0.00000  0.15683
      24     H     0.42179  0.42179  0.00000  0.15641
      25     H     0.41853  0.41853  0.00000  0.16294

   Total alpha = 36.00000, Total beta = 36.00000, Total charge = -0.00000
