  ==> Input File <==

--------------------------------------------------------------------------
set {
	reference rhf
	basis cc-pvtz
}

set_num_threads( 4 )
memory 2 gb

molecule MOL {
0 1

H	 2.100503	 -0.596456	 -0.891662
O	 2.063695	 -0.083403	 -0.105237
C	 0.742924	 0.005675	 0.350750
H	 0.731380	 0.039219	 1.440080
C	 -0.064076	 -1.193495	 -0.124425
C	 -0.047832	 1.190568	 -0.194462
H	 0.194729	 -1.376165	 -1.161308
H	 0.163013	 -2.094508	 0.429933
C	 -1.533112	 -0.752002	 0.006102
H	 0.148003	 1.266545	 -1.259275
H	 0.226235	 2.136493	 0.259722
C	 -1.506634	 0.799189	 0.067162
H	 -2.124360	 -1.110499	 -0.826089
H	 -1.983103	 -1.158030	 0.903403
H	 -2.183808	 1.252169	 -0.644677
H	 -1.813926	 1.138698	 1.049457

	symmetry c1
}
set optking {
	frozen_dihedral = ("
		1 2 3 6
	")
}

ee = optimize('scf')
oeprop('DIPOLE', 'QUADRUPOLE', 'MULLIKEN_CHARGES')
f=open( 'psi4out.xyz', 'w' )
f.write( "16  " )
f.write( str(ee) + "\n" )
f.write( MOL.save_string_xyz() )
f.close()
--------------------------------------------------------------------------

    Molecular point group: c1
  Charge       = 0
  Multiplicity = 1
  Basis Set: CC-PVTZ
  Basis Set:
  @DF-RHF Final Energy:  -270.11371593343767
    Total Energy =                       -270.1137159334379021
    Molecular point group: c1
  Basis Set: CC-PVTZ
  Basis Set:
  Basis Set: CC-PVTZ
  Basis Set:
  @DF-RHF Final Energy:  -270.11540836513029
    Total Energy =                       -270.1154083651304063
  Basis Set: CC-PVTZ
  Basis Set:
  Basis Set: CC-PVTZ
  Basis Set:
  @DF-RHF Final Energy:  -270.11563655278007
    Total Energy =                       -270.1156365527797902
  Basis Set: CC-PVTZ
  Basis Set:
  Basis Set: CC-PVTZ
  Basis Set:
  @DF-RHF Final Energy:  -270.11564178134495
    Total Energy =                       -270.1156417813447206
  Basis Set: CC-PVTZ
  Basis Set:
  Charge       = 0
  Multiplicity = 1
  Basis Set: CC-PVTZ
  Basis Set:

    Orbital Energies (a.u.)
    -----------------------

    Doubly Occupied:

       1A    -20.544488     2A    -11.267460     3A    -11.218229
       4A    -11.216966     5A    -11.215633     6A    -11.208374
       7A     -1.365181     8A     -1.116925     9A     -0.970005
      10A     -0.949960    11A     -0.804110    12A     -0.783823
      13A     -0.682963    14A     -0.664709    15A     -0.608804
      16A     -0.595119    17A     -0.579060    18A     -0.543454
      19A     -0.505576    20A     -0.485026    21A     -0.473797
      22A     -0.459544    23A     -0.453941    24A     -0.416412

  @DF-RHF Final Energy:  -270.11564216747098

   => Energetics <=

    Nuclear Repulsion Energy =            255.4761601095185028
    One-Electron Energy =                -872.9244858370609563
    Two-Electron Energy =                 347.3326835600712457
    DFT Exchange-Correlation Energy =       0.0000000000000000
    Empirical Dispersion Energy =           0.0000000000000000
    PCM Polarization Energy =               0.0000000000000000
    EFP Energy =                            0.0000000000000000
    Total Energy =                       -270.1156421674711510
    Molecular point group: c1
  Basis Set: CC-PVTZ
  Basis Set:

  -Total Gradient:
     Atom            X                  Y                   Z
    ------   -----------------  -----------------  -----------------
       1        0.000181444797    -0.001442964393     0.000871442371
       2       -0.000146700241     0.002040263835    -0.000654792854
       3       -0.000318239094    -0.001133778857    -0.001065863354
       4        0.000008152496    -0.000001984573     0.000010044480
       5        0.000014455263     0.000030211296    -0.000029376813
       6        0.000286161879     0.000538194848     0.000835415715
       7       -0.000003921853    -0.000005679521     0.000003031084
       8        0.000004596789     0.000017783796    -0.000000304719
       9       -0.000012649695     0.000005274536    -0.000020318404
      10        0.000017291634     0.000000617361    -0.000002976339
      11        0.000009403437    -0.000010256436     0.000000020904
      12       -0.000010150946    -0.000016122852     0.000043753572
      13       -0.000019959314    -0.000005673593     0.000001740593
      14       -0.000000167703     0.000001054696     0.000001831220
      15        0.000009002001    -0.000010908583     0.000003134255
      16       -0.000018719449    -0.000006031559     0.000003218290

  **** Optimization is complete! (in 5 steps) ****
    Final optimized geometry and variables:
    Molecular point group: c1

    Geometry (in Angstrom), charge = 0, multiplicity = 1:

    H            2.199829853283    -0.495225740851    -0.844627844051
    O            2.094539188957    -0.026471836038    -0.037090888707
    C            0.745432411617    -0.000559486348     0.334427477156
    H            0.739289285740     0.039902130787     1.419145193439
    C           -0.080623634614    -1.197542872137    -0.126770354576
    C           -0.039780596662     1.190310599527    -0.203567998090
    H            0.146604762728    -1.393405338180    -1.172811307120
    H            0.143381273052    -2.100777018601     0.425894125026
    C           -1.542882000216    -0.739173465541     0.020811400596
    H            0.138381380797     1.270626984268    -1.272734135799
    H            0.258775112612     2.127616336305     0.247384024915
    C           -1.498023688848     0.812540468929     0.077815148393
    H           -2.149434167454    -1.093884517477    -0.801968117394
    H           -1.982691794600    -1.139887522500     0.925180350036
    H           -2.183234436564     1.268890583448    -0.624003877688
    H           -1.787318550827     1.155478149556     1.064182981369

  Mulliken Charges: (a.u.)
   Center  Symbol    Alpha    Beta     Spin     Total
       1     H     0.39351  0.39351  0.00000  0.21299
       2     O     4.20784  4.20784  0.00000 -0.41567
       3     C     2.92933  2.92933  0.00000  0.14135
       4     H     0.44855  0.44855  0.00000  0.10290
       5     C     3.11234  3.11234  0.00000 -0.22468
       6     C     3.09311  3.09311  0.00000 -0.18621
       7     H     0.46124  0.46124  0.00000  0.07752
       8     H     0.44090  0.44090  0.00000  0.11819
       9     C     3.10928  3.10928  0.00000 -0.21856
      10     H     0.46119  0.46119  0.00000  0.07761
      11     H     0.44433  0.44433  0.00000  0.11134
      12     C     3.11436  3.11436  0.00000 -0.22873
      13     H     0.44515  0.44515  0.00000  0.10969
      14     H     0.44634  0.44634  0.00000  0.10732
      15     H     0.44346  0.44346  0.00000  0.11308
      16     H     0.44907  0.44907  0.00000  0.10186

   Total alpha = 24.00000, Total beta = 24.00000, Total charge = -0.00000
