                              Psi4 1.0.54 Driver

  ==> Input File <==

--------------------------------------------------------------------------
set {
	reference rhf
	basis cc-pvtz
}

set_num_threads( 4 )
memory 2 gb

molecule MOL {
0 1

H	 -1.512162	 4.128812	 -0.589845
O	 -0.827201	 3.534489	 -0.834395
C	 -0.916122	 2.357085	 -0.076614
C	 0.202409	 1.426166	 -0.498986
H	 -0.831510	 2.580265	 0.984897
H	 -1.878652	 1.874823	 -0.234063
C	 0.196029	 0.106276	 0.266738
H	 1.148722	 1.937238	 -0.352293
H	 0.110887	 1.240010	 -1.564297
C	 1.330220	 -0.826136	 -0.155230
H	 0.262900	 0.311565	 1.330740
H	 -0.755131	 -0.398404	 0.111255
C	 2.719700	 -0.407669	 0.328325
H	 1.339388	 -0.911200	 -1.239363
H	 1.119001	 -1.821953	 0.224128
C	 3.241564	 0.893452	 -0.276737
H	 3.418299	 -1.204729	 0.093035
H	 2.711776	 -0.323368	 1.411960
H	 3.254204	 0.841071	 -1.360784
H	 2.634460	 1.745075	 0.005842
H	 4.254264	 1.092401	 0.054971

	symmetry c1
}
set optking {
	frozen_dihedral = ("
		4 7 10 14
	")
}

ee,wfn = optimize('scf', return_wfn=True)
oeprop( wfn, 'DIPOLE', 'QUADRUPOLE', 'MULLIKEN_CHARGES')
f=open( 'psi4out.xyz', 'w' )
f.write( "21  " )
f.write( str(ee) + "\n" )
f.write( MOL.save_string_xyz() )
f.close()
--------------------------------------------------------------------------

    Molecular point group: c1
  Charge       = 0
  Multiplicity = 1
  Basis Set: CC-PVTZ
  Basis Set:
  @DF-RHF Final Energy:  -310.31887146882895
    Total Energy =                       -310.3188714688287746
    Molecular point group: c1
  Basis Set: CC-PVTZ
  Basis Set:
  Basis Set: CC-PVTZ
  Basis Set:
  @DF-RHF Final Energy:  -310.32645771169450
    Total Energy =                       -310.3264577116945588
  Basis Set: CC-PVTZ
  Basis Set:
  Basis Set: CC-PVTZ
  Basis Set:
  @DF-RHF Final Energy:  -310.32764761745904
    Total Energy =                       -310.3276476174586378
  Basis Set: CC-PVTZ
  Basis Set:
  Basis Set: CC-PVTZ
  Basis Set:
  @DF-RHF Final Energy:  -310.32794425497667
    Total Energy =                       -310.3279442549770692
  Basis Set: CC-PVTZ
  Basis Set:
  @DF-RHF Final Energy:  -310.32805915771229
    Total Energy =                       -310.3280591577121186
  @DF-RHF Final Energy:  -310.32808592923783
    Total Energy =                       -310.3280859292378864
  @DF-RHF Final Energy:  -310.32810409478799
    Total Energy =                       -310.3281040947875908
  @DF-RHF Final Energy:  -310.32811655100380
    Total Energy =                       -310.3281165510037454
  Basis Set: CC-PVTZ
  Basis Set:
  @DF-RHF Final Energy:  -310.32812266791473
    Total Energy =                       -310.3281226679146130
  Basis Set: CC-PVTZ
  Basis Set:
  Basis Set: CC-PVTZ
  Basis Set:
  @DF-RHF Final Energy:  -310.32812398030745
    Total Energy =                       -310.3281239803069980
  Basis Set: CC-PVTZ
  Basis Set:
  Basis Set: CC-PVTZ
  Basis Set:
  @DF-RHF Final Energy:  -310.32812645571022
    Total Energy =                       -310.3281264557102759
  Basis Set: CC-PVTZ
  Basis Set:
  Charge       = 0
  Multiplicity = 1
  Basis Set: CC-PVTZ
  Basis Set:

    Orbital Energies (a.u.)
    -----------------------

    Doubly Occupied:

       1A    -20.545584     2A    -11.264982     3A    -11.214254
       4A    -11.212429     5A    -11.211811     6A    -11.208503
       7A    -11.203152     8A     -1.363423     9A     -1.084815
      10A     -1.031349    11A     -0.958795    12A     -0.874450
      13A     -0.811309    14A     -0.775772    15A     -0.695500
      16A     -0.659802    17A     -0.623556    18A     -0.604328
      19A     -0.586884    20A     -0.571537    21A     -0.542527
      22A     -0.523155    23A     -0.504367    24A     -0.492637
      25A     -0.481118    26A     -0.461657    27A     -0.447969
      28A     -0.440684    29A     -0.437607

  @DF-RHF Final Energy:  -310.32812698148314

   => Energetics <=

    Nuclear Repulsion Energy =            318.1865812166520300
    One-Electron Energy =               -1051.3615043536215126
    Two-Electron Energy =                 422.8467961554859471
    DFT Exchange-Correlation Energy =       0.0000000000000000
    Empirical Dispersion Energy =           0.0000000000000000
    PCM Polarization Energy =               0.0000000000000000
    EFP Energy =                            0.0000000000000000
    Total Energy =                       -310.3281269814835355
    Molecular point group: c1
  Basis Set: CC-PVTZ
  Basis Set:

  -Total Gradient:
     Atom            X                  Y                   Z
    ------   -----------------  -----------------  -----------------
       1       -0.000000948505     0.000000290239    -0.000000694186
       2       -0.000002648372     0.000002238180    -0.000005427655
       3        0.000001582820    -0.000000821906     0.000011125866
       4       -0.000423440748    -0.000301006484    -0.000553550144
       5       -0.000001930669    -0.000004456632     0.000001799740
       6        0.000001758944     0.000004438862    -0.000003580733
       7        0.000776821668     0.000624871793     0.000778333698
       8       -0.000004056008     0.000003969626     0.000002527909
       9        0.000003676201    -0.000000224630    -0.000000018306
      10       -0.000928490230    -0.001135008803    -0.000236608399
      11        0.000000762342     0.000001915343     0.000001602782
      12       -0.000001392435    -0.000002498853     0.000002288221
      13       -0.000014074309     0.000006039972    -0.000001726648
      14        0.000608527097     0.000796342699    -0.000011511077
      15       -0.000008371744     0.000005790000     0.000014267041
      16       -0.000013612483     0.000006664253     0.000011360679
      17        0.000010525978     0.000002835845    -0.000010004355
      18       -0.000005419884    -0.000013124684     0.000011750497
      19       -0.000006222199     0.000000889841    -0.000017211137
      20       -0.000000601866     0.000008512086     0.000007255551
      21        0.000007554400    -0.000007656745    -0.000001979343

  **** Optimization is complete! (in 12 steps) ****
    Final optimized geometry and variables:
    Molecular point group: c1

    Geometry (in Angstrom), charge = 0, multiplicity = 1:

    H           -2.775978429439     2.861142810850    -0.255445548175
    O           -1.974740852125     2.415252215353    -0.458725127568
    C           -1.963205403371     1.145918845425     0.138766819266
    C           -0.657820073459     0.459586229746    -0.212430189202
    H           -2.056716236452     1.232958867768     1.219438955747
    H           -2.802044174463     0.550723873300    -0.215514716798
    C           -0.542044421557    -0.920328195256     0.432280890010
    H            0.151620021207     1.106210915267     0.100387728021
    H           -0.593497170714     0.374117331478    -1.292544248673
    C            0.631003047537    -1.793074511807    -0.029969122575
    H           -0.501057230153    -0.814935123114     1.513711423034
    H           -1.456845131417    -1.468599820347     0.220653698052
    C            2.026403211595    -1.416649894081     0.489585558449
    H            0.652374117475    -1.823313863644    -1.116595807920
    H            0.421130258027    -2.806383385541     0.296809019366
    C            2.759292552568    -0.326348982226    -0.290337625066
    H            2.642597179684    -2.310111649125     0.464843423505
    H            1.956237489706    -1.132782008544     1.536383023200
    H            2.850010536705    -0.596357526143    -1.337369634234
    H            2.257679499981     0.630197683054    -0.240601678146
    H            3.761486239769    -0.189537150186     0.100573851589

  Mulliken Charges: (a.u.)
   Center  Symbol    Alpha    Beta     Spin     Total
       1     H     0.39735  0.39735  0.00000  0.20529
       2     O     4.19504  4.19504  0.00000 -0.39008
       3     C     2.96469  2.96469  0.00000  0.07062
       4     C     3.09287  3.09287  0.00000 -0.18575
       5     H     0.47474  0.47474  0.00000  0.05053
       6     H     0.47225  0.47225  0.00000  0.05551
       7     C     3.10390  3.10390  0.00000 -0.20781
       8     H     0.44810  0.44810  0.00000  0.10381
       9     H     0.44862  0.44862  0.00000  0.10276
      10     C     3.10080  3.10080  0.00000 -0.20159
      11     H     0.45382  0.45382  0.00000  0.09236
      12     H     0.45081  0.45081  0.00000  0.09837
      13     C     3.08916  3.08916  0.00000 -0.17831
      14     H     0.45414  0.45414  0.00000  0.09171
      15     H     0.44489  0.44489  0.00000  0.11021
      16     C     3.15180  3.15180  0.00000 -0.30360
      17     H     0.44861  0.44861  0.00000  0.10279
      18     H     0.45516  0.45516  0.00000  0.08967
      19     H     0.45439  0.45439  0.00000  0.09121
      20     H     0.45141  0.45141  0.00000  0.09718
      21     H     0.44744  0.44744  0.00000  0.10513

   Total alpha = 29.00000, Total beta = 29.00000, Total charge =  0.00000

*** Psi4 exiting successfully. Buy a developer a beer!
