  ==> Input File <==

--------------------------------------------------------------------------
set {
	reference rhf
	basis 6-31G*
}

set_num_threads( 1 )
memory 2 gb

molecule MOL {
0 1

H	 -2.499100	 -0.730091	 -0.745082
O	 -2.347518	 -0.290803	 0.079804
C	 -1.184022	 0.487508	 -0.006784
C	 0.062599	 -0.378592	 0.031606
H	 -1.176523	 1.099369	 -0.904519
H	 -1.187323	 1.153111	 0.844927
O	 1.171513	 0.459272	 -0.058250
H	 0.050699	 -1.089204	 -0.797170
H	 0.078739	 -0.954914	 0.954740
C	 1.994956	 0.211655	 -1.153589
H	 1.459955	 0.345659	 -2.091910
H	 2.813352	 0.916988	 -1.113145
H	 2.397837	 -0.798683	 -1.127223

	symmetry c1
}
set optking {
	frozen_dihedral = ("
		8 4 3 5,
		1 2 3 5,
		4 7 10 13
	")
}

ee = energy('scf')
oeprop('DIPOLE', 'QUADRUPOLE', 'MULLIKEN_CHARGES')
f=open( 'psi4out.xyz', 'w' )
f.write( "13  " )
f.write( str(ee) + "\n" )
f.write( MOL.save_string_xyz() )
f.close()
--------------------------------------------------------------------------

    Molecular point group: c1

    Geometry (in Angstrom), charge = 0, multiplicity = 1:

       Center              X                  Y                   Z               Mass
    ------------   -----------------  -----------------  -----------------  -----------------
           H         -2.415277490376    -0.815338536483    -0.505526267791     1.007825032070
           O         -2.263695490376    -0.376050536483     0.319359732209    15.994914619560
           C         -1.100199490376     0.402260463517     0.232771732209    12.000000000000
           C          0.146421509624    -0.463839536483     0.271161732209    12.000000000000
           H         -1.092700490376     1.014121463517    -0.664963267791     1.007825032070
           H         -1.103500490376     1.067863463517     1.084482732209     1.007825032070
           O          1.255335509624     0.374024463517     0.181305732209    15.994914619560
           H          0.134521509624    -1.174451536483    -0.557614267791     1.007825032070
           H          0.162561509624    -1.040161536483     1.194295732209     1.007825032070
           C          2.078778509624     0.126407463517    -0.914033267791    12.000000000000
           H          1.543777509624     0.260411463517    -1.852354267791     1.007825032070
           H          2.897174509624     0.831740463517    -0.873589267791     1.007825032070
           H          2.481659509624    -0.883930536483    -0.887667267791     1.007825032070

  Charge       = 0
  Multiplicity = 1
  Basis Set: 6-31G*
  Basis Set:

    Orbital Energies (a.u.)
    -----------------------

    Doubly Occupied:

       1A    -20.560960     2A    -20.559353     3A    -11.272669
       4A    -11.270469     5A    -11.267691     6A     -1.389344
       7A     -1.364696     8A     -1.016691     9A     -0.918640
      10A     -0.841481    11A     -0.710745    12A     -0.668642
      13A     -0.662080    14A     -0.643048    15A     -0.588254
      16A     -0.573930    17A     -0.547719    18A     -0.490862
      19A     -0.472974    20A     -0.461970    21A     -0.406837

  @DF-RHF Final Energy:  -267.94635614104021

   => Energetics <=

    Nuclear Repulsion Energy =            191.4644142097137660
    One-Electron Energy =                -745.4433518756537751
    Two-Electron Energy =                 286.0325815249000243
    DFT Exchange-Correlation Energy =       0.0000000000000000
    Empirical Dispersion Energy =           0.0000000000000000
    PCM Polarization Energy =               0.0000000000000000
    EFP Energy =                            0.0000000000000000
    Total Energy =                       -267.9463561410400416

  Mulliken Charges: (a.u.)
   Center  Symbol    Alpha    Beta     Spin     Total
       1     H     0.28197  0.28197  0.00000  0.43605
       2     O     4.37082  4.37082  0.00000 -0.74163
       3     C     3.00259  3.00259  0.00000 -0.00517
       4     C     3.00344  3.00344  0.00000 -0.00689
       5     H     0.42767  0.42767  0.00000  0.14466
       6     H     0.40786  0.40786  0.00000  0.18429
       7     O     4.30576  4.30576  0.00000 -0.61151
       8     H     0.43622  0.43622  0.00000  0.12757
       9     H     0.41374  0.41374  0.00000  0.17253
      10     C     3.08153  3.08153  0.00000 -0.16306
      11     H     0.43087  0.43087  0.00000  0.13826
      12     H     0.41075  0.41075  0.00000  0.17849
      13     H     0.42679  0.42679  0.00000  0.14641

   Total alpha = 21.00000, Total beta = 21.00000, Total charge = -0.00000
