                              Psi4 1.0.54 Driver

  ==> Input File <==

--------------------------------------------------------------------------
set {
	reference rhf
	basis cc-pvtz
}

set_num_threads( 4 )
memory 2 gb

molecule MOL {
0 1

H	 -2.266619	 1.169943	 0.000098
O	 -1.438073	 1.611259	 0.000041
C	 -0.408657	 0.734701	 0.000005
C	 0.854343	 1.254633	 -0.214262
C	 -0.595642	 -0.627430	 0.204331
H	 0.957072	 2.310940	 -0.367863
C	 1.950341	 0.418220	 -0.227285
C	 0.523341	 -1.444174	 0.186037
C	 -1.974565	 -1.193255	 0.438033
H	 2.927781	 0.828972	 -0.394237
C	 1.790534	 -0.939227	 -0.026714
H	 0.395563	 -2.499261	 0.342345
H	 -2.635740	 -1.004163	 -0.403044
H	 -1.929317	 -2.263852	 0.576650
H	 -2.438014	 -0.771967	 1.325758
H	 2.638503	 -1.595917	 -0.035512

	symmetry c1
}
set optking {
	frozen_dihedral = ("
		4 3 2 1
	")
}

ee,wfn = optimize('scf', return_wfn=True)
oeprop( wfn, 'DIPOLE', 'QUADRUPOLE', 'MULLIKEN_CHARGES')
f=open( 'psi4out.xyz', 'w' )
f.write( "16  " )
f.write( str(ee) + "\n" )
f.write( MOL.save_string_xyz() )
f.close()
--------------------------------------------------------------------------

    Molecular point group: c1
  Charge       = 0
  Multiplicity = 1
  Basis Set: CC-PVTZ
  Basis Set:
  @DF-RHF Final Energy:  -344.71921357341841
    Total Energy =                       -344.7192135734183012
    Molecular point group: c1
  Basis Set: CC-PVTZ
  Basis Set:
  Basis Set: CC-PVTZ
  Basis Set:
  @DF-RHF Final Energy:  -344.71922340685393
    Total Energy =                       -344.7192234068538141
  Basis Set: CC-PVTZ
  Basis Set:
  Basis Set: CC-PVTZ
  Basis Set:
  @DF-RHF Final Energy:  -344.71922568126769
    Total Energy =                       -344.7192256812676305
  Basis Set: CC-PVTZ
  Basis Set:
  Charge       = 0
  Multiplicity = 1
  Basis Set: CC-PVTZ
  Basis Set:

    Orbital Energies (a.u.)
    -----------------------

    Doubly Occupied:

       1A    -20.581518     2A    -11.291016     3A    -11.233565
       4A    -11.232392     5A    -11.228543     6A    -11.227294
       7A    -11.217557     8A    -11.216742     9A     -1.411989
      10A     -1.153425    11A     -1.051981    12A     -1.007887
      13A     -0.944060    14A     -0.828810    15A     -0.823793
      16A     -0.734644    17A     -0.680637    18A     -0.647503
      19A     -0.611792    20A     -0.604523    21A     -0.577538
      22A     -0.569743    23A     -0.561829    24A     -0.554219
      25A     -0.505465    26A     -0.485713    27A     -0.478490
      28A     -0.333830    29A     -0.309298

  @DF-RHF Final Energy:  -344.71922585668153

   => Energetics <=

    Nuclear Repulsion Energy =            351.0457083054388931
    One-Electron Energy =               -1163.3182729163540898
    Two-Electron Energy =                 467.5533387542337209
    DFT Exchange-Correlation Energy =       0.0000000000000000
    Empirical Dispersion Energy =           0.0000000000000000
    PCM Polarization Energy =               0.0000000000000000
    EFP Energy =                            0.0000000000000000
    Total Energy =                       -344.7192258566814758
    Molecular point group: c1
  Basis Set: CC-PVTZ
  Basis Set:

  -Total Gradient:
     Atom            X                  Y                   Z
    ------   -----------------  -----------------  -----------------
       1       -0.000006177245    -0.000002445496    -0.000643115228
       2       -0.000009528271    -0.000013774367     0.000606449838
       3        0.000053572833     0.000050408818     0.000464040496
       4       -0.000020568789    -0.000062657113    -0.000425763672
       5       -0.000009610157     0.000033258608     0.000008098289
       6       -0.000003238782     0.000001647607    -0.000009362835
       7       -0.000015458520     0.000038839529    -0.000000123007
       8        0.000043771113    -0.000006832784     0.000024198733
       9        0.000010630268     0.000000291862     0.000041237596
      10       -0.000000529095    -0.000001668753     0.000001732643
      11       -0.000032390404    -0.000033952256    -0.000018511050
      12       -0.000002971243    -0.000000615267    -0.000007972541
      13       -0.000018085429    -0.000009422536    -0.000008301809
      14       -0.000002903701    -0.000003081166    -0.000023621448
      15        0.000010909653     0.000007601292    -0.000015288779
      16        0.000002577770     0.000002402022     0.000006302773

  **** Optimization is complete! (in 4 steps) ****
    Final optimized geometry and variables:
    Molecular point group: c1

    Geometry (in Angstrom), charge = 0, multiplicity = 1:

    H           -2.268531777691     1.168704774304    -0.026185724594
    O           -1.439650673362     1.609629100462    -0.034533898163
    C           -0.410863386579     0.731602241963    -0.049592800237
    C            0.850442182747     1.249345816163    -0.276833581757
    C           -0.597790196528    -0.629996001398     0.159223416836
    H            0.952907679752     2.304908062587    -0.435674554187
    C            1.945898706709     0.411871046513    -0.294702345323
    C            0.519553463027    -1.448361736203     0.131489700157
    C           -1.974969412914    -1.192176560468     0.410732543071
    H            2.922432647499     0.821142492255    -0.470348854574
    C            1.785824105366    -0.944915954084    -0.091555884719
    H            0.391962314925    -2.503025033452     0.290715888658
    H           -2.641257882997    -1.023190388494    -0.431323458413
    H           -1.928175644024    -2.259808606565     0.570409986614
    H           -2.433760809450    -0.750293874818     1.290006690345
    H            2.632924587278    -1.602662502198    -0.105701673657

  Mulliken Charges: (a.u.)
   Center  Symbol    Alpha    Beta     Spin     Total
       1     H     0.38707  0.38707  0.00000  0.22586
       2     O     4.17214  4.17214  0.00000 -0.34428
       3     C     2.87348  2.87348  0.00000  0.25305
       4     C     3.11185  3.11185  0.00000 -0.22370
       5     C     3.01153  3.01153  0.00000 -0.02306
       6     H     0.42009  0.42009  0.00000  0.15982
       7     C     3.06539  3.06539  0.00000 -0.13077
       8     C     3.08342  3.08342  0.00000 -0.16683
       9     C     3.16479  3.16479  0.00000 -0.32957
      10     H     0.42250  0.42250  0.00000  0.15501
      11     C     3.09209  3.09209  0.00000 -0.18418
      12     H     0.42566  0.42566  0.00000  0.14868
      13     H     0.45286  0.45286  0.00000  0.09428
      14     H     0.44535  0.44535  0.00000  0.10930
      15     H     0.44674  0.44674  0.00000  0.10653
      16     H     0.42507  0.42507  0.00000  0.14987

   Total alpha = 29.00000, Total beta = 29.00000, Total charge = -0.00000

*** Psi4 exiting successfully. Buy a developer a beer!
