  ==> Input File <==

--------------------------------------------------------------------------
set {
	reference rhf
	basis 6-31G*
}

set_num_threads( 1 )
memory 2 gb

molecule MOL {
0 1

O	 -2.042549	 -1.228399	 -0.269030
C	 -1.653912	 -0.146171	 0.050137
C	 -0.332303	 0.024011	 0.778412
C	 -2.438579	 1.106236	 -0.272369
C	 0.850493	 -0.304933	 -0.146066
H	 -0.234163	 1.037175	 1.158216
H	 -0.332320	 -0.655831	 1.623242
C	 2.201961	 -0.175629	 0.558098
H	 0.833803	 0.352952	 -1.013242
H	 0.726172	 -1.316576	 -0.520582
C	 3.379486	 -0.510848	 -0.356379
H	 2.315993	 0.837074	 0.938697
H	 2.218127	 -0.832533	 1.424576
H	 3.410257	 0.152309	 -1.216221
H	 3.309938	 -1.529347	 -0.726875
H	 4.323719	 -0.413663	 0.169934
H	 -3.277823	 0.863061	 -0.908988
H	 -1.806773	 1.843019	 -0.759671
H	 -2.802853	 1.554979	 0.648059

	symmetry c1
}
set optking {
	frozen_dihedral = ("
		11 8 5 9,
		9 5 3 2
	")
}

ee = energy('scf')
oeprop('DIPOLE', 'QUADRUPOLE', 'MULLIKEN_CHARGES')
f=open( 'psi4out.xyz', 'w' )
f.write( "19  " )
f.write( str(ee) + "\n" )
f.write( MOL.save_string_xyz() )
f.close()
--------------------------------------------------------------------------

    Molecular point group: c1

    Geometry (in Angstrom), charge = 0, multiplicity = 1:

       Center              X                  Y                   Z               Mass
    ------------   -----------------  -----------------  -----------------  -----------------
           O         -2.044221367884    -1.050270042048    -0.307619959383    15.994914619560
           C         -1.655584367884     0.031957957952     0.011547040617    12.000000000000
           C         -0.333975367884     0.202139957952     0.739822040617    12.000000000000
           C         -2.440251367884     1.284364957952    -0.310958959383    12.000000000000
           C          0.848820632116    -0.126804042048    -0.184655959383    12.000000000000
           H         -0.235835367884     1.215303957952     1.119626040617     1.007825032070
           H         -0.333992367884    -0.477702042048     1.584652040617     1.007825032070
           C          2.200288632116     0.002499957952     0.519508040617    12.000000000000
           H          0.832130632116     0.531080957952    -1.051831959383     1.007825032070
           H          0.724499632116    -1.138447042048    -0.559171959383     1.007825032070
           C          3.377813632116    -0.332719042048    -0.394968959383    12.000000000000
           H          2.314320632116     1.015202957952     0.900107040617     1.007825032070
           H          2.216454632116    -0.654404042048     1.385986040617     1.007825032070
           H          3.408584632116     0.330437957952    -1.254810959383     1.007825032070
           H          3.308265632116    -1.351218042048    -0.765464959383     1.007825032070
           H          4.322046632116    -0.235534042048     0.131344040617     1.007825032070
           H         -3.279495367884     1.041189957952    -0.947577959383     1.007825032070
           H         -1.808445367884     2.021147957952    -0.798260959383     1.007825032070
           H         -2.804525367884     1.733107957952     0.609469040617     1.007825032070

  Charge       = 0
  Multiplicity = 1
  Basis Set: 6-31G*
  Basis Set:

    Orbital Energies (a.u.)
    -----------------------

    Doubly Occupied:

       1A    -20.547610     2A    -11.325060     3A    -11.229834
       4A    -11.228439     5A    -11.228106     6A    -11.223486
       7A    -11.213816     8A     -1.393600     9A     -1.089750
      10A     -1.029086    11A     -0.984062    12A     -0.888869
      13A     -0.805209    14A     -0.732925    15A     -0.662748
      16A     -0.645651    17A     -0.622259    18A     -0.612498
      19A     -0.582413    20A     -0.572925    21A     -0.552565
      22A     -0.536677    23A     -0.514211    24A     -0.496428
      25A     -0.480424    26A     -0.474584    27A     -0.466517
      28A     -0.397109

  @DF-RHF Final Energy:  -309.06509089181719

   => Energetics <=

    Nuclear Repulsion Energy =            301.1598198551773180
    One-Electron Energy =               -1015.3762514233756065
    Two-Electron Energy =                 405.1513406763795615
    DFT Exchange-Correlation Energy =       0.0000000000000000
    Empirical Dispersion Energy =           0.0000000000000000
    PCM Polarization Energy =               0.0000000000000000
    EFP Energy =                            0.0000000000000000
    Total Energy =                       -309.0650908918186701

  Mulliken Charges: (a.u.)
   Center  Symbol    Alpha    Beta     Spin     Total
       1     O     4.26310  4.26310  0.00000 -0.52620
       2     C     2.73613  2.73613  0.00000  0.52774
       3     C     3.20130  3.20130  0.00000 -0.40260
       4     C     3.28970  3.28970  0.00000 -0.57941
       5     C     3.15913  3.15913  0.00000 -0.31825
       6     H     0.41670  0.41670  0.00000  0.16661
       7     H     0.40153  0.40153  0.00000  0.19694
       8     C     3.15207  3.15207  0.00000 -0.30414
       9     H     0.42106  0.42106  0.00000  0.15787
      10     H     0.40464  0.40464  0.00000  0.19072
      11     C     3.24020  3.24020  0.00000 -0.48040
      12     H     0.42293  0.42293  0.00000  0.15413
      13     H     0.41998  0.41998  0.00000  0.16004
      14     H     0.42114  0.42114  0.00000  0.15772
      15     H     0.41877  0.41877  0.00000  0.16246
      16     H     0.41781  0.41781  0.00000  0.16438
      17     H     0.39726  0.39726  0.00000  0.20548
      18     H     0.40988  0.40988  0.00000  0.18024
      19     H     0.40666  0.40666  0.00000  0.18667

   Total alpha = 28.00000, Total beta = 28.00000, Total charge = -0.00000
