                              Psi4 1.0.54 Driver

  ==> Input File <==

--------------------------------------------------------------------------
set {
	reference rhf
	basis cc-pvtz
}

set_num_threads( 4 )
memory 2 gb

molecule MOL {
0 1

H	 1.651322	 -0.822465	 0.000000
O	 0.729993	 -1.034364	 0.000000
C	 0.037305	 0.100061	 0.000000
C	 -1.283026	 -0.047514	 0.694999
O	 0.445205	 1.090696	 -0.499054
H	 -1.865682	 -0.816362	 0.204232
H	 -1.810107	 0.891840	 0.672089
H	 -1.119751	 -0.360891	 1.718036

	symmetry c1
}
set optking {
	frozen_dihedral = ("
		4 3 2 1
	")
}

ee,wfn = optimize('scf', return_wfn=True)
oeprop( wfn, 'DIPOLE', 'QUADRUPOLE', 'MULLIKEN_CHARGES')
f=open( 'psi4out.xyz', 'w' )
f.write( "8  " )
f.write( str(ee) + "\n" )
f.write( MOL.save_string_xyz() )
f.close()
--------------------------------------------------------------------------

    Molecular point group: c1
  Charge       = 0
  Multiplicity = 1
  Basis Set: CC-PVTZ
  Basis Set:
  @DF-RHF Final Energy:  -227.89960267575157
    Total Energy =                       -227.8996026757516802
    Molecular point group: c1
  Basis Set: CC-PVTZ
  Basis Set:
  Basis Set: CC-PVTZ
  Basis Set:
  @DF-RHF Final Energy:  -227.89679148360551
    Total Energy =                       -227.8967914836054547
  Basis Set: CC-PVTZ
  Basis Set:
  Basis Set: CC-PVTZ
  Basis Set:
  @DF-RHF Final Energy:  -227.89993419773251
    Total Energy =                       -227.8999341977324491
  Basis Set: CC-PVTZ
  Basis Set:
  Basis Set: CC-PVTZ
  Basis Set:
  @DF-RHF Final Energy:  -227.90006753755830
    Total Energy =                       -227.9000675375581579
  Basis Set: CC-PVTZ
  Basis Set:
  Basis Set: CC-PVTZ
  Basis Set:
  @DF-RHF Final Energy:  -227.90014004843579
    Total Energy =                       -227.9001400484357305
  Basis Set: CC-PVTZ
  Basis Set:
  Basis Set: CC-PVTZ
  Basis Set:
  @DF-RHF Final Energy:  -227.90017638926224
    Total Energy =                       -227.9001763892622137
  Basis Set: CC-PVTZ
  Basis Set:
  Basis Set: CC-PVTZ
  Basis Set:
  @DF-RHF Final Energy:  -227.90018238932828
    Total Energy =                       -227.9001823893282506
  Basis Set: CC-PVTZ
  Basis Set:
  Charge       = 0
  Multiplicity = 1
  Basis Set: CC-PVTZ
  Basis Set:

    Orbital Energies (a.u.)
    -----------------------

    Doubly Occupied:

       1A    -20.603261     2A    -20.544038     3A    -11.378794
       4A    -11.239583     5A     -1.477002     6A     -1.372233
       7A     -1.027530     8A     -0.833728     9A     -0.707329
      10A     -0.684690    11A     -0.659004    12A     -0.584396
      13A     -0.578380    14A     -0.552946    15A     -0.487840
      16A     -0.452469

  @DF-RHF Final Energy:  -227.90018257413422

   => Energetics <=

    Nuclear Repulsion Energy =            122.6607239382816203
    One-Electron Energy =                -554.7553673958565241
    Two-Electron Energy =                 204.1944608834406552
    DFT Exchange-Correlation Energy =       0.0000000000000000
    Empirical Dispersion Energy =           0.0000000000000000
    PCM Polarization Energy =               0.0000000000000000
    EFP Energy =                            0.0000000000000000
    Total Energy =                       -227.9001825741342202
    Molecular point group: c1
  Basis Set: CC-PVTZ
  Basis Set:

  -Total Gradient:
     Atom            X                  Y                   Z
    ------   -----------------  -----------------  -----------------
       1       -0.000070053437    -0.000795418335     0.009604013842
       2        0.001170385603     0.001319058794    -0.009466015796
       3       -0.003562324190    -0.001664415463    -0.005680761370
       4        0.002611590685     0.001075884031     0.005508665490
       5       -0.000194929538    -0.000008266857     0.000072443110
       6        0.000032698763     0.000096652952     0.000001694450
       7        0.000005128335    -0.000058735931     0.000012846154
       8        0.000007503779     0.000035240806    -0.000052885882

  **** Optimization is complete! (in 8 steps) ****
    Final optimized geometry and variables:
    Molecular point group: c1

    Geometry (in Angstrom), charge = 0, multiplicity = 1:

    H            1.609967770799    -0.890581477597    -0.131247366662
    O            0.681460778422    -1.063328333689    -0.152680680641
    C            0.020319620094     0.093586432881    -0.060918353700
    C           -1.309955012824    -0.066608517116     0.612446932690
    O            0.490851126035     1.120437612596    -0.402633401334
    H           -1.842709218832    -0.920559445695     0.217394548135
    H           -1.891977225740     0.832920703112     0.496026441407
    H           -1.125254290082    -0.249366900522     1.664107535370

  Mulliken Charges: (a.u.)
   Center  Symbol    Alpha    Beta     Spin     Total
       1     H     0.37849  0.37849  0.00000  0.24301
       2     O     4.16696  4.16696  0.00000 -0.33392
       3     C     2.80371  2.80371  0.00000  0.39259
       4     C     3.13708  3.13708  0.00000 -0.27416
       5     O     4.18563  4.18563  0.00000 -0.37126
       6     H     0.44399  0.44399  0.00000  0.11203
       7     H     0.43823  0.43823  0.00000  0.12354
       8     H     0.44592  0.44592  0.00000  0.10817

   Total alpha = 16.00000, Total beta = 16.00000, Total charge = -0.00000

*** Psi4 exiting successfully. Buy a developer a beer!
