  ==> Input File <==

--------------------------------------------------------------------------
set {
	reference rhf
	basis cc-pvtz
}

set_num_threads( 4 )
memory 2 gb

molecule MOL {
0 1

H	 2.815439	 0.807071	 1.306771
N	 1.948580	 0.313182	 1.291983
C	 1.263552	 0.494993	 0.021953
H	 1.397241	 0.663130	 2.047562
C	 -0.016533	 -0.325589	 -0.026925
H	 1.931675	 0.162446	 -0.765459
H	 1.028322	 1.539363	 -0.187676
C	 -1.280353	 0.525521	 0.047747
H	 -0.016686	 -0.912532	 -0.939714
H	 -0.014099	 -1.037598	 0.796369
C	 -2.560681	 -0.301323	 -0.007747
H	 -1.279957	 1.241025	 -0.770189
H	 -1.270445	 1.110526	 0.963468
H	 -2.617064	 -0.872870	 -0.928010
H	 -3.439525	 0.331102	 0.043462
H	 -2.609427	 -1.002736	 0.818585

	symmetry c1
}
set optking {
	frozen_dihedral = ("
		6 3 5 9
	")
}

ee = optimize('scf')
oeprop('DIPOLE', 'QUADRUPOLE', 'MULLIKEN_CHARGES')
f=open( 'psi4out.xyz', 'w' )
f.write( "16  " )
f.write( str(ee) + "\n" )
f.write( MOL.save_string_xyz() )
f.close()
--------------------------------------------------------------------------

    Molecular point group: c1
  Charge       = 0
  Multiplicity = 1
  Basis Set: CC-PVTZ
  Basis Set:
  @DF-RHF Final Energy:  -212.39435565586311
    Total Energy =                       -212.3943556558631371
    Molecular point group: c1
  Basis Set: CC-PVTZ
  Basis Set:
  Basis Set: CC-PVTZ
  Basis Set:
  @DF-RHF Final Energy:  -212.39477034170548
    Total Energy =                       -212.3947703417057369
  Basis Set: CC-PVTZ
  Basis Set:
  Basis Set: CC-PVTZ
  Basis Set:
  @DF-RHF Final Energy:  -212.39487553124286
    Total Energy =                       -212.3948755312430876
  Basis Set: CC-PVTZ
  Basis Set:
  Basis Set: CC-PVTZ
  Basis Set:
  @DF-RHF Final Energy:  -212.39487759219745
    Total Energy =                       -212.3948775921973606
  Basis Set: CC-PVTZ
  Basis Set:
  Charge       = 0
  Multiplicity = 1
  Basis Set: CC-PVTZ
  Basis Set:

    Orbital Energies (a.u.)
    -----------------------

    Doubly Occupied:

       1A    -15.527134     2A    -11.238176     3A    -11.214235
       4A    -11.207775     5A    -11.206354     6A     -1.177651
       7A     -1.059691     8A     -0.958969     9A     -0.848503
      10A     -0.789998    11A     -0.667811    12A     -0.632181
      13A     -0.608428    14A     -0.581505    15A     -0.555484
      16A     -0.526740    17A     -0.511220    18A     -0.472534
      19A     -0.465488    20A     -0.454626    21A     -0.382760

  @DF-RHF Final Energy:  -212.39487782334868

   => Energetics <=

    Nuclear Repulsion Energy =            187.4204849334717551
    One-Electron Energy =                -657.4562002588721725
    Two-Electron Energy =                 257.6408375020516246
    DFT Exchange-Correlation Energy =       0.0000000000000000
    Empirical Dispersion Energy =           0.0000000000000000
    PCM Polarization Energy =               0.0000000000000000
    EFP Energy =                            0.0000000000000000
    Total Energy =                       -212.3948778233487928
    Molecular point group: c1
  Basis Set: CC-PVTZ
  Basis Set:

  -Total Gradient:
     Atom            X                  Y                   Z
    ------   -----------------  -----------------  -----------------
       1        0.000024980617     0.000006810167     0.000014486489
       2       -0.000015541685    -0.000002035333    -0.000021362629
       3        0.001638291850    -0.002972862264     0.002524476063
       4       -0.000002792552     0.000010587283     0.000009115779
       5       -0.001837371068     0.003180017890    -0.002117635404
       6       -0.001088303024     0.001949866582    -0.001787688949
       7        0.000000904233     0.000015260729     0.000009587410
       8        0.000028293824    -0.000023497533     0.000014181566
       9        0.001259815259    -0.002164252515     0.001354465167
      10       -0.000000241663    -0.000002081595     0.000008994063
      11       -0.000008274683     0.000007923025    -0.000002628244
      12        0.000004916537    -0.000004045498     0.000002473773
      13        0.000001575995    -0.000004043013    -0.000002908386
      14        0.000001679294    -0.000000454151     0.000001145175
      15       -0.000012976903    -0.000005641040    -0.000003693523
      16        0.000005043966     0.000008447266    -0.000003008351

  **** Optimization is complete! (in 5 steps) ****
    Final optimized geometry and variables:
    Molecular point group: c1

    Geometry (in Angstrom), charge = 0, multiplicity = 1:

    H            2.897935112984     0.688952835399     1.064725248609
    N            2.051847921088     0.160523764985     1.024253718072
    C            1.393692463150     0.333161593703    -0.263383127914
    H            1.468955950891     0.487984986748     1.766706677073
    C            0.088328071908    -0.472976688650    -0.345127445501
    H            2.077902728940     0.009038542376    -1.037750250794
    H            1.176851200267     1.379661316967    -0.481096380488
    C           -1.176830022404     0.376080397056    -0.253343936499
    H            0.072027696642    -1.057675746671    -1.259424830099
    H            0.094915521210    -1.200416918820     0.460222931274
    C           -2.455714757587    -0.453651129266    -0.271483252501
    H           -1.195458773379     1.084742765481    -1.076567380003
    H           -1.146880487411     0.970866218936     0.656701932977
    H           -2.529576092494    -1.036175964758    -1.183866661317
    H           -3.335291848983     0.176919729027    -0.209810652256
    H           -2.484550957053    -1.145895379555     0.563278020327

  Mulliken Charges: (a.u.)
   Center  Symbol    Alpha    Beta     Spin     Total
       1     H     0.43011  0.43011  0.00000  0.13978
       2     N     3.68624  3.68624  0.00000 -0.37247
       3     C     3.03366  3.03366  0.00000 -0.06732
       4     H     0.43122  0.43122  0.00000  0.13756
       5     C     3.09652  3.09652  0.00000 -0.19303
       6     H     0.45316  0.45316  0.00000  0.09367
       7     H     0.46821  0.46821  0.00000  0.06359
       8     C     3.08156  3.08156  0.00000 -0.16311
       9     H     0.45002  0.45002  0.00000  0.09995
      10     H     0.44850  0.44850  0.00000  0.10300
      11     C     3.15031  3.15031  0.00000 -0.30062
      12     H     0.45488  0.45488  0.00000  0.09024
      13     H     0.45747  0.45747  0.00000  0.08506
      14     H     0.45478  0.45478  0.00000  0.09045
      15     H     0.44896  0.44896  0.00000  0.10208
      16     H     0.45441  0.45441  0.00000  0.09119

   Total alpha = 21.00000, Total beta = 21.00000, Total charge =  0.00000
