  ==> Input File <==

--------------------------------------------------------------------------
set {
	reference rhf
	basis 6-31G*
}

set_num_threads( 1 )
memory 2 gb

molecule MOL {
0 1

H	 -2.601566	 -0.497379	 -0.029386
N	 -1.852125	 0.165761	 -0.074816
C	 -0.563778	 -0.502042	 0.037919
H	 -1.984339	 0.804841	 0.686006
C	 0.575259	 0.508231	 -0.048326
H	 -0.482092	 -1.204004	 -0.786564
H	 -0.460411	 -1.085169	 0.956626
C	 1.954651	 -0.143624	 0.035137
H	 0.475158	 1.060484	 -0.977307
H	 0.469181	 1.234488	 0.755973
H	 2.103292	 -0.853109	 -0.774172
H	 2.742821	 0.599562	 -0.030094
H	 2.083613	 -0.679371	 0.971560

	symmetry c1
}
set optking {
	frozen_dihedral = ("
		6 3 5 9
	")
}

ee = energy('scf')
oeprop('DIPOLE', 'QUADRUPOLE', 'MULLIKEN_CHARGES')
f=open( 'psi4out.xyz', 'w' )
f.write( "13  " )
f.write( str(ee) + "\n" )
f.write( MOL.save_string_xyz() )
f.close()
--------------------------------------------------------------------------

    Molecular point group: c1

    Geometry (in Angstrom), charge = 0, multiplicity = 1:

       Center              X                  Y                   Z               Mass
    ------------   -----------------  -----------------  -----------------  -----------------
           H         -2.601940997256    -0.498182028681    -0.029856498007     1.007825032070
           N         -1.852499997256     0.164957971319    -0.075286498007    14.003074004780
           C         -0.564152997256    -0.502845028681     0.037448501993    12.000000000000
           H         -1.984713997256     0.804037971319     0.685535501993     1.007825032070
           C          0.574884002744     0.507427971319    -0.048796498007    12.000000000000
           H         -0.482466997256    -1.204807028681    -0.787034498007     1.007825032070
           H         -0.460785997256    -1.085972028681     0.956155501993     1.007825032070
           C          1.954276002744    -0.144427028681     0.034666501993    12.000000000000
           H          0.474783002744     1.059680971319    -0.977777498007     1.007825032070
           H          0.468806002744     1.233684971319     0.755502501993     1.007825032070
           H          2.102917002744    -0.853912028681    -0.774642498007     1.007825032070
           H          2.742446002744     0.598758971319    -0.030564498007     1.007825032070
           H          2.083238002744    -0.680174028681     0.971089501993     1.007825032070

  Charge       = 0
  Multiplicity = 1
  Basis Set: 6-31G*
  Basis Set:

    Orbital Energies (a.u.)
    -----------------------

    Doubly Occupied:

       1A    -15.532733     2A    -11.240073     3A    -11.212705
       4A    -11.209542     5A     -1.176966     6A     -1.035341
       7A     -0.898687     8A     -0.800438     9A     -0.660323
      10A     -0.631154    11A     -0.602823    12A     -0.565357
      13A     -0.531968    14A     -0.492120    15A     -0.476559
      16A     -0.469173    17A     -0.381576

  @DF-RHF Final Energy:  -173.28238979113416

   => Energetics <=

    Nuclear Repulsion Energy =            131.7967297511850688
    One-Electron Energy =                -494.3231777077519951
    Two-Electron Energy =                 189.2440581654327900
    DFT Exchange-Correlation Energy =       0.0000000000000000
    Empirical Dispersion Energy =           0.0000000000000000
    PCM Polarization Energy =               0.0000000000000000
    EFP Energy =                            0.0000000000000000
    Total Energy =                       -173.2823897911341362

  Mulliken Charges: (a.u.)
   Center  Symbol    Alpha    Beta     Spin     Total
       1     H     0.33249  0.33249  0.00000  0.33502
       2     N     3.92177  3.92177  0.00000 -0.84354
       3     C     3.05847  3.05847  0.00000 -0.11694
       4     H     0.33543  0.33543  0.00000  0.32914
       5     C     3.15225  3.15225  0.00000 -0.30449
       6     H     0.42083  0.42083  0.00000  0.15834
       7     H     0.43530  0.43530  0.00000  0.12939
       8     C     3.24365  3.24365  0.00000 -0.48730
       9     H     0.41228  0.41228  0.00000  0.17545
      10     H     0.42693  0.42693  0.00000  0.14613
      11     H     0.42080  0.42080  0.00000  0.15839
      12     H     0.41762  0.41762  0.00000  0.16477
      13     H     0.42218  0.42218  0.00000  0.15564

   Total alpha = 17.00000, Total beta = 17.00000, Total charge =  0.00000
