                              Psi4 1.0.54 Driver

  ==> Input File <==

--------------------------------------------------------------------------
set {
	reference rhf
	basis cc-pvtz
}

set_num_threads( 4 )
memory 2 gb

molecule MOL {
0 1

H	 1.683151	 1.003545	 0.937735
C	 0.813373	 1.105264	 0.305399
O	 0.000000	 0.000000	 0.518769
H	 0.302036	 2.031417	 0.559626
H	 1.139119	 1.166257	 -0.730953
C	 -1.165153	 0.000000	 -0.236961
H	 -1.229451	 0.882440	 -0.870223
H	 -2.002557	 0.000000	 0.445289
H	 -1.229451	 -0.882440	 -0.870223

	symmetry c1
}
set optking {
	frozen_dihedral = ("
		2 3 6 7
	")
}

ee,wfn = optimize('scf', return_wfn=True)
oeprop( wfn, 'DIPOLE', 'QUADRUPOLE', 'MULLIKEN_CHARGES')
f=open( 'psi4out.xyz', 'w' )
f.write( "9  " )
f.write( str(ee) + "\n" )
f.write( MOL.save_string_xyz() )
f.close()
--------------------------------------------------------------------------

    Molecular point group: c1
  Charge       = 0
  Multiplicity = 1
  Basis Set: CC-PVTZ
  Basis Set:
  @DF-RHF Final Energy:  -154.12293220992399
    Total Energy =                       -154.1229322099239312
    Molecular point group: c1
  Basis Set: CC-PVTZ
  Basis Set:
  Basis Set: CC-PVTZ
  Basis Set:
  @DF-RHF Final Energy:  -154.12333080746751
    Total Energy =                       -154.1233308074674255
  Basis Set: CC-PVTZ
  Basis Set:
  Basis Set: CC-PVTZ
  Basis Set:
  @DF-RHF Final Energy:  -154.12344439636260
    Total Energy =                       -154.1234443963625722
  Basis Set: CC-PVTZ
  Basis Set:
  Charge       = 0
  Multiplicity = 1
  Basis Set: CC-PVTZ
  Basis Set:

    Orbital Energies (a.u.)
    -----------------------

    Doubly Occupied:

       1A    -20.546510     2A    -11.263603     3A    -11.262637
       4A     -1.377558     5A     -0.975815     6A     -0.872597
       7A     -0.658584     8A     -0.654905     9A     -0.644656
      10A     -0.559117    11A     -0.527810    12A     -0.475189
      13A     -0.414687

  @DF-RHF Final Energy:  -154.12344517743782

   => Energetics <=

    Nuclear Repulsion Energy =             84.5705866324916826
    One-Electron Energy =                -376.9207273790676709
    Two-Electron Energy =                 138.2266955691381156
    DFT Exchange-Correlation Energy =       0.0000000000000000
    Empirical Dispersion Energy =           0.0000000000000000
    PCM Polarization Energy =               0.0000000000000000
    EFP Energy =                            0.0000000000000000
    Total Energy =                       -154.1234451774379011
    Molecular point group: c1
  Basis Set: CC-PVTZ
  Basis Set:

  -Total Gradient:
     Atom            X                  Y                   Z
    ------   -----------------  -----------------  -----------------
       1        0.000022630213     0.000023381521     0.000005446498
       2        0.000119020190     0.000042937216     0.000011477531
       3       -0.000117977596     0.000017451463    -0.000105990500
       4       -0.000028573568    -0.000050221441    -0.000008521273
       5       -0.000026538311    -0.000004240104     0.000008933737
       6        0.000001695396    -0.000023979113     0.000115633501
       7        0.000047312465    -0.000001664041     0.000001429052
       8       -0.000029374506    -0.000005424614    -0.000013946913
       9        0.000011805717     0.000001759114    -0.000014461633

  **** Optimization is complete! (in 4 steps) ****
    Final optimized geometry and variables:
    Molecular point group: c1

    Geometry (in Angstrom), charge = 0, multiplicity = 1:

    H            1.817709542166     0.578621904132     0.770859044711
    C            0.963655431946     0.707152301048     0.121443428291
    O            0.107826396436    -0.367048312290     0.333326084859
    H            0.485928721045     1.654718093180     0.359668931516
    H            1.312932350356     0.746204055897    -0.907819317779
    C           -1.062494168139    -0.372301888274    -0.425816379232
    H           -1.123924473947     0.489037281721    -1.083118553434
    H           -1.925982636875    -0.362164036262     0.229573372761
    H           -1.101090762718    -1.268100721787    -1.035173750465

  Mulliken Charges: (a.u.)
   Center  Symbol    Alpha    Beta     Spin     Total
       1     H     0.44986  0.44986  0.00000  0.10029
       2     C     3.02074  3.02074  0.00000 -0.04148
       3     O     4.17304  4.17304  0.00000 -0.34608
       4     H     0.47307  0.47307  0.00000  0.05387
       5     H     0.47306  0.47306  0.00000  0.05387
       6     C     3.01604  3.01604  0.00000 -0.03209
       7     H     0.47467  0.47467  0.00000  0.05066
       8     H     0.45976  0.45976  0.00000  0.08049
       9     H     0.45976  0.45976  0.00000  0.08047

   Total alpha = 13.00000, Total beta = 13.00000, Total charge = -0.00000

*** Psi4 exiting successfully. Buy a developer a beer!
