  ==> Input File <==

--------------------------------------------------------------------------
set {
	reference rhf
	basis 6-31G*
}

set_num_threads( 1 )
memory 2 gb

molecule MOL {
0 1

O	 -1.329485	 1.062595	 -0.599987
C	 -1.083277	 0.139568	 0.115197
C	 0.323299	 -0.082943	 0.642902
C	 -2.143673	 -0.863929	 0.510649
C	 1.355627	 -0.005344	 -0.493127
H	 0.396251	 -1.044647	 1.143147
H	 0.528637	 0.693580	 1.371677
C	 2.786168	 -0.195604	 0.007473
H	 1.132807	 -0.760304	 -1.243899
H	 1.259610	 0.958506	 -0.981915
H	 3.495561	 -0.130713	 -0.811210
H	 2.912696	 -1.165395	 0.480041
H	 3.049284	 0.565503	 0.735850
H	 -1.805773	 -1.877875	 0.317243
H	 -3.057209	 -0.670842	 -0.034240
H	 -2.337347	 -0.788827	 1.577446

	symmetry c1
}
set optking {
	frozen_dihedral = ("
		9 5 3 2
	")
}

ee = energy('scf')
oeprop('DIPOLE', 'QUADRUPOLE', 'MULLIKEN_CHARGES')
f=open( 'psi4out.xyz', 'w' )
f.write( "16  " )
f.write( str(ee) + "\n" )
f.write( MOL.save_string_xyz() )
f.close()
--------------------------------------------------------------------------

    Molecular point group: c1

    Geometry (in Angstrom), charge = 0, multiplicity = 1:

       Center              X                  Y                   Z               Mass
    ------------   -----------------  -----------------  -----------------  -----------------
           O         -1.320316831393     1.055124045136    -0.627574150899    15.994914619560
           C         -1.074108831393     0.132097045136     0.087609849101    12.000000000000
           C          0.332467168607    -0.090413954864     0.615314849101    12.000000000000
           C         -2.134504831393    -0.871399954864     0.483061849101    12.000000000000
           C          1.364795168607    -0.012814954864    -0.520714150899    12.000000000000
           H          0.405419168607    -1.052117954864     1.115559849101     1.007825032070
           H          0.537805168607     0.686109045136     1.344089849101     1.007825032070
           C          2.795336168607    -0.203074954864    -0.020114150899    12.000000000000
           H          1.141975168607    -0.767774954864    -1.271486150899     1.007825032070
           H          1.268778168607     0.951035045136    -1.009502150899     1.007825032070
           H          3.504729168607    -0.138183954864    -0.838797150899     1.007825032070
           H          2.921864168607    -1.172865954864     0.452453849101     1.007825032070
           H          3.058452168607     0.558032045136     0.708262849101     1.007825032070
           H         -1.796604831393    -1.885345954864     0.289655849101     1.007825032070
           H         -3.048040831393    -0.678312954864    -0.061827150899     1.007825032070
           H         -2.328178831393    -0.796297954864     1.549858849101     1.007825032070

  Charge       = 0
  Multiplicity = 1
  Basis Set: 6-31G*
  Basis Set:

    Orbital Energies (a.u.)
    -----------------------

    Doubly Occupied:

       1A    -20.548669     2A    -11.326034     3A    -11.230678
       4A    -11.228924     5A    -11.225631     6A    -11.215323
       7A     -1.394869     8A     -1.077909     9A     -1.014542
      10A     -0.948055    11A     -0.824389    12A     -0.733776
      13A     -0.658025    14A     -0.648905    15A     -0.616874
      16A     -0.601784    17A     -0.572198    18A     -0.560145
      19A     -0.544159    20A     -0.508323    21A     -0.495637
      22A     -0.480338    23A     -0.472464    24A     -0.399097

  @DF-RHF Final Energy:  -270.03027079995724

   => Energetics <=

    Nuclear Repulsion Energy =            237.0845910007851671
    One-Electron Energy =                -835.5762731945113728
    Two-Electron Energy =                 328.4614113937687989
    DFT Exchange-Correlation Energy =       0.0000000000000000
    Empirical Dispersion Energy =           0.0000000000000000
    PCM Polarization Energy =               0.0000000000000000
    EFP Energy =                            0.0000000000000000
    Total Energy =                       -270.0302707999574068

  Mulliken Charges: (a.u.)
   Center  Symbol    Alpha    Beta     Spin     Total
       1     O     4.26347  4.26347  0.00000 -0.52694
       2     C     2.73539  2.73539  0.00000  0.52922
       3     C     3.20364  3.20364  0.00000 -0.40729
       4     C     3.28881  3.28881  0.00000 -0.57763
       5     C     3.15636  3.15636  0.00000 -0.31273
       6     H     0.41608  0.41608  0.00000  0.16785
       7     H     0.40234  0.40234  0.00000  0.19533
       8     C     3.24055  3.24055  0.00000 -0.48110
       9     H     0.41962  0.41962  0.00000  0.16075
      10     H     0.40200  0.40200  0.00000  0.19599
      11     H     0.41575  0.41575  0.00000  0.16849
      12     H     0.42239  0.42239  0.00000  0.15523
      13     H     0.42009  0.42009  0.00000  0.15983
      14     H     0.40953  0.40953  0.00000  0.18093
      15     H     0.39718  0.39718  0.00000  0.20563
      16     H     0.40678  0.40678  0.00000  0.18644

   Total alpha = 24.00000, Total beta = 24.00000, Total charge =  0.00000
