  ==> Input File <==

--------------------------------------------------------------------------
set {
	reference rhf
	basis 6-31G*
}

set_num_threads( 4 )
memory 2 gb

molecule MOL {
0 1

H	 2.542190	 -0.740177	 0.784140
O	 2.016064	 -0.864478	 0.000222
C	 1.050492	 0.053836	 0.000068
C	 -0.318135	 -0.576402	 0.000164
O	 1.285279	 1.218255	 -0.000078
C	 -1.454360	 0.441875	 -0.000474
H	 -0.374042	 -1.230163	 -0.866135
H	 -0.374274	 -1.229227	 0.867154
C	 -2.826123	 -0.230780	 0.000056
H	 -1.357605	 1.085198	 -0.868380
H	 -1.357504	 1.086451	 0.866496
H	 -2.959731	 -0.858053	 -0.876869
H	 -3.619374	 0.509403	 -0.000080
H	 -2.959371	 -0.857318	 0.877556

	symmetry c1
}
set optking {
	frozen_dihedral = ("
		1 2 3 5
	")
}

ee = optimize('scf')
oeprop('DIPOLE', 'QUADRUPOLE', 'MULLIKEN_CHARGES')
f=open( 'psi4out.xyz', 'w' )
f.write( "14  " )
f.write( str(ee) + "\n" )
f.write( MOL.save_string_xyz() )
f.close()
--------------------------------------------------------------------------

    Molecular point group: c1
  Charge       = 0
  Multiplicity = 1
  Basis Set: 6-31G*
  Basis Set:
  @DF-RHF Final Energy:  -305.86438711359415
    Total Energy =                       -305.8643871135943755
    Molecular point group: c1
  Basis Set: 6-31G*
  Basis Set:
  Basis Set: 6-31G*
  Basis Set:
  @DF-RHF Final Energy:  -305.86288232539619
    Total Energy =                       -305.8628823253960718
  Basis Set: 6-31G*
  Basis Set:
  Basis Set: 6-31G*
  Basis Set:
  @DF-RHF Final Energy:  -305.86560037366155
    Total Energy =                       -305.8656003736615503
  Basis Set: 6-31G*
  Basis Set:
  Basis Set: 6-31G*
  Basis Set:
  @DF-RHF Final Energy:  -305.86580242781281
    Total Energy =                       -305.8658024278129233
  Basis Set: 6-31G*
  Basis Set:
  Basis Set: 6-31G*
  Basis Set:
  @DF-RHF Final Energy:  -305.86580678944358
    Total Energy =                       -305.8658067894437522
  Basis Set: 6-31G*
  Basis Set:
  Charge       = 0
  Multiplicity = 1
  Basis Set: 6-31G*
  Basis Set:

    Orbital Energies (a.u.)
    -----------------------

    Doubly Occupied:

       1A    -20.599656     2A    -20.559621     3A    -11.381872
       4A    -11.241060     5A    -11.225514     6A    -11.217371
       7A     -1.463667     8A     -1.367407     9A     -1.082213
      10A     -0.977228    11A     -0.853822    12A     -0.793377
      13A     -0.705839    14A     -0.680622    15A     -0.662715
      16A     -0.626942    17A     -0.578419    18A     -0.563079
      19A     -0.544016    20A     -0.504747    21A     -0.494583
      22A     -0.482408    23A     -0.480111    24A     -0.444300

  @DF-RHF Final Energy:  -305.86580737978795

   => Energetics <=

    Nuclear Repulsion Energy =            239.3610824507971131
    One-Electron Energy =                -891.3926016411535329
    Two-Electron Energy =                 346.1657118105685527
    DFT Exchange-Correlation Energy =       0.0000000000000000
    Empirical Dispersion Energy =           0.0000000000000000
    PCM Polarization Energy =               0.0000000000000000
    EFP Energy =                            0.0000000000000000
    Total Energy =                       -305.8658073797878956
    Molecular point group: c1
  Basis Set: 6-31G*
  Basis Set:

  -Total Gradient:
     Atom            X                  Y                   Z
    ------   -----------------  -----------------  -----------------
       1       -0.006004908394    -0.006964018873     0.005962332375
       2        0.006966707618     0.008768981336    -0.012007383115
       3       -0.000022680151    -0.001950997594     0.015828974164
       4        0.000055875020    -0.000008613662     0.000059226951
       5       -0.000988898340     0.000097370945    -0.009756092876
       6       -0.000003149311    -0.000008213035    -0.000032895166
       7       -0.000003062233     0.000040311943    -0.000049488071
       8        0.000011955812     0.000021846857    -0.000016956444
       9       -0.000013612901     0.000008151890     0.000005674738
      10        0.000003386368    -0.000004017929     0.000001701580
      11        0.000000310100     0.000001050903     0.000006136070
      12       -0.000000076528     0.000002159736    -0.000003357092
      13       -0.000004095599    -0.000003630209     0.000001833781
      14        0.000002248535    -0.000000382309     0.000000293104

  **** Optimization is complete! (in 6 steps) ****
    Final optimized geometry and variables:
    Molecular point group: c1

    Geometry (in Angstrom), charge = 0, multiplicity = 1:

    H            2.653143978145    -0.783833399591     0.654520119082
    O            2.036259584336    -0.865023932274    -0.063397286189
    C            1.053380862326     0.061713147118     0.036212345782
    C           -0.316755837070    -0.565130672814     0.017933089388
    O            1.277303548516     1.222637501409     0.031853389736
    C           -1.457347802697     0.446871875932    -0.019303208341
    H           -0.349844258639    -1.231838968351    -0.839944711371
    H           -0.389636813612    -1.210723223579     0.890299848497
    C           -2.826631238991    -0.230818752481    -0.036950630247
    H           -1.345314025776     1.077964984724    -0.894457341048
    H           -1.381153980845     1.104848101029     0.839879603107
    H           -2.939906874018    -0.871060872210    -0.907269302314
    H           -3.622539898318     0.506032350785    -0.063864159540
    H           -2.975663084752    -0.845377121437     0.846564869447

  Mulliken Charges: (a.u.)
   Center  Symbol    Alpha    Beta     Spin     Total
       1     H     0.26592  0.26592  0.00000  0.46817
       2     O     4.36476  4.36476  0.00000 -0.72953
       3     C     2.63006  2.63006  0.00000  0.73988
       4     C     3.20846  3.20846  0.00000 -0.41692
       5     O     4.25545  4.25545  0.00000 -0.51091
       6     C     3.15266  3.15266  0.00000 -0.30532
       7     H     0.39732  0.39732  0.00000  0.20535
       8     H     0.40507  0.40507  0.00000  0.18987
       9     C     3.24276  3.24276  0.00000 -0.48553
      10     H     0.40965  0.40965  0.00000  0.18069
      11     H     0.41144  0.41144  0.00000  0.17712
      12     H     0.42043  0.42043  0.00000  0.15915
      13     H     0.41447  0.41447  0.00000  0.17107
      14     H     0.42154  0.42154  0.00000  0.15691

   Total alpha = 24.00000, Total beta = 24.00000, Total charge = -0.00000
