  ==> Input File <==

--------------------------------------------------------------------------
set {
	reference rhf
	basis 6-31G*
}

set_num_threads( 4 )
memory 2 gb

molecule MOL {
0 1

O	 3.225979	 0.970355	 -0.599647
C	 2.701189	 0.057885	 -0.047330
C	 1.245376	 -0.013843	 0.345420
O	 3.347903	 -1.046386	 0.304773
C	 0.455112	 1.231400	 -0.050772
H	 0.838542	 -0.913825	 -0.103701
H	 1.208210	 -0.175333	 1.419774
C	 -0.998893	 1.219485	 0.433193
H	 0.482531	 1.345121	 -1.130325
H	 0.957290	 2.103070	 0.354729
C	 -2.035183	 1.602591	 -0.627206
H	 -1.082105	 1.913060	 1.266710
H	 -1.239419	 0.236022	 0.834388
C	 -3.457055	 1.682803	 -0.067880
H	 -1.764645	 2.564201	 -1.060720
H	 -2.019118	 0.884089	 -1.443581
C	 -4.501808	 2.059781	 -1.119787
H	 -3.484696	 2.410246	 0.741624
H	 -3.724241	 0.724749	 0.375339
C	 -5.918488	 2.141480	 -0.552297
H	 -4.235798	 3.016437	 -1.564412
H	 -4.478699	 1.331376	 -1.927668
H	 -6.635891	 2.410380	 -1.321474
H	 -5.982947	 2.887102	 0.235160
H	 -6.227384	 1.189199	 -0.130377
C	 4.728119	 -1.109107	 -0.004993
H	 4.882018	 -1.033965	 -1.071845
H	 5.068212	 -2.067527	 0.355250
H	 5.265056	 -0.311663	 0.488280

	symmetry c1
}
set optking {
	frozen_dihedral = ("
		11 8 5 9
	")
}

ee = optimize('scf')
oeprop('DIPOLE', 'QUADRUPOLE', 'MULLIKEN_CHARGES')
f=open( 'psi4out.xyz', 'w' )
f.write( "29  " )
f.write( str(ee) + "\n" )
f.write( MOL.save_string_xyz() )
f.close()
--------------------------------------------------------------------------

    Molecular point group: c1
  Charge       = 0
  Multiplicity = 1
  Basis Set: 6-31G*
  Basis Set:
  @DF-RHF Final Energy:  -501.04017860481349
    Total Energy =                       -501.0401786048129225
    Molecular point group: c1
  Basis Set: 6-31G*
  Basis Set:
  Basis Set: 6-31G*
  Basis Set:
  @DF-RHF Final Energy:  -501.04071169190593
    Total Energy =                       -501.0407116919052442
  Basis Set: 6-31G*
  Basis Set:
  Basis Set: 6-31G*
  Basis Set:
  @DF-RHF Final Energy:  -501.04068386872029
    Total Energy =                       -501.0406838687205209
  Basis Set: 6-31G*
  Basis Set:
  Basis Set: 6-31G*
  Basis Set:
  @DF-RHF Final Energy:  -501.04067932188821
    Total Energy =                       -501.0406793218883195
  Basis Set: 6-31G*
  Basis Set:
  Basis Set: 6-31G*
  Basis Set:
  @DF-RHF Final Energy:  -501.04077811169179
    Total Energy =                       -501.0407781116915658
  Basis Set: 6-31G*
  Basis Set:
  Basis Set: 6-31G*
  Basis Set:
  @DF-RHF Final Energy:  -501.04078066015791
    Total Energy =                       -501.0407806601574521
  Basis Set: 6-31G*
  Basis Set:
  Basis Set: 6-31G*
  Basis Set:
  @DF-RHF Final Energy:  -501.04078540823218
    Total Energy =                       -501.0407854082320682
  Basis Set: 6-31G*
  Basis Set:
  Charge       = 0
  Multiplicity = 1
  Basis Set: 6-31G*
  Basis Set:

    Orbital Energies (a.u.)
    -----------------------

    Doubly Occupied:

       1A    -20.603489     2A    -20.545373     3A    -11.371947
       4A    -11.280747     5A    -11.235747     6A    -11.218462
       7A    -11.217129     8A    -11.214804     9A    -11.214698
      10A    -11.213152    11A    -11.208258    12A     -1.469164
      13A     -1.362626    14A     -1.095881    15A     -1.066766
      16A     -1.019835    17A     -0.977216    18A     -0.926511
      19A     -0.856307    20A     -0.801711    21A     -0.790311
      22A     -0.767055    23A     -0.698958    24A     -0.682487
      25A     -0.672108    26A     -0.652131    27A     -0.628376
      28A     -0.598808    29A     -0.595328    30A     -0.582974
      31A     -0.565571    32A     -0.547849    33A     -0.529681
      34A     -0.529395    35A     -0.514652    36A     -0.509886
      37A     -0.496032    38A     -0.478590    39A     -0.467821
      40A     -0.462146    41A     -0.460149    42A     -0.455756
      43A     -0.443705    44A     -0.430928

  @DF-RHF Final Energy:  -501.04078553856004

   => Energetics <=

    Nuclear Repulsion Energy =            603.0367911550307554
    One-Electron Energy =               -1877.2341195044753022
    Two-Electron Energy =                 773.1565428108842752
    DFT Exchange-Correlation Energy =       0.0000000000000000
    Empirical Dispersion Energy =           0.0000000000000000
    PCM Polarization Energy =               0.0000000000000000
    EFP Energy =                            0.0000000000000000
    Total Energy =                       -501.0407855385601579
    Molecular point group: c1
  Basis Set: 6-31G*
  Basis Set:

  -Total Gradient:
     Atom            X                  Y                   Z
    ------   -----------------  -----------------  -----------------
       1       -0.000000561890     0.000010259802     0.000018150612
       2       -0.000005069239    -0.000001690003    -0.000019252927
       3       -0.000008808902    -0.000014107480    -0.000006237490
       4       -0.000003391375    -0.000002984149     0.000003417081
       5       -0.000157385124    -0.004134462464    -0.000565500804
       6       -0.000000863476    -0.000000820903     0.000005716815
       7        0.000003530939    -0.000000252966     0.000008680736
       8        0.000250852838     0.003318087061     0.000823066633
       9        0.000077673336     0.002736694724     0.000264838378
      10        0.000003751972     0.000006359395    -0.000014870022
      11       -0.000158654954    -0.001892846666    -0.000516949201
      12       -0.000010631750    -0.000010175406     0.000004332123
      13       -0.000000025028    -0.000003403229     0.000003125229
      14        0.000010071198     0.000000755118     0.000002170311
      15       -0.000006538308     0.000001275021    -0.000017533361
      16        0.000007147025    -0.000005933036     0.000007807589
      17        0.000000814726    -0.000006709713    -0.000003838327
      18       -0.000004180181    -0.000005877837     0.000005586258
      19        0.000003980508    -0.000003769951    -0.000007797399
      20       -0.000000305045     0.000014932554     0.000002987312
      21        0.000001408293    -0.000004583853    -0.000005255790
      22       -0.000001942645    -0.000004067886     0.000004075520
      23       -0.000000542337     0.000004678693     0.000001527834
      24       -0.000002578079    -0.000001893901     0.000004237951
      25        0.000002044070    -0.000000119016    -0.000004712631
      26       -0.000000803303     0.000000701473     0.000001871680
      27        0.000000054375     0.000000058327     0.000000405199
      28        0.000000344216    -0.000000026354     0.000000167532
      29        0.000000608129    -0.000000077351    -0.000000216844

  **** Optimization is complete! (in 8 steps) ****
    Final optimized geometry and variables:
    Molecular point group: c1

    Geometry (in Angstrom), charge = 0, multiplicity = 1:

    O            3.271281201189     0.137931280343    -0.507090492745
    C            2.752928696115    -0.730291988756     0.117983875031
    C            1.318334800796    -0.739050451336     0.586773493611
    O            3.387967067402    -1.833495427389     0.493399910081
    C            0.538016650424     0.506187331149     0.178013864436
    H            0.853249248025    -1.639734233628     0.195441416002
    H            1.329639650701    -0.857984158513     1.666893916273
    C           -0.918421734785     0.498095491876     0.689043487878
    H            0.557365046451     0.609305969688    -0.901782415406
    H            1.057245206964     1.382199251883     0.551258875005
    C           -1.939851514368     0.875389802024    -0.386580804752
    H           -1.016399638387     1.171681300293     1.536182639046
    H           -1.172334523695    -0.490664421462     1.066900512000
    C           -3.380164542237     0.893335079748     0.126410973027
    H           -1.689916932787     1.853417826062    -0.794540381320
    H           -1.858564346163     0.171999133739    -1.213485890664
    C           -4.402321814740     1.260902897270    -0.950865474949
    H           -3.459812377869     1.599229940536     0.951618735888
    H           -3.628794420682    -0.083900409199     0.537766238304
    C           -5.838971221239     1.280181220352    -0.429949507271
    H           -4.155161567123     2.236803945928    -1.363205548015
    H           -4.326952966222     0.554248746034    -1.774648217235
    H           -6.539434198330     1.544486874535    -1.216164643840
    H           -5.955201345434     2.002685288836     0.373013526515
    H           -6.128644496366     0.307475462286    -0.042311915053
    C            4.747535740659    -1.952356775693     0.116037193358
    H            4.846201348453    -1.935887400241    -0.959842666382
    H            5.080680683543    -2.900866546376     0.507595178948
    H            5.331061020660    -1.147057685700     0.538551586832

  Mulliken Charges: (a.u.)
   Center  Symbol    Alpha    Beta     Spin     Total
       1     O     4.28599  4.28599  0.00000 -0.57198
       2     C     2.60553  2.60553  0.00000  0.78894
       3     C     3.20969  3.20969  0.00000 -0.41938
       4     O     4.30739  4.30739  0.00000 -0.61478
       5     C     3.15606  3.15606  0.00000 -0.31212
       6     H     0.40068  0.40068  0.00000  0.19863
       7     H     0.40013  0.40013  0.00000  0.19974
       8     C     3.15712  3.15712  0.00000 -0.31424
       9     H     0.40921  0.40921  0.00000  0.18157
      10     H     0.40944  0.40944  0.00000  0.18112
      11     C     3.15390  3.15390  0.00000 -0.30779
      12     H     0.41898  0.41898  0.00000  0.16204
      13     H     0.42285  0.42285  0.00000  0.15431
      14     C     3.15156  3.15156  0.00000 -0.30311
      15     H     0.42125  0.42125  0.00000  0.15749
      16     H     0.42334  0.42334  0.00000  0.15331
      17     C     3.15140  3.15140  0.00000 -0.30280
      18     H     0.42382  0.42382  0.00000  0.15236
      19     H     0.42449  0.42449  0.00000  0.15102
      20     C     3.23927  3.23927  0.00000 -0.47853
      21     H     0.42256  0.42256  0.00000  0.15488
      22     H     0.42312  0.42312  0.00000  0.15377
      23     H     0.41926  0.41926  0.00000  0.16147
      24     H     0.42180  0.42180  0.00000  0.15639
      25     H     0.42205  0.42205  0.00000  0.15590
      26     C     3.09245  3.09245  0.00000 -0.18489
      27     H     0.40909  0.40909  0.00000  0.18182
      28     H     0.40848  0.40848  0.00000  0.18305
      29     H     0.40909  0.40909  0.00000  0.18182

   Total alpha = 44.00000, Total beta = 44.00000, Total charge = -0.00000
