  ==> Input File <==

--------------------------------------------------------------------------
set {
	reference rhf
	basis 6-31G*
}

set_num_threads( 4 )
memory 2 gb

molecule MOL {
0 1

O	 3.225979	 0.970355	 -0.599647
C	 2.701189	 0.057885	 -0.047330
C	 1.245376	 -0.013843	 0.345420
O	 3.347903	 -1.046386	 0.304773
C	 1.033027	 -0.513854	 1.772659
H	 0.825844	 0.975261	 0.194235
H	 0.748302	 -0.660173	 -0.373520
C	 -0.441224	 -0.692161	 2.151192
H	 1.510954	 0.170462	 2.467220
H	 1.546222	 -1.462582	 1.886539
C	 -1.252387	 0.605124	 2.215824
H	 -0.482949	 -1.176735	 3.123905
H	 -0.914597	 -1.379528	 1.451582
C	 -2.686031	 0.386702	 2.703632
H	 -0.750326	 1.308250	 2.878671
H	 -1.282916	 1.077118	 1.236405
C	 -3.507621	 1.675529	 2.767234
H	 -2.664228	 -0.073589	 3.689984
H	 -3.185257	 -0.324541	 2.047426
C	 -4.936864	 1.449283	 3.258945
H	 -3.009651	 2.387746	 3.421768
H	 -3.534215	 2.134815	 1.781267
H	 -5.493630	 2.380656	 3.293039
H	 -4.944795	 1.022569	 4.257968
H	 -5.473106	 0.767208	 2.605116
C	 4.728119	 -1.109107	 -0.004993
H	 4.882018	 -1.033965	 -1.071845
H	 5.068212	 -2.067527	 0.355250
H	 5.265056	 -0.311663	 0.488280

	symmetry c1
}
set optking {
	frozen_dihedral = ("
		6 3 2 1
	")
}

ee = optimize('scf')
oeprop('DIPOLE', 'QUADRUPOLE', 'MULLIKEN_CHARGES')
f=open( 'psi4out.xyz', 'w' )
f.write( "29  " )
f.write( str(ee) + "\n" )
f.write( MOL.save_string_xyz() )
f.close()
--------------------------------------------------------------------------

    Molecular point group: c1
  Charge       = 0
  Multiplicity = 1
  Basis Set: 6-31G*
  Basis Set:
  @DF-RHF Final Energy:  -501.04196757129921
    Total Energy =                       -501.0419675713002334
    Molecular point group: c1
  Basis Set: 6-31G*
  Basis Set:
  Basis Set: 6-31G*
  Basis Set:
  @DF-RHF Final Energy:  -501.04069689796813
    Total Energy =                       -501.0406968979684734
  Basis Set: 6-31G*
  Basis Set:
  Basis Set: 6-31G*
  Basis Set:
  @DF-RHF Final Energy:  -501.04221403627560
    Total Energy =                       -501.0422140362754817
  Basis Set: 6-31G*
  Basis Set:
  Basis Set: 6-31G*
  Basis Set:
  @DF-RHF Final Energy:  -501.04249460097037
    Total Energy =                       -501.0424946009711675
  Basis Set: 6-31G*
  Basis Set:
  Basis Set: 6-31G*
  Basis Set:
  @DF-RHF Final Energy:  -501.04237134354582
    Total Energy =                       -501.0423713435463924
  Basis Set: 6-31G*
  Basis Set:
  Basis Set: 6-31G*
  Basis Set:
  @DF-RHF Final Energy:  -501.04250517136381
    Total Energy =                       -501.0425051713642688
  Basis Set: 6-31G*
  Basis Set:
  Basis Set: 6-31G*
  Basis Set:
  @DF-RHF Final Energy:  -501.04250636054883
    Total Energy =                       -501.0425063605490550
  Basis Set: 6-31G*
  Basis Set:
  Charge       = 0
  Multiplicity = 1
  Basis Set: 6-31G*
  Basis Set:

    Orbital Energies (a.u.)
    -----------------------

    Doubly Occupied:

       1A    -20.604433     2A    -20.542939     3A    -11.371064
       4A    -11.280952     5A    -11.233878     6A    -11.226085
       7A    -11.220740     8A    -11.216973     9A    -11.216090
      10A    -11.215224    11A    -11.209223    12A     -1.468958
      13A     -1.360962    14A     -1.100319    15A     -1.068143
      16A     -1.019065    17A     -0.973696    18A     -0.931567
      19A     -0.864731    20A     -0.799543    21A     -0.790954
      22A     -0.772824    23A     -0.697381    24A     -0.679421
      25A     -0.672522    26A     -0.651631    27A     -0.627692
      28A     -0.604841    29A     -0.593844    30A     -0.578904
      31A     -0.561189    32A     -0.555234    33A     -0.538508
      34A     -0.530136    35A     -0.518684    36A     -0.514892
      37A     -0.496015    38A     -0.482801    39A     -0.472004
      40A     -0.464601    41A     -0.463003    42A     -0.455048
      43A     -0.443250    44A     -0.426656

  @DF-RHF Final Energy:  -501.04250640594057

   => Energetics <=

    Nuclear Repulsion Energy =            611.9437407421218040
    One-Electron Energy =               -1894.9392609888234347
    Two-Electron Energy =                 781.9530138407609456
    DFT Exchange-Correlation Energy =       0.0000000000000000
    Empirical Dispersion Energy =           0.0000000000000000
    PCM Polarization Energy =               0.0000000000000000
    EFP Energy =                            0.0000000000000000
    Total Energy =                       -501.0425064059407987
    Molecular point group: c1
  Basis Set: 6-31G*
  Basis Set:

  -Total Gradient:
     Atom            X                  Y                   Z
    ------   -----------------  -----------------  -----------------
       1       -0.000213345374    -0.000382215128    -0.000818739645
       2        0.000323748449     0.000632558029     0.001339549927
       3       -0.000326765165    -0.000454379345    -0.001340632357
       4        0.000012460663    -0.000033484246     0.000008946386
       5        0.000005093836    -0.000001134569     0.000007874208
       6        0.000202779883     0.000236047537     0.000820642495
       7        0.000005222929    -0.000003995248    -0.000006473542
       8       -0.000001594383     0.000000244623    -0.000005432220
       9        0.000007006825     0.000006309042     0.000003213377
      10       -0.000005450513     0.000000270648     0.000001158478
      11        0.000008033320    -0.000001256245     0.000009278132
      12        0.000008951057    -0.000000811998    -0.000003299721
      13       -0.000007971415    -0.000001298364     0.000000143618
      14       -0.000004965009    -0.000001100069    -0.000011376678
      15       -0.000002536661     0.000008566506    -0.000002708331
      16        0.000002346321    -0.000006642073    -0.000004250348
      17       -0.000000417105     0.000000517820     0.000004154630
      18       -0.000000557032    -0.000004924166    -0.000005803606
      19       -0.000000308127     0.000002964653    -0.000006681971
      20        0.000002564443     0.000001966242     0.000008875886
      21        0.000002055048     0.000004312321    -0.000003079273
      22       -0.000003171132    -0.000004989082     0.000000066788
      23        0.000000464225     0.000000155232     0.000001986692
      24       -0.000002230380    -0.000001255285     0.000000922977
      25        0.000002120653     0.000001230210    -0.000000943632
      26       -0.000009519139     0.000004368411     0.000000579041
      27        0.000000102286    -0.000000045376     0.000000424569
      28       -0.000004384179    -0.000001523458     0.000001922617
      29        0.000000265667    -0.000000456626    -0.000000318489

  **** Optimization is complete! (in 8 steps) ****
    Final optimized geometry and variables:
    Molecular point group: c1

    Geometry (in Angstrom), charge = 0, multiplicity = 1:

    O            2.817759750748     0.819173426661    -1.923423948285
    C            2.345334854924    -0.116820256591    -1.362143729199
    C            0.891164417587    -0.236191220653    -0.972081083957
    O            3.047169355773    -1.196423387789    -1.042519410617
    C            0.664221638618    -0.719586731750     0.466077986607
    H            0.451559456416     0.737050786782    -1.138675761260
    H            0.430109254905    -0.933301158772    -1.668232835124
    C           -0.815509356103    -0.871604142233     0.835908967458
    H            1.139099992519    -0.026672226765     1.157517409357
    H            1.159771236982    -1.674396176738     0.595867953254
    C           -1.607498448453     0.437833382278     0.889066694362
    H           -0.870680563444    -1.351098590438     1.810571539359
    H           -1.292390293899    -1.555641576178     0.135646086459
    C           -3.048177943498     0.240983049239     1.365333178156
    H           -1.101045506775     1.135545384824     1.554172269526
    H           -1.622472015889     0.907233806483    -0.091466053878
    C           -3.850681690449     1.542158927624     1.420543077647
    H           -3.041671876387    -0.218392189561     2.352402759298
    H           -3.552528375378    -0.463439266642     0.705701303124
    C           -5.286888612154     1.338066607358     1.901500261774
    H           -3.347117884245     2.247875782148     2.077776980746
    H           -3.862590242151     2.000082344181     0.433776141261
    H           -5.829722330739     2.277780573443     1.929812028788
    H           -5.309074104688     0.913146515612     2.901104812438
    H           -5.828273206876     0.663151997730     1.244492303599
    C            4.418788220163    -1.198073253132    -1.394693844219
    H            4.535578521931    -1.110017857821    -2.465189984141
    H            4.810267613969    -2.143130248747    -1.051761630723
    H            4.935484947434    -0.380912928032    -0.912535854809

  Mulliken Charges: (a.u.)
   Center  Symbol    Alpha    Beta     Spin     Total
       1     O     4.28685  4.28685  0.00000 -0.57369
       2     C     2.60992  2.60992  0.00000  0.78016
       3     C     3.20477  3.20477  0.00000 -0.40955
       4     O     4.30269  4.30269  0.00000 -0.60539
       5     C     3.16236  3.16236  0.00000 -0.32473
       6     H     0.39585  0.39585  0.00000  0.20830
       7     H     0.40371  0.40371  0.00000  0.19258
       8     C     3.15587  3.15587  0.00000 -0.31174
       9     H     0.41749  0.41749  0.00000  0.16503
      10     H     0.40498  0.40498  0.00000  0.19004
      11     C     3.15517  3.15517  0.00000 -0.31033
      12     H     0.41858  0.41858  0.00000  0.16285
      13     H     0.42256  0.42256  0.00000  0.15488
      14     C     3.15055  3.15055  0.00000 -0.30109
      15     H     0.42241  0.42241  0.00000  0.15518
      16     H     0.42142  0.42142  0.00000  0.15716
      17     C     3.15159  3.15159  0.00000 -0.30318
      18     H     0.42376  0.42376  0.00000  0.15248
      19     H     0.42384  0.42384  0.00000  0.15231
      20     C     3.23941  3.23941  0.00000 -0.47882
      21     H     0.42262  0.42262  0.00000  0.15476
      22     H     0.42262  0.42262  0.00000  0.15476
      23     H     0.41893  0.41893  0.00000  0.16213
      24     H     0.42179  0.42179  0.00000  0.15641
      25     H     0.42179  0.42179  0.00000  0.15642
      26     C     3.09216  3.09216  0.00000 -0.18432
      27     H     0.40879  0.40879  0.00000  0.18241
      28     H     0.40889  0.40889  0.00000  0.18222
      29     H     0.40861  0.40861  0.00000  0.18277

   Total alpha = 44.00000, Total beta = 44.00000, Total charge = -0.00000
