  ==> Input File <==

--------------------------------------------------------------------------
set {
	reference rhf
	basis 6-31G*
}

set_num_threads( 4 )
memory 2 gb

molecule MOL {
0 1

H	 0.944778	 -1.028676	 -0.940961
O	 1.654024	 -0.625927	 -0.460906
C	 1.135793	 0.118896	 0.612333
C	 0.031547	 1.023609	 0.088541
H	 1.915668	 0.729681	 1.063582
H	 0.754543	 -0.542641	 1.387006
C	 -1.134819	 0.293262	 -0.585751
H	 0.474374	 1.714721	 -0.623187
H	 -0.338529	 1.620940	 0.920081
C	 -1.917817	 -0.639439	 0.339494
H	 -0.758119	 -0.268455	 -1.433105
H	 -1.813832	 1.041889	 -0.986690
H	 -2.777680	 -1.057197	 -0.174994
H	 -1.310268	 -1.471279	 0.680599
H	 -2.283753	 -0.111424	 1.216626

	symmetry c1
}
set optking {
	frozen_dihedral = ("
		1 2 3 4
	")
}

ee = optimize('scf')
oeprop('DIPOLE', 'QUADRUPOLE', 'MULLIKEN_CHARGES')
f=open( 'psi4out.xyz', 'w' )
f.write( "15  " )
f.write( str(ee) + "\n" )
f.write( MOL.save_string_xyz() )
f.close()
--------------------------------------------------------------------------

    Molecular point group: c1
  Charge       = 0
  Multiplicity = 1
  Basis Set: 6-31G*
  Basis Set:
  @DF-RHF Final Energy:  -232.13966264557448
    Total Energy =                       -232.1396626455744467
    Molecular point group: c1
  Basis Set: 6-31G*
  Basis Set:
  Basis Set: 6-31G*
  Basis Set:
  @DF-RHF Final Energy:  -232.14142720539257
    Total Energy =                       -232.1414272053926879
  Basis Set: 6-31G*
  Basis Set:
  Basis Set: 6-31G*
  Basis Set:
  @DF-RHF Final Energy:  -232.14231479370702
    Total Energy =                       -232.1423147937068165
  Basis Set: 6-31G*
  Basis Set:
  Basis Set: 6-31G*
  Basis Set:
  @DF-RHF Final Energy:  -232.14225048002785
    Total Energy =                       -232.1422504800277693
  Basis Set: 6-31G*
  Basis Set:
  Basis Set: 6-31G*
  Basis Set:
  @DF-RHF Final Energy:  -232.14237324153194
    Total Energy =                       -232.1423732415320274
  Basis Set: 6-31G*
  Basis Set:
  Basis Set: 6-31G*
  Basis Set:
  @DF-RHF Final Energy:  -232.14237614202506
    Total Energy =                       -232.1423761420250571
  Basis Set: 6-31G*
  Basis Set:
  Charge       = 0
  Multiplicity = 1
  Basis Set: 6-31G*
  Basis Set:

    Orbital Energies (a.u.)
    -----------------------

    Doubly Occupied:

       1A    -20.551356     2A    -11.266408     3A    -11.227699
       4A    -11.220181     5A    -11.217892     6A     -1.358553
       7A     -1.073929     8A     -0.977177     9A     -0.882550
      10A     -0.790224    11A     -0.688834    12A     -0.646219
      13A     -0.620099    14A     -0.586278    15A     -0.576716
      16A     -0.548948    17A     -0.505222    18A     -0.489895
      19A     -0.481022    20A     -0.460427    21A     -0.427106

  @DF-RHF Final Energy:  -232.14237700512268

   => Energetics <=

    Nuclear Repulsion Energy =            191.4634339334199353
    One-Electron Energy =                -694.0181515581823533
    Two-Electron Energy =                 270.4123406196396786
    DFT Exchange-Correlation Energy =       0.0000000000000000
    Empirical Dispersion Energy =           0.0000000000000000
    PCM Polarization Energy =               0.0000000000000000
    EFP Energy =                            0.0000000000000000
    Total Energy =                       -232.1423770051227393
    Molecular point group: c1
  Basis Set: 6-31G*
  Basis Set:

  -Total Gradient:
     Atom            X                  Y                   Z
    ------   -----------------  -----------------  -----------------
       1       -0.000031437564     0.001485274153    -0.001156041778
       2       -0.000246646706    -0.002266120368     0.001400839728
       3        0.001097358520     0.001565592990    -0.000458495111
       4       -0.000795937484    -0.000823464475     0.000145195908
       5       -0.000040090409     0.000019869265     0.000003562823
       6       -0.000016100199     0.000016211424     0.000038201843
       7        0.000026264925    -0.000033714426    -0.000019595163
       8       -0.000012462256     0.000023025684    -0.000012418001
       9       -0.000001465538    -0.000010955286     0.000002415304
      10       -0.000020249703     0.000010403376     0.000028085913
      11       -0.000013306501     0.000018460589    -0.000009939702
      12        0.000044986393     0.000018294485     0.000014592175
      13        0.000008331810    -0.000004912288    -0.000002007188
      14        0.000014000144    -0.000005885021     0.000020898906
      15       -0.000013245431    -0.000012080102     0.000004704344

  **** Optimization is complete! (in 7 steps) ****
    Final optimized geometry and variables:
    Molecular point group: c1

    Geometry (in Angstrom), charge = 0, multiplicity = 1:

    H            1.125907139424    -1.069733213336    -0.945423197947
    O            1.773718515217    -0.634381800499    -0.410774973002
    C            1.140851297905     0.108889103619     0.598921002482
    C            0.026976542290     1.016670878555     0.083448546750
    H            1.917365740960     0.713317133076     1.049285628954
    H            0.762704198152    -0.554273047329     1.374194186238
    C           -1.159875714818     0.302599804823    -0.577636520960
    H            0.459293838072     1.714322874780    -0.628870299281
    H           -0.339032993492     1.608043744094     0.920671668678
    C           -1.938346585694    -0.633437981519     0.349196131973
    H           -0.823545799494    -0.249230758714    -1.453877856672
    H           -1.836685168207     1.060992150167    -0.960786775209
    H           -2.806174867813    -1.042470466889    -0.158253897883
    H           -1.335375206485    -1.470523874468     0.686632523966
    H           -2.289780742476    -0.104961396948     1.230868187185

  Mulliken Charges: (a.u.)
   Center  Symbol    Alpha    Beta     Spin     Total
       1     H     0.27911  0.27911  0.00000  0.44178
       2     O     4.37387  4.37387  0.00000 -0.74774
       3     C     2.99224  2.99224  0.00000  0.01553
       4     C     3.17003  3.17003  0.00000 -0.34006
       5     H     0.41490  0.41490  0.00000  0.17019
       6     H     0.42965  0.42965  0.00000  0.14070
       7     C     3.16402  3.16402  0.00000 -0.32804
       8     H     0.41347  0.41347  0.00000  0.17306
       9     H     0.42206  0.42206  0.00000  0.15588
      10     C     3.24242  3.24242  0.00000 -0.48485
      11     H     0.42816  0.42816  0.00000  0.14369
      12     H     0.41437  0.41437  0.00000  0.17126
      13     H     0.41646  0.41646  0.00000  0.16708
      14     H     0.42002  0.42002  0.00000  0.15995
      15     H     0.41923  0.41923  0.00000  0.16155

   Total alpha = 21.00000, Total beta = 21.00000, Total charge =  0.00000
