                              Psi4 1.0.54 Driver

  ==> Input File <==

--------------------------------------------------------------------------
set {
	reference rhf
	basis cc-pvtz
}

set_num_threads( 4 )
memory 2 gb

molecule MOL {
0 1

H	 -1.088256	 -1.364742	 0.152233
O	 -1.432053	 -0.565244	 -0.200812
C	 -0.727158	 0.534527	 0.310686
C	 0.680222	 0.664433	 -0.252229
H	 -1.306802	 1.408001	 0.044211
H	 -0.690821	 0.490158	 1.397609
C	 1.342417	 -0.671405	 -0.576391
H	 0.640743	 1.280144	 -1.144738
H	 1.284004	 1.199632	 0.475547
H	 0.798899	 -1.209097	 -1.345546
H	 2.351893	 -0.525717	 -0.941475
H	 1.398675	 -1.306291	 0.302649

	symmetry c1
}
set optking {
	frozen_dihedral = ("
		8 4 3 2
	")
}

ee,wfn = optimize('scf', return_wfn=True)
oeprop( wfn, 'DIPOLE', 'QUADRUPOLE', 'MULLIKEN_CHARGES')
f=open( 'psi4out.xyz', 'w' )
f.write( "12  " )
f.write( str(ee) + "\n" )
f.write( MOL.save_string_xyz() )
f.close()
--------------------------------------------------------------------------

    Molecular point group: c1
  Charge       = 0
  Multiplicity = 1
  Basis Set: CC-PVTZ
  Basis Set:
  @DF-RHF Final Energy:  -193.18606308344846
    Total Energy =                       -193.1860630834484880
    Molecular point group: c1
  Basis Set: CC-PVTZ
  Basis Set:
  Basis Set: CC-PVTZ
  Basis Set:
  @DF-RHF Final Energy:  -193.18657790733127
    Total Energy =                       -193.1865779073311842
  Basis Set: CC-PVTZ
  Basis Set:
  Basis Set: CC-PVTZ
  Basis Set:
  @DF-RHF Final Energy:  -193.18675123861550
    Total Energy =                       -193.1867512386155852
  Basis Set: CC-PVTZ
  Basis Set:
  Basis Set: CC-PVTZ
  Basis Set:
  @DF-RHF Final Energy:  -193.18675552200651
    Total Energy =                       -193.1867555220067345
  Basis Set: CC-PVTZ
  Basis Set:
  Basis Set: CC-PVTZ
  Basis Set:
  @DF-RHF Final Energy:  -193.18675679997071
    Total Energy =                       -193.1867567999706807
  Basis Set: CC-PVTZ
  Basis Set:
  Charge       = 0
  Multiplicity = 1
  Basis Set: CC-PVTZ
  Basis Set:

    Orbital Energies (a.u.)
    -----------------------

    Doubly Occupied:

       1A    -20.545517     2A    -11.266504     3A    -11.217503
       4A    -11.214132     5A     -1.364126     6A     -1.049109
       7A     -0.929903     8A     -0.808523     9A     -0.696446
      10A     -0.633863    11A     -0.614464    12A     -0.585771
      13A     -0.532650    14A     -0.513131    15A     -0.499648
      16A     -0.462257    17A     -0.431443

  @DF-RHF Final Energy:  -193.18675687958384

   => Energetics <=

    Nuclear Repulsion Energy =            133.5403785684831348
    One-Electron Energy =                -526.7242872963055333
    Two-Electron Energy =                 199.9971518482384454
    DFT Exchange-Correlation Energy =       0.0000000000000000
    Empirical Dispersion Energy =           0.0000000000000000
    PCM Polarization Energy =               0.0000000000000000
    EFP Energy =                            0.0000000000000000
    Total Energy =                       -193.1867568795839816
    Molecular point group: c1
  Basis Set: CC-PVTZ
  Basis Set:

  -Total Gradient:
     Atom            X                  Y                   Z
    ------   -----------------  -----------------  -----------------
       1       -0.000011219656    -0.000015886170     0.000002381317
       2        0.001698982821    -0.002911221508     0.003535727018
       3       -0.002078778612     0.005164891282    -0.004038825711
       4       -0.000570011881    -0.007118520617    -0.003052283428
       5        0.000013836584     0.000010026934     0.000001742717
       6        0.000002585256     0.000014898415     0.000003649732
       7        0.000005795275     0.000019023866     0.000015277255
       8        0.000928222602     0.004868553883     0.003516440644
       9        0.000017104402    -0.000025531990     0.000028297104
      10        0.000005144653     0.000005664896    -0.000007791639
      11       -0.000007365868    -0.000012421303    -0.000005038802
      12       -0.000004295576     0.000000522314     0.000000423793

  **** Optimization is complete! (in 6 steps) ****
    Final optimized geometry and variables:
    Molecular point group: c1

    Geometry (in Angstrom), charge = 0, multiplicity = 1:

    H           -1.051748233155    -1.319715959415     0.260954975953
    O           -1.404944640190    -0.505621436502    -0.045353612612
    C           -0.669827655241     0.566143147442     0.481882657170
    C            0.750092456656     0.700219306758    -0.081350599481
    H           -1.238516660315     1.460243425565     0.269925793992
    H           -0.618013028000     0.468698202412     1.564128229486
    C            1.450292610845    -0.620119514351    -0.376847393262
    H            0.741231130983     1.338353213445    -0.958772814394
    H            1.331974238152     1.250676967517     0.653879097091
    H            0.943886748443    -1.170876159355    -1.158894584669
    H            2.469268928623    -0.446493629978    -0.700368714810
    H            1.495322959964    -1.251010915299     0.506933520058

  Mulliken Charges: (a.u.)
   Center  Symbol    Alpha    Beta     Spin     Total
       1     H     0.39033  0.39033  0.00000  0.21934
       2     O     4.20508  4.20508  0.00000 -0.41016
       3     C     2.97701  2.97701  0.00000  0.04597
       4     C     3.08324  3.08324  0.00000 -0.16649
       5     H     0.45165  0.45165  0.00000  0.09669
       6     H     0.47029  0.47029  0.00000  0.05941
       7     C     3.16205  3.16205  0.00000 -0.32410
       8     H     0.45286  0.45286  0.00000  0.09428
       9     H     0.45778  0.45778  0.00000  0.08444
      10     H     0.44604  0.44604  0.00000  0.10791
      11     H     0.44577  0.44577  0.00000  0.10845
      12     H     0.45788  0.45788  0.00000  0.08424

   Total alpha = 17.00000, Total beta = 17.00000, Total charge = -0.00000

*** Psi4 exiting successfully. Buy a developer a beer!
