                              Psi4 1.0.54 Driver

  ==> Input File <==

--------------------------------------------------------------------------
set {
	reference rhf
	basis cc-pvtz
}

set_num_threads( 4 )
memory 2 gb

molecule MOL {
0 1

H	 -2.717292	 0.141678	 -1.512272
O	 -3.458596	 0.315260	 -0.960865
C	 -3.176635	 -0.080824	 0.355601
C	 -1.763371	 0.265266	 0.799691
H	 -3.321825	 -1.153438	 0.379502
H	 -3.895468	 0.357385	 1.043382
C	 -0.673390	 -0.426948	 -0.013392
H	 -1.631049	 1.344913	 0.747560
H	 -1.664587	 -0.001624	 1.849167
C	 0.737842	 -0.043159	 0.423759
H	 -0.806103	 -0.190518	 -1.063345
H	 -0.797221	 -1.503753	 0.074146
C	 1.824000	 -0.743224	 -0.390623
H	 0.850588	 1.033777	 0.343840
H	 0.868587	 -0.286314	 1.476203
C	 3.255957	 -0.453067	 0.062319
H	 1.718250	 -0.470599	 -1.438164
H	 1.658105	 -1.815850	 -0.339904
C	 3.707029	 0.992337	 -0.133857
H	 3.928201	 -1.104096	 -0.488158
H	 3.362667	 -0.724561	 1.109374
H	 3.605811	 1.294044	 -1.171549
H	 4.748333	 1.111029	 0.143343
H	 3.129882	 1.683078	 0.468956

	symmetry c1
}
set optking {
	frozen_dihedral = ("
		1 2 3 5
	")
}

ee,wfn = optimize('scf', return_wfn=True)
oeprop( wfn, 'DIPOLE', 'QUADRUPOLE', 'MULLIKEN_CHARGES')
f=open( 'psi4out.xyz', 'w' )
f.write( "24  " )
f.write( str(ee) + "\n" )
f.write( MOL.save_string_xyz() )
f.close()
--------------------------------------------------------------------------

    Molecular point group: c1
  Charge       = 0
  Multiplicity = 1
  Basis Set: CC-PVTZ
  Basis Set:
  @DF-RHF Final Energy:  -349.37732143607235
    Total Energy =                       -349.3773214360722363
    Molecular point group: c1
  Basis Set: CC-PVTZ
  Basis Set:
  Basis Set: CC-PVTZ
  Basis Set:
  @DF-RHF Final Energy:  -347.56129456084915
    Total Energy =                       -347.5612945608489213
  Basis Set: CC-PVTZ
  Basis Set:
  Basis Set: CC-PVTZ
  Basis Set:
  @DF-RHF Final Energy:  -347.81062104328356
    Total Energy =                       -347.8106210432838452
  Basis Set: CC-PVTZ
  Basis Set:
  Basis Set: CC-PVTZ
  Basis Set:
  @DF-RHF Final Energy:  -348.24153005688567
    Total Energy =                       -348.2415300568853809
  Basis Set: CC-PVTZ
  Basis Set:
  @DF-RHF Final Energy:  -348.63841857936757
    Total Energy =                       -348.6384185793675101
  @DF-RHF Final Energy:  -349.00960261640182
    Total Energy =                       -349.0096026164021623
  @DF-RHF Final Energy:  -349.26441629899534
    Total Energy =                       -349.2644162989956840
  @DF-RHF Final Energy:  -349.35954060832438
    Total Energy =                       -349.3595406083242665
  @DF-RHF Final Energy:  -349.08253960002304
    Total Energy =                       -349.0825396000226988
  @DF-RHF Final Energy:  -349.28243576425848
    Total Energy =                       -349.2824357642585937
  @DF-RHF Final Energy:  -349.36663930982536
    Total Energy =                       -349.3666393098253593
  @DF-RHF Final Energy:  -349.37668317041391
    Total Energy =                       -349.3766831704135711
  @DF-RHF Final Energy:  -349.37896448311852
    Total Energy =                       -349.3789644831188070
  Basis Set: CC-PVTZ
  Basis Set:
  @DF-RHF Final Energy:  -349.37924769622862
    Total Energy =                       -349.3792476962286173
  Basis Set: CC-PVTZ
  Basis Set:
  Basis Set: CC-PVTZ
  Basis Set:
  @DF-RHF Final Energy:  -349.37925982725415
    Total Energy =                       -349.3792598272538044
  Basis Set: CC-PVTZ
  Basis Set:
  Basis Set: CC-PVTZ
  Basis Set:
  @DF-RHF Final Energy:  -349.37926402677999
    Total Energy =                       -349.3792640267798788
  Basis Set: CC-PVTZ
  Basis Set:
  Charge       = 0
  Multiplicity = 1
  Basis Set: CC-PVTZ
  Basis Set:

    Orbital Energies (a.u.)
    -----------------------

    Doubly Occupied:

       1A    -20.543631     2A    -11.264238     3A    -11.221613
       4A    -11.217473     5A    -11.216716     6A    -11.216208
       7A    -11.215165     8A    -11.208437     9A     -1.362074
      10A     -1.096079    11A     -1.053328    12A     -0.990216
      13A     -0.921615    14A     -0.856425    15A     -0.801858
      16A     -0.782506    17A     -0.685467    18A     -0.657249
      19A     -0.629880    20A     -0.616438    21A     -0.606992
      22A     -0.591390    23A     -0.562579    24A     -0.537975
      25A     -0.530132    26A     -0.513640    27A     -0.493837
      28A     -0.486863    29A     -0.478737    30A     -0.464702
      31A     -0.458982    32A     -0.440602    33A     -0.430813

  @DF-RHF Final Energy:  -349.37926429400756

   => Energetics <=

    Nuclear Repulsion Energy =            384.8036537433843591
    One-Electron Energy =               -1236.0581127281211593
    Two-Electron Energy =                 501.8751946907289039
    DFT Exchange-Correlation Energy =       0.0000000000000000
    Empirical Dispersion Energy =           0.0000000000000000
    PCM Polarization Energy =               0.0000000000000000
    EFP Energy =                            0.0000000000000000
    Total Energy =                       -349.3792642940079531
    Molecular point group: c1
  Basis Set: CC-PVTZ
  Basis Set:

  -Total Gradient:
     Atom            X                  Y                   Z
    ------   -----------------  -----------------  -----------------
       1        0.001761395949    -0.000281436786     0.000708696426
       2       -0.002431798363     0.000314982726    -0.000507820761
       3        0.001535780725     0.000142813866    -0.001584975315
       4       -0.000002659803    -0.000046760119     0.000032000809
       5       -0.000899949958    -0.000117585582     0.001368732194
       6        0.000000122987    -0.000033323739     0.000027982378
       7       -0.000014156858     0.000072199720    -0.000018109970
       8        0.000007340743     0.000001348367    -0.000024037927
       9       -0.000000736837    -0.000022906013     0.000022386238
      10        0.000023227152    -0.000051510967     0.000015792611
      11        0.000016140897     0.000008858541    -0.000017144304
      12       -0.000003159969    -0.000000316635    -0.000000099300
      13       -0.000022636204     0.000050187972     0.000001942617
      14       -0.000005423396     0.000004861816    -0.000003423268
      15        0.000005420888    -0.000022745107     0.000015953039
      16        0.000047559867    -0.000024933664     0.000024782499
      17        0.000001754139     0.000015339035    -0.000013139091
      18       -0.000010156965     0.000006743178     0.000000098864
      19       -0.000046785818     0.000010795616    -0.000002686300
      20       -0.000000934809    -0.000012982287    -0.000024142217
      21       -0.000002047133    -0.000004163262    -0.000016281458
      22       -0.000001529819     0.000005536164     0.000016302562
      23        0.000038112738    -0.000025557921    -0.000037177774
      24        0.000005119839     0.000010555080     0.000014367437

  **** Optimization is complete! (in 17 steps) ****
    Final optimized geometry and variables:
    Molecular point group: c1

    Geometry (in Angstrom), charge = 0, multiplicity = 1:

    H           -1.719027194724     2.170801617731     1.706576363322
    O           -2.104022875355     1.759229680146     2.457520786949
    C           -2.254902302603     0.382149294732     2.237303271704
    C           -1.039374680646    -0.283552244681     1.610617169739
    H           -3.141848781465     0.193831494005     1.634936645855
    H           -2.439141535388    -0.052006797390     3.211207993117
    C           -0.741588795364     0.157546952807     0.178414583772
    H           -0.175212352993    -0.095574264326     2.241189897608
    H           -1.208033297369    -1.357112689199     1.621608006016
    C            0.448738670672    -0.574345372762    -0.437402532412
    H           -0.539958725223     1.226337928866     0.147819135818
    H           -1.622906183904    -0.004758917505    -0.437392912898
    C            0.749578586069    -0.129071737747    -1.867201059010
    H            1.319212104335    -0.419856539169     0.192001180294
    H            0.251563295004    -1.643836283626    -0.429721437907
    C            1.879235953202    -0.897996321399    -2.554886642095
    H            0.987045589335     0.932488726657    -1.870772879622
    H           -0.153036886219    -0.238868367782    -2.462175685695
    C            3.261227871191    -0.685746912429    -1.941710291718
    H            1.912058578747    -0.598138910574    -3.597781674691
    H            1.643085437941    -1.958864815703    -2.553171364968
    H            3.521264938751     0.367857854290    -1.923114910623
    H            4.020404684544    -1.201898828159    -2.518238124655
    H            3.316482232110    -1.057689241785    -0.925760369707

  Mulliken Charges: (a.u.)
   Center  Symbol    Alpha    Beta     Spin     Total
       1     H     0.39147  0.39147  0.00000  0.21706
       2     O     4.20676  4.20676  0.00000 -0.41351
       3     C     2.96728  2.96728  0.00000  0.06544
       4     C     3.10024  3.10024  0.00000 -0.20049
       5     H     0.47391  0.47391  0.00000  0.05219
       6     H     0.45328  0.45328  0.00000  0.09344
       7     C     3.09539  3.09539  0.00000 -0.19077
       8     H     0.44880  0.44880  0.00000  0.10239
       9     H     0.45485  0.45485  0.00000  0.09029
      10     C     3.09237  3.09237  0.00000 -0.18475
      11     H     0.46260  0.46260  0.00000  0.07480
      12     H     0.45053  0.45053  0.00000  0.09893
      13     C     3.09503  3.09503  0.00000 -0.19006
      14     H     0.45067  0.45067  0.00000  0.09865
      15     H     0.45319  0.45319  0.00000  0.09362
      16     C     3.09060  3.09060  0.00000 -0.18119
      17     H     0.45414  0.45414  0.00000  0.09173
      18     H     0.44938  0.44938  0.00000  0.10124
      19     C     3.15249  3.15249  0.00000 -0.30497
      20     H     0.44812  0.44812  0.00000  0.10376
      21     H     0.45447  0.45447  0.00000  0.09105
      22     H     0.45477  0.45477  0.00000  0.09046
      23     H     0.44603  0.44603  0.00000  0.10793
      24     H     0.45363  0.45363  0.00000  0.09275

   Total alpha = 33.00000, Total beta = 33.00000, Total charge = -0.00000

*** Psi4 exiting successfully. Buy a developer a beer!
