  ==> Input File <==

--------------------------------------------------------------------------
set {
	reference rhf
	basis cc-pvtz
}

set_num_threads( 4 )
memory 2 gb

molecule MOL {
0 1

H	 -2.512604	 0.407272	 0.710364
O	 -2.313989	 -0.142475	 -0.025864
C	 -0.943808	 -0.065018	 -0.330000
H	 -0.812293	 -0.225641	 -1.398673
C	 -0.231030	 -1.182113	 0.407592
C	 -0.353797	 1.300461	 0.050970
H	 -0.312800	 -0.992012	 1.473041
H	 -0.738841	 -2.119564	 0.220514
C	 1.246176	 -1.268044	 -0.015480
H	 -0.539537	 2.008579	 -0.751815
H	 -0.889989	 1.662858	 0.920677
C	 1.153605	 1.231851	 0.356834
H	 1.823096	 -1.684665	 0.802361
H	 1.352335	 -1.958223	 -0.845114
C	 1.826409	 0.100723	 -0.416008
H	 1.622968	 2.181508	 0.128734
H	 1.301983	 1.066493	 1.419367
H	 2.897299	 0.112407	 -0.249665
H	 1.683458	 0.265621	 -1.480024

	symmetry c1
}
set optking {
	frozen_dihedral = ("
		1 2 3 4
	")
}

ee = optimize('scf')
oeprop('DIPOLE', 'QUADRUPOLE', 'MULLIKEN_CHARGES')
f=open( 'psi4out.xyz', 'w' )
f.write( "19  " )
f.write( str(ee) + "\n" )
f.write( MOL.save_string_xyz() )
f.close()
--------------------------------------------------------------------------

    Molecular point group: c1
  Charge       = 0
  Multiplicity = 1
  Basis Set: CC-PVTZ
  Basis Set:
  @DF-RHF Final Energy:  -309.16099170945114
    Total Energy =                       -309.1609917094511957
    Molecular point group: c1
  Basis Set: CC-PVTZ
  Basis Set:
  Basis Set: CC-PVTZ
  Basis Set:
  @DF-RHF Final Energy:  -309.16218548145480
    Total Energy =                       -309.1621854814549124
  Basis Set: CC-PVTZ
  Basis Set:
  Basis Set: CC-PVTZ
  Basis Set:
  @DF-RHF Final Energy:  -309.16240510351929
    Total Energy =                       -309.1624051035195180
  Basis Set: CC-PVTZ
  Basis Set:
  Basis Set: CC-PVTZ
  Basis Set:
  @DF-RHF Final Energy:  -309.16240901937664
    Total Energy =                       -309.1624090193768097
  Basis Set: CC-PVTZ
  Basis Set:
  Charge       = 0
  Multiplicity = 1
  Basis Set: CC-PVTZ
  Basis Set:

    Orbital Energies (a.u.)
    -----------------------

    Doubly Occupied:

       1A    -20.541773     2A    -11.267338     3A    -11.218319
       4A    -11.217742     5A    -11.215477     6A    -11.214692
       7A    -11.207940     8A     -1.362444     9A     -1.111818
      10A     -1.005633    11A     -0.989977    12A     -0.846018
      13A     -0.843872    14A     -0.751581    15A     -0.675534
      16A     -0.665735    17A     -0.614057    18A     -0.609474
      19A     -0.580720    20A     -0.560130    21A     -0.531312
      22A     -0.521749    23A     -0.502774    24A     -0.490550
      25A     -0.469053    26A     -0.450855    27A     -0.430724
      28A     -0.410386

  @DF-RHF Final Energy:  -309.16240941191018

   => Energetics <=

    Nuclear Repulsion Energy =            331.8473711196193108
    One-Electron Energy =               -1077.4042062629298471
    Two-Electron Energy =                 436.3944257314000765
    DFT Exchange-Correlation Energy =       0.0000000000000000
    Empirical Dispersion Energy =           0.0000000000000000
    PCM Polarization Energy =               0.0000000000000000
    EFP Energy =                            0.0000000000000000
    Total Energy =                       -309.1624094119104598
    Molecular point group: c1
  Basis Set: CC-PVTZ
  Basis Set:

  -Total Gradient:
     Atom            X                  Y                   Z
    ------   -----------------  -----------------  -----------------
       1       -0.000177398673     0.001265492346    -0.000992967479
       2        0.000211277903    -0.001314173780     0.001185125944
       3        0.000055128200    -0.001303823918     0.000019131818
       4       -0.000074491451     0.001338890958    -0.000188650639
       5       -0.000006569591    -0.000005856507    -0.000021086249
       6        0.000017850168    -0.000007334940     0.000003044125
       7        0.000002008528    -0.000002417305    -0.000008343201
       8        0.000002814284    -0.000006394158     0.000004521243
       9       -0.000017066786    -0.000008669636     0.000028800994
      10        0.000010641067     0.000010077487    -0.000006798571
      11        0.000007137332     0.000006326990    -0.000004639551
      12       -0.000007303402     0.000018085221    -0.000010485041
      13        0.000009729746    -0.000014999980     0.000000306951
      14       -0.000006286879     0.000003124649     0.000000741888
      15       -0.000017199080     0.000015353481    -0.000022054059
      16       -0.000000520325     0.000010213092     0.000012064709
      17       -0.000007313371    -0.000002193153     0.000002265100
      18       -0.000012878468    -0.000004844588     0.000006463878
      19        0.000010440792     0.000003143739    -0.000007441860

  **** Optimization is complete! (in 5 steps) ****
    Final optimized geometry and variables:
    Molecular point group: c1

    Geometry (in Angstrom), charge = 0, multiplicity = 1:

    H           -2.573420379081     0.421430368168     0.625905436218
    O           -2.334840880209    -0.115601170478    -0.106774395637
    C           -0.945363653109    -0.068568830930    -0.314213610696
    H           -0.816664455168    -0.213808497802    -1.380852087964
    C           -0.222855455478    -1.188993841754     0.417442278105
    C           -0.355578771370     1.295413963326     0.066220639138
    H           -0.292641956154    -1.006989796171     1.487087437307
    H           -0.731134982711    -2.126162461344     0.230136356099
    C            1.252190336397    -1.271395611281    -0.016638791249
    H           -0.566981648586     2.006282424959    -0.724490992090
    H           -0.866136741900     1.662148130738     0.953876328960
    C            1.156975155253     1.229478907567     0.347818773166
    H            1.840296398529    -1.678894651370     0.797919482368
    H            1.353716852883    -1.966537264454    -0.842540291290
    C            1.820009431278     0.097890683284    -0.432751132608
    H            1.619503071520     2.179923011559     0.109770079562
    H            1.324576757671     1.066667568332     1.408035890128
    H            2.893347675439     0.114909681899    -0.283977732726
    H            1.658697553294     0.258544532053    -1.494496336712

  Mulliken Charges: (a.u.)
   Center  Symbol    Alpha    Beta     Spin     Total
       1     H     0.39479  0.39479  0.00000  0.21042
       2     O     4.20795  4.20795  0.00000 -0.41590
       3     C     2.93111  2.93111  0.00000  0.13779
       4     H     0.44579  0.44579  0.00000  0.10842
       5     C     3.09904  3.09904  0.00000 -0.19808
       6     C     3.11699  3.11699  0.00000 -0.23397
       7     H     0.46113  0.46113  0.00000  0.07774
       8     H     0.44066  0.44066  0.00000  0.11868
       9     C     3.11316  3.11316  0.00000 -0.22633
      10     H     0.44385  0.44385  0.00000  0.11230
      11     H     0.45846  0.45846  0.00000  0.08308
      12     C     3.09980  3.09980  0.00000 -0.19961
      13     H     0.44758  0.44758  0.00000  0.10485
      14     H     0.44642  0.44642  0.00000  0.10715
      15     C     3.10254  3.10254  0.00000 -0.20509
      16     H     0.44156  0.44156  0.00000  0.11687
      17     H     0.45362  0.45362  0.00000  0.09276
      18     H     0.44260  0.44260  0.00000  0.11479
      19     H     0.45294  0.45294  0.00000  0.09411

   Total alpha = 28.00000, Total beta = 28.00000, Total charge = -0.00000
