  ==> Input File <==

--------------------------------------------------------------------------
set {
	reference rhf
	basis 6-31G*
}

set_num_threads( 1 )
memory 2 gb

molecule MOL {
0 1

H	 -3.261111	 -0.295142	 1.469456
C	 -3.306842	 -0.277400	 0.373456
C	 -2.660244	 0.921717	 -0.272021
O	 -3.838538	 -1.161155	 -0.216482
C	 -1.220012	 1.144545	 0.209990
H	 -2.705793	 0.797307	 -1.347733
H	 -3.263782	 1.790044	 -0.010477
C	 -0.252658	 0.041456	 -0.226725
H	 -0.873521	 2.100229	 -0.171974
H	 -1.211708	 1.231594	 1.295398
C	 1.180775	 0.282413	 0.250794
H	 -0.266029	 -0.034465	 -1.312038
H	 -0.597733	 -0.921000	 0.146291
C	 2.148627	 -0.814315	 -0.201312
H	 1.516199	 1.249228	 -0.115937
H	 1.192670	 0.346017	 1.338083
C	 3.580890	 -0.659131	 0.322722
H	 2.166869	 -0.852443	 -1.289387
H	 1.762857	 -1.776509	 0.128956
C	 4.527716	 -1.794673	 -0.069304
H	 3.544212	 -0.595636	 1.407420
H	 3.990028	 0.288221	 -0.022318
H	 4.135675	 -2.757061	 0.249099
H	 4.685878	 -1.840180	 -1.141632
H	 5.499510	 -1.663917	 0.397081

	symmetry c1
}
set optking {
	frozen_dihedral = ("
		6 3 5 8,
		6 3 2 4,
		3 5 8 12,
		12 8 11 14,
		8 11 14 18
	")
}

ee = energy('scf')
oeprop('DIPOLE', 'QUADRUPOLE', 'MULLIKEN_CHARGES')
f=open( 'psi4out.xyz', 'w' )
f.write( "25  " )
f.write( str(ee) + "\n" )
f.write( MOL.save_string_xyz() )
f.close()
--------------------------------------------------------------------------

    Molecular point group: c1

    Geometry (in Angstrom), charge = 0, multiplicity = 1:

       Center              X                  Y                   Z               Mass
    ------------   -----------------  -----------------  -----------------  -----------------
           H         -3.284712420631    -0.018886390592     1.452153013054     1.007825032070
           C         -3.330443420631    -0.001144390592     0.356153013054    12.000000000000
           C         -2.683845420631     1.197972609408    -0.289323986946    12.000000000000
           O         -3.862139420631    -0.884899390592    -0.233784986946    15.994914619560
           C         -1.243613420631     1.420800609408     0.192687013054    12.000000000000
           H         -2.729394420631     1.073562609408    -1.365035986946     1.007825032070
           H         -3.287383420631     2.066299609408    -0.027779986946     1.007825032070
           C         -0.276259420631     0.317711609408    -0.244027986946    12.000000000000
           H         -0.897122420631     2.376484609408    -0.189276986946     1.007825032070
           H         -1.235309420631     1.507849609408     1.278095013054     1.007825032070
           C          1.157173579369     0.558668609408     0.233491013054    12.000000000000
           H         -0.289630420631     0.241790609408    -1.329340986946     1.007825032070
           H         -0.621334420631    -0.644744390592     0.128988013054     1.007825032070
           C          2.125025579369    -0.538059390592    -0.218614986946    12.000000000000
           H          1.492597579369     1.525483609408    -0.133239986946     1.007825032070
           H          1.169068579369     0.622272609408     1.320780013054     1.007825032070
           C          3.557288579369    -0.382875390592     0.305419013054    12.000000000000
           H          2.143267579369    -0.576187390592    -1.306689986946     1.007825032070
           H          1.739255579369    -1.500253390592     0.111653013054     1.007825032070
           C          4.504114579369    -1.518417390592    -0.086606986946    12.000000000000
           H          3.520610579369    -0.319380390592     1.390117013054     1.007825032070
           H          3.966426579369     0.564476609408    -0.039620986946     1.007825032070
           H          4.112073579369    -2.480805390592     0.231796013054     1.007825032070
           H          4.662276579369    -1.563924390592    -1.158934986946     1.007825032070
           H          5.475908579369    -1.387661390592     0.379778013054     1.007825032070

  Charge       = 0
  Multiplicity = 1
  Basis Set: 6-31G*
  Basis Set:

    Orbital Energies (a.u.)
    -----------------------

    Doubly Occupied:

       1A    -20.562092     2A    -11.326258     3A    -11.235540
       4A    -11.234807     5A    -11.224247     6A    -11.220803
       7A    -11.217981     8A    -11.217011     9A    -11.210725
      10A     -1.402074    11A     -1.103872    12A     -1.069060
      13A     -1.015442    14A     -0.943861    15A     -0.868971
      16A     -0.815052    17A     -0.793410    18A     -0.786977
      19A     -0.665377    20A     -0.664070    21A     -0.639065
      22A     -0.615093    23A     -0.606206    24A     -0.591825
      25A     -0.566589    26A     -0.553836    27A     -0.539095
      28A     -0.521056    29A     -0.506848    30A     -0.500425
      31A     -0.487786    32A     -0.477190    33A     -0.464631
      34A     -0.463843    35A     -0.442230    36A     -0.409648

  @DF-RHF Final Energy:  -387.12322812461031

   => Energetics <=

    Nuclear Repulsion Energy =            435.0485784108065559
    One-Electron Energy =               -1386.4177343958492656
    Two-Electron Energy =                 564.2459278604301289
    DFT Exchange-Correlation Energy =       0.0000000000000000
    Empirical Dispersion Energy =           0.0000000000000000
    PCM Polarization Energy =               0.0000000000000000
    EFP Energy =                            0.0000000000000000
    Total Energy =                       -387.1232281246125240

  Mulliken Charges: (a.u.)
   Center  Symbol    Alpha    Beta     Spin     Total
       1     H     0.43258  0.43258  0.00000  0.13484
       2     C     2.83086  2.83086  0.00000  0.33829
       3     C     3.20813  3.20813  0.00000 -0.41626
       4     O     4.23773  4.23773  0.00000 -0.47545
       5     C     3.16667  3.16667  0.00000 -0.33334
       6     H     0.39965  0.39965  0.00000  0.20070
       7     H     0.40663  0.40663  0.00000  0.18675
       8     C     3.15533  3.15533  0.00000 -0.31066
       9     H     0.41275  0.41275  0.00000  0.17449
      10     H     0.41953  0.41953  0.00000  0.16093
      11     C     3.15246  3.15246  0.00000 -0.30492
      12     H     0.41784  0.41784  0.00000  0.16432
      13     H     0.41819  0.41819  0.00000  0.16362
      14     C     3.15121  3.15121  0.00000 -0.30243
      15     H     0.42249  0.42249  0.00000  0.15503
      16     H     0.42336  0.42336  0.00000  0.15328
      17     C     3.15143  3.15143  0.00000 -0.30285
      18     H     0.42287  0.42287  0.00000  0.15427
      19     H     0.42297  0.42297  0.00000  0.15406
      20     C     3.23948  3.23948  0.00000 -0.47897
      21     H     0.42371  0.42371  0.00000  0.15258
      22     H     0.42320  0.42320  0.00000  0.15359
      23     H     0.42125  0.42125  0.00000  0.15750
      24     H     0.42080  0.42080  0.00000  0.15840
      25     H     0.41889  0.41889  0.00000  0.16222

   Total alpha = 36.00000, Total beta = 36.00000, Total charge = -0.00000
