                              Psi4 1.0.54 Driver

  ==> Input File <==

--------------------------------------------------------------------------
set {
	reference rhf
	basis cc-pvtz
}

set_num_threads( 4 )
memory 2 gb

molecule MOL {
0 1

H	 3.459101	 0.139266	 -0.762951
C	 2.749156	 -0.051729	 0.031265
C	 1.322304	 0.099773	 -0.484271
H	 2.929445	 -1.053887	 0.403481
H	 2.954281	 0.646699	 0.834672
C	 0.308557	 -0.162619	 0.622645
H	 1.143368	 -0.594400	 -1.295960
H	 1.169532	 1.100095	 -0.870217
N	 -1.069352	 -0.004081	 0.085342
H	 0.371632	 -1.172932	 0.991288
H	 0.400391	 0.548875	 1.426218
O	 -1.175339	 0.286360	 -1.058768
O	 -1.968013	 -0.150306	 0.844268

	symmetry c1
}
set optking {
	frozen_dihedral = ("
		12 9 6 3
	")
}

ee,wfn = optimize('scf', return_wfn=True)
oeprop( wfn, 'DIPOLE', 'QUADRUPOLE', 'MULLIKEN_CHARGES')
f=open( 'psi4out.xyz', 'w' )
f.write( "13  " )
f.write( str(ee) + "\n" )
f.write( MOL.save_string_xyz() )
f.close()
--------------------------------------------------------------------------

    Molecular point group: c1
  Charge       = 0
  Multiplicity = 1
  Basis Set: CC-PVTZ
  Basis Set:
  @DF-RHF Final Energy:  -321.85839046177222
    Total Energy =                       -321.8583904617723874
    Molecular point group: c1
  Basis Set: CC-PVTZ
  Basis Set:
  Basis Set: CC-PVTZ
  Basis Set:
  @DF-RHF Final Energy:  -321.85775919316876
    Total Energy =                       -321.8577591931687039
  Basis Set: CC-PVTZ
  Basis Set:
  Basis Set: CC-PVTZ
  Basis Set:
  @DF-RHF Final Energy:  -321.85436082691166
    Total Energy =                       -321.8543608269116589
  Basis Set: CC-PVTZ
  Basis Set:
  Basis Set: CC-PVTZ
  Basis Set:
  @DF-RHF Final Energy:  -321.85858788131696
    Total Energy =                       -321.8585878813168506
  Basis Set: CC-PVTZ
  Basis Set:
  Basis Set: CC-PVTZ
  Basis Set:
  @DF-RHF Final Energy:  -321.85989730290504
    Total Energy =                       -321.8598973029050967
  Basis Set: CC-PVTZ
  Basis Set:
  Basis Set: CC-PVTZ
  Basis Set:
  @DF-RHF Final Energy:  -321.86049420731223
    Total Energy =                       -321.8604942073121720
  Basis Set: CC-PVTZ
  Basis Set:
  Basis Set: CC-PVTZ
  Basis Set:
  @DF-RHF Final Energy:  -321.86050528504938
    Total Energy =                       -321.8605052850493848
  Basis Set: CC-PVTZ
  Basis Set:
  Charge       = 0
  Multiplicity = 1
  Basis Set: CC-PVTZ
  Basis Set:

    Orbital Energies (a.u.)
    -----------------------

    Doubly Occupied:

       1A    -20.593925     2A    -20.587183     3A    -15.838558
       4A    -11.299188     5A    -11.246815     6A    -11.234878
       7A     -1.637311     8A     -1.421387     9A     -1.131561
      10A     -1.026587    11A     -0.884931    12A     -0.826227
      13A     -0.762629    14A     -0.754017    15A     -0.730950
      16A     -0.656592    17A     -0.607695    18A     -0.574941
      19A     -0.554930    20A     -0.522229    21A     -0.509576
      22A     -0.488769    23A     -0.474492    24A     -0.453303

  @DF-RHF Final Energy:  -321.86050551012846

   => Energetics <=

    Nuclear Repulsion Energy =            247.6307656817869542
    One-Electron Energy =                -929.3451969702798579
    Two-Electron Energy =                 359.8539257783645553
    DFT Exchange-Correlation Energy =       0.0000000000000000
    Empirical Dispersion Energy =           0.0000000000000000
    PCM Polarization Energy =               0.0000000000000000
    EFP Energy =                            0.0000000000000000
    Total Energy =                       -321.8605055101284051
    Molecular point group: c1
  Basis Set: CC-PVTZ
  Basis Set:

  -Total Gradient:
     Atom            X                  Y                   Z
    ------   -----------------  -----------------  -----------------
       1       -0.000002720052    -0.000001797951    -0.000002253407
       2        0.000002367099    -0.000010339396     0.000002885821
       3       -0.000021672680     0.000021639285     0.000017364061
       4       -0.000001344384    -0.000000552127     0.000000891961
       5       -0.000003971382     0.000003247017    -0.000001786793
       6        0.000025221135    -0.000012611033     0.000007261879
       7       -0.000005285772    -0.000004529606     0.000002586556
       8        0.000000773772     0.000004034504    -0.000000667239
       9        0.000076960728     0.000001563846    -0.000032717703
      10        0.000008087936    -0.000000125460     0.000001893211
      11        0.000019643784     0.000002979539    -0.000005865799
      12       -0.000068944413    -0.000033068224     0.000117185550
      13       -0.000029115770     0.000029559603    -0.000106778099

  **** Optimization is complete! (in 8 steps) ****
    Final optimized geometry and variables:
    Molecular point group: c1

    Geometry (in Angstrom), charge = 0, multiplicity = 1:

    H            3.520877873838     0.230389742887    -0.663395766682
    C            2.773495494271     0.015298794615     0.089078400730
    C            1.372095657350     0.155932333413    -0.499628883121
    H            2.951996821607    -0.990151442553     0.454209126546
    H            2.928429419565     0.701581627934     0.914382453073
    C            0.323793199265    -0.144988984314     0.550782097524
    H            1.249734134388    -0.517881430942    -1.336837398157
    H            1.226147970493     1.157697416793    -0.880535300157
    N           -1.083478538622    -0.031860711138     0.059897048677
    H            0.395199689818    -1.152247882362     0.933389987169
    H            0.370880778007     0.531305247394     1.391295054418
    O           -1.272193473938     0.272108319267    -1.067661020109
    O           -1.928997899982    -0.261426394880     0.858820377635

  Mulliken Charges: (a.u.)
   Center  Symbol    Alpha    Beta     Spin     Total
       1     H     0.44124  0.44124  0.00000  0.11752
       2     C     3.15275  3.15275  0.00000 -0.30550
       3     C     3.09045  3.09045  0.00000 -0.18090
       4     H     0.45316  0.45316  0.00000  0.09368
       5     H     0.45315  0.45315  0.00000  0.09369
       6     C     3.04724  3.04724  0.00000 -0.09448
       7     H     0.43952  0.43952  0.00000  0.12097
       8     H     0.43952  0.43952  0.00000  0.12095
       9     N     3.27284  3.27284  0.00000  0.45432
      10     H     0.43329  0.43329  0.00000  0.13342
      11     H     0.43329  0.43329  0.00000  0.13343
      12     O     4.16888  4.16888  0.00000 -0.33776
      13     O     4.17468  4.17468  0.00000 -0.34936

   Total alpha = 24.00000, Total beta = 24.00000, Total charge =  0.00000

*** Psi4 exiting successfully. Buy a developer a beer!
