  ==> Input File <==

--------------------------------------------------------------------------
set {
	reference rhf
	basis cc-pvtz
}

set_num_threads( 4 )
memory 2 gb

molecule MOL {
0 1

H	 -3.162190	 0.493205	 -0.000107
C	 -2.363908	 -0.234727	 0.000005
O	 -1.158738	 0.454634	 -0.000087
H	 -2.464314	 -0.863616	 -0.882153
H	 -2.464327	 -0.863359	 0.882345
C	 -0.349682	 0.201467	 -1.105370
C	 0.926712	 1.009416	 -0.985237
H	 -0.876515	 0.465448	 -2.022648
H	 -0.117115	 -0.862145	 -1.162689
C	 1.869888	 0.786555	 -2.162141
H	 0.665246	 2.059104	 -0.909630
H	 1.418624	 0.742024	 -0.056541
H	 1.405420	 1.071098	 -3.100433
H	 2.772270	 1.375051	 -2.050779
H	 2.164067	 -0.254711	 -2.241464

	symmetry c1
}
set optking {
	frozen_dihedral = ("
		6 3 2 4
	")
}

ee = optimize('scf')
oeprop('DIPOLE', 'QUADRUPOLE', 'MULLIKEN_CHARGES')
f=open( 'psi4out.xyz', 'w' )
f.write( "15  " )
f.write( str(ee) + "\n" )
f.write( MOL.save_string_xyz() )
f.close()
--------------------------------------------------------------------------

    Molecular point group: c1
  Charge       = 0
  Multiplicity = 1
  Basis Set: CC-PVTZ
  Basis Set:
  @DF-RHF Final Energy:  -232.22407235615768
    Total Energy =                       -232.2240723561577624
    Molecular point group: c1
  Basis Set: CC-PVTZ
  Basis Set:
  Basis Set: CC-PVTZ
  Basis Set:
  @DF-RHF Final Energy:  -232.22446170128478
    Total Energy =                       -232.2244617012845538
  Basis Set: CC-PVTZ
  Basis Set:
  Basis Set: CC-PVTZ
  Basis Set:
  @DF-RHF Final Energy:  -232.22456884216751
    Total Energy =                       -232.2245688421674572
  Basis Set: CC-PVTZ
  Basis Set:
  Charge       = 0
  Multiplicity = 1
  Basis Set: CC-PVTZ
  Basis Set:

    Orbital Energies (a.u.)
    -----------------------

    Doubly Occupied:

       1A    -20.543843     2A    -11.264897     3A    -11.261262
       4A    -11.212193     5A    -11.210438     6A     -1.376716
       7A     -1.057995     8A     -0.956097     9A     -0.877403
      10A     -0.809163    11A     -0.673040    12A     -0.653753
      13A     -0.631564    14A     -0.608389    15A     -0.563485
      16A     -0.545860    17A     -0.502878    18A     -0.489395
      19A     -0.479256    20A     -0.461932    21A     -0.410900

  @DF-RHF Final Energy:  -232.22456955160621

   => Energetics <=

    Nuclear Repulsion Energy =            189.6582494457514656
    One-Electron Energy =                -690.5847270780810732
    Two-Electron Energy =                 268.7019080807234559
    DFT Exchange-Correlation Energy =       0.0000000000000000
    Empirical Dispersion Energy =           0.0000000000000000
    PCM Polarization Energy =               0.0000000000000000
    EFP Energy =                            0.0000000000000000
    Total Energy =                       -232.2245695516061232
    Molecular point group: c1
  Basis Set: CC-PVTZ
  Basis Set:

  -Total Gradient:
     Atom            X                  Y                   Z
    ------   -----------------  -----------------  -----------------
       1       -0.000020254599    -0.000007488769     0.000005401633
       2       -0.000001086404     0.000114578897     0.000011309655
       3       -0.000136963060    -0.000070166946     0.000000850147
       4        0.000048234672    -0.000005258039    -0.000002158431
       5        0.000020427637    -0.000016235598     0.000003444069
       6        0.000074233592    -0.000044428777     0.000017405283
       7       -0.000019269182    -0.000004659204    -0.000015995297
       8       -0.000004382187     0.000006936331     0.000043544795
       9       -0.000006344895     0.000005209212    -0.000018431474
      10        0.000039697846     0.000025350568    -0.000018267919
      11        0.000009941550     0.000000667926    -0.000000365588
      12       -0.000021582411    -0.000006032545    -0.000010273127
      13        0.000003962790    -0.000002797454    -0.000000896000
      14        0.000017572454    -0.000001148597    -0.000020181530
      15       -0.000004187806     0.000005472996     0.000004613785

  **** Optimization is complete! (in 4 steps) ****
    Final optimized geometry and variables:
    Molecular point group: c1

    Geometry (in Angstrom), charge = 0, multiplicity = 1:

    H           -2.950492643863     0.057188159786     0.883091529421
    C           -2.135012798468    -0.656825785153     0.859435163447
    O           -0.915239560496     0.018073365262     0.830878410808
    H           -2.266710559138    -1.294679862130    -0.008508633362
    H           -2.192120753906    -1.276136610478     1.747477261534
    C           -0.098693769761    -0.232521909895    -0.271118287808
    C            1.174138580522     0.578773122678    -0.137379456707
    H           -0.616161428173     0.034544168481    -1.192156478666
    H            0.139908505481    -1.294139023681    -0.330392472801
    C            2.127814488996     0.362937908346    -1.307379743590
    H            0.908960387846     1.627466404789    -0.059999638012
    H            1.658982478570     0.309588014549     0.794554416687
    H            1.670285905255     0.649396265070    -2.248555752484
    H            3.027653004029     0.953669802619    -1.186722062807
    H            2.425783019161    -0.677216012011    -1.387919465481

  Mulliken Charges: (a.u.)
   Center  Symbol    Alpha    Beta     Spin     Total
       1     H     0.45794  0.45794  0.00000  0.08413
       2     C     3.02870  3.02870  0.00000 -0.05740
       3     O     4.17677  4.17677  0.00000 -0.35354
       4     H     0.47324  0.47324  0.00000  0.05353
       5     H     0.45795  0.45795  0.00000  0.08410
       6     C     2.95530  2.95530  0.00000  0.08941
       7     C     3.08224  3.08224  0.00000 -0.16448
       8     H     0.47576  0.47576  0.00000  0.04849
       9     H     0.47574  0.47574  0.00000  0.04852
      10     C     3.15594  3.15594  0.00000 -0.31187
      11     H     0.45120  0.45120  0.00000  0.09761
      12     H     0.45120  0.45120  0.00000  0.09760
      13     H     0.45587  0.45587  0.00000  0.08826
      14     H     0.44629  0.44629  0.00000  0.10741
      15     H     0.45587  0.45587  0.00000  0.08826

   Total alpha = 21.00000, Total beta = 21.00000, Total charge = -0.00000
