  ==> Input File <==

--------------------------------------------------------------------------
set {
	reference rhf
	basis cc-pvtz
}

set_num_threads( 4 )
memory 2 gb

molecule MOL {
0 1

H	 -3.268214	 -0.875720	 0.463107
C	 -2.806015	 0.000007	 0.024886
N	 -1.391133	 0.000016	 0.301321
H	 -3.029448	 0.000055	 -1.045738
H	 -3.268126	 0.875758	 0.463150
C	 -0.654383	 0.860210	 -0.599146
C	 -0.832253	 -1.334560	 0.310883
H	 -0.748721	 0.525881	 -1.636534
H	 -1.063103	 1.861976	 -0.540013
C	 0.815247	 0.896769	 -0.223827
H	 -1.370816	 -1.935064	 1.034371
H	 -0.938712	 -1.818503	 -0.664470
C	 0.637377	 -1.298001	 0.686202
H	 1.353810	 1.497273	 -0.947315
H	 0.921706	 1.380712	 0.751526
N	 1.374127	 -0.437807	 -0.214265
H	 1.046097	 -2.299767	 0.627069
H	 0.731715	 -0.963672	 1.723590
C	 2.789009	 -0.437798	 0.062170
H	 3.308718	 0.167028	 -0.670395
H	 3.177929	 -1.446388	 -0.001472
H	 3.027672	 -0.045598	 1.054832

	symmetry c1
}
set optking {
	frozen_dihedral = ("
		6 3 2 4
	")
}

ee = optimize('scf')
oeprop('DIPOLE', 'QUADRUPOLE', 'MULLIKEN_CHARGES')
f=open( 'psi4out.xyz', 'w' )
f.write( "22  " )
f.write( str(ee) + "\n" )
f.write( MOL.save_string_xyz() )
f.close()
--------------------------------------------------------------------------

    Molecular point group: c1
  Charge       = 0
  Multiplicity = 1
  Basis Set: CC-PVTZ
  Basis Set:
  @DF-RHF Final Energy:  -344.34863332617510
    Total Energy =                       -344.3486333261753316
    Molecular point group: c1
  Basis Set: CC-PVTZ
  Basis Set:
  Basis Set: CC-PVTZ
  Basis Set:
  @DF-RHF Final Energy:  -344.34879689697681
    Total Energy =                       -344.3487968969770918
  Basis Set: CC-PVTZ
  Basis Set:
  Basis Set: CC-PVTZ
  Basis Set:
  @DF-RHF Final Energy:  -344.34881385666773
    Total Energy =                       -344.3488138566681300
  Basis Set: CC-PVTZ
  Basis Set:
  Charge       = 0
  Multiplicity = 1
  Basis Set: CC-PVTZ
  Basis Set:

    Orbital Energies (a.u.)
    -----------------------

    Doubly Occupied:

       1A    -15.537874     2A    -15.537452     3A    -11.237540
       4A    -11.237462     5A    -11.236876     6A    -11.236789
       7A    -11.234215     8A    -11.234171     9A     -1.257059
      10A     -1.205970    11A     -1.025526    12A     -0.992768
      13A     -0.912277    14A     -0.867615    15A     -0.836559
      16A     -0.756140    17A     -0.666768    18A     -0.637401
      19A     -0.631990    20A     -0.626855    21A     -0.622602
      22A     -0.582226    23A     -0.550993    24A     -0.546809
      25A     -0.542008    26A     -0.518306    27A     -0.497767
      28A     -0.490131    29A     -0.465501    30A     -0.456674
      31A     -0.352797    32A     -0.348294

  @DF-RHF Final Energy:  -344.34881479793586

   => Energetics <=

    Nuclear Repulsion Energy =            421.9226078434427905
    One-Electron Energy =               -1302.7760144709498036
    Two-Electron Energy =                 536.5045918295709271
    DFT Exchange-Correlation Energy =       0.0000000000000000
    Empirical Dispersion Energy =           0.0000000000000000
    PCM Polarization Energy =               0.0000000000000000
    EFP Energy =                            0.0000000000000000
    Total Energy =                       -344.3488147979360292
    Molecular point group: c1
  Basis Set: CC-PVTZ
  Basis Set:

  -Total Gradient:
     Atom            X                  Y                   Z
    ------   -----------------  -----------------  -----------------
       1        0.000019129775     0.000001551084     0.000013779821
       2        0.000159027796    -0.006910284479    -0.000767872083
       3       -0.000611003948     0.004874825347     0.002898339238
       4        0.000016762741     0.004589699726    -0.000036130397
       5       -0.000010505435     0.000029255900     0.000000201846
       6        0.000400715774    -0.002695728926    -0.002107054169
       7       -0.000040629877     0.000112645448     0.000029019314
       8       -0.000007555094     0.000007982867    -0.000025001635
       9        0.000001750253    -0.000000539659    -0.000004659230
      10        0.000021748995     0.000020727328     0.000016298334
      11       -0.000007088922    -0.000001398407    -0.000006507121
      12        0.000004088037     0.000001691357    -0.000000597589
      13        0.000043727522    -0.000028189946     0.000001629896
      14        0.000001517964    -0.000004017312    -0.000000507416
      15        0.000013477846     0.000003223307     0.000005621181
      16        0.000001180658    -0.000003056357    -0.000009776060
      17        0.000023399420    -0.000007796701     0.000001117319
      18       -0.000007397871     0.000002310448    -0.000013639387
      19       -0.000009950879     0.000004421377     0.000011504487
      20       -0.000004228465     0.000002634710    -0.000003491262
      21       -0.000008840228     0.000000884084    -0.000001168486
      22        0.000000673940    -0.000000841198    -0.000001106600

  **** Optimization is complete! (in 4 steps) ****
    Final optimized geometry and variables:
    Molecular point group: c1

    Geometry (in Angstrom), charge = 0, multiplicity = 1:

    H           -3.285974316938    -0.626565435492     0.443352210834
    C           -2.801806449110     0.223818376383    -0.016548968235
    N           -1.384205915635     0.216395456775     0.269787074029
    H           -3.015524235340     0.218837407276    -1.087289278778
    H           -3.254790133311     1.122738518349     0.387935135447
    C           -0.648628138203     1.070618663736    -0.638718726158
    C           -0.821005479381    -1.119150566345     0.260613052420
    H           -0.746191182816     0.724330715573    -1.671344373583
    H           -1.060223356879     2.072560763582    -0.590428332667
    C            0.821612961194     1.115910050299    -0.267947290001
    H           -1.353304348417    -1.729580023953     0.979845741619
    H           -0.926197388349    -1.593828929254    -0.719333023807
    C            0.649191044197    -1.081677443647     0.634928888664
    H            1.354718927324     1.718404691071    -0.994053866285
    H            0.929063597928     1.601570992446     0.706455012204
    N            1.385802191473    -0.216113841759    -0.260100752642
    H            1.059450151889    -2.082716205240     0.571284554430
    H            0.741761917699    -0.752545440209     1.674242068869
    C            2.799689247040    -0.212225898058     0.019789196501
    H            3.319111777161     0.397193695014    -0.709290278937
    H            3.192386348097    -1.219253248273    -0.046583029987
    H            3.034806581552     0.177169255253     1.014493931817

  Mulliken Charges: (a.u.)
   Center  Symbol    Alpha    Beta     Spin     Total
       1     H     0.45339  0.45339  0.00000  0.09323
       2     C     3.09781  3.09781  0.00000 -0.19562
       3     N     3.61474  3.61474  0.00000 -0.22948
       4     H     0.46822  0.46822  0.00000  0.06356
       5     H     0.45031  0.45031  0.00000  0.09938
       6     C     3.03672  3.03672  0.00000 -0.07344
       7     C     3.03417  3.03417  0.00000 -0.06834
       8     H     0.46681  0.46681  0.00000  0.06638
       9     H     0.45376  0.45376  0.00000  0.09249
      10     C     3.03592  3.03592  0.00000 -0.07184
      11     H     0.45381  0.45381  0.00000  0.09239
      12     H     0.46887  0.46887  0.00000  0.06226
      13     C     3.03625  3.03625  0.00000 -0.07251
      14     H     0.45383  0.45383  0.00000  0.09233
      15     H     0.46798  0.46798  0.00000  0.06405
      16     N     3.61290  3.61290  0.00000 -0.22579
      17     H     0.45387  0.45387  0.00000  0.09225
      18     H     0.46820  0.46820  0.00000  0.06360
      19     C     3.09851  3.09851  0.00000 -0.19703
      20     H     0.45199  0.45199  0.00000  0.09603
      21     H     0.45197  0.45197  0.00000  0.09606
      22     H     0.46998  0.46998  0.00000  0.06003

   Total alpha = 32.00000, Total beta = 32.00000, Total charge = -0.00000
