                              Psi4 1.0.54 Driver

  ==> Input File <==

--------------------------------------------------------------------------
set {
	reference rhf
	basis cc-pvtz
}

set_num_threads( 4 )
memory 2 gb

molecule MOL {
0 1

H	 1.128463	 0.207668	 1.465106
C	 1.134717	 0.093725	 0.372487
C	 0.062706	 0.862855	 -0.350965
O	 1.949084	 -0.587776	 -0.146663
C	 -1.339101	 0.577555	 0.196899
H	 0.129922	 0.637146	 -1.407389
H	 0.291000	 1.917932	 -0.217666
C	 -1.812990	 -0.849766	 -0.061624
H	 -2.032681	 1.276385	 -0.256044
H	 -1.357097	 0.782213	 1.263781
H	 -1.839116	 -1.063582	 -1.124242
H	 -2.809966	 -1.001986	 0.333988
H	 -1.159122	 -1.580036	 0.402270

	symmetry c1
}
ee,wfn = energy('scf', return_wfn=True)
oeprop( wfn, 'DIPOLE', 'QUADRUPOLE', 'MULLIKEN_CHARGES')
oeprop( wfn, 'GRID_ESP')
f=open( 'psi4out.xyz', 'w' )
f.write( "13  " )
f.write( str(ee) + "\n" )
f.write( MOL.save_string_xyz() )
f.close()
--------------------------------------------------------------------------

    Molecular point group: c1

    Geometry (in Angstrom), charge = 0, multiplicity = 1:

       Center              X                  Y                   Z               Mass
    ------------   -----------------  -----------------  -----------------  -----------------
           H          1.128310779242     0.207724326286     1.465118437035     1.007825032070
           C          1.134564779242     0.093781326286     0.372499437035    12.000000000000
           C          0.062553779242     0.862911326286    -0.350952562965    12.000000000000
           O          1.948931779242    -0.587719673714    -0.146650562965    15.994914619560
           C         -1.339253220758     0.577611326286     0.196911437035    12.000000000000
           H          0.129769779242     0.637202326286    -1.407376562965     1.007825032070
           H          0.290847779242     1.917988326286    -0.217653562965     1.007825032070
           C         -1.813142220758    -0.849709673714    -0.061611562965    12.000000000000
           H         -2.032833220758     1.276441326286    -0.256031562965     1.007825032070
           H         -1.357249220758     0.782269326286     1.263793437035     1.007825032070
           H         -1.839268220758    -1.063525673714    -1.124229562965     1.007825032070
           H         -2.810118220758    -1.001929673714     0.334000437035     1.007825032070
           H         -1.159274220758    -1.579979673714     0.402282437035     1.007825032070

  Charge       = 0
  Multiplicity = 1
  Basis Set: CC-PVTZ
  Basis Set:

    Orbital Energies (a.u.)
    -----------------------

    Doubly Occupied:

       1A    -20.552565     2A    -11.321986     3A    -11.236951
       4A    -11.234824     5A    -11.219510     6A     -1.407530
       7A     -1.088040     8A     -0.974156     9A     -0.848274
      10A     -0.789748    11A     -0.668595    12A     -0.651949
      13A     -0.629396    14A     -0.596090    15A     -0.560204
      16A     -0.536987    17A     -0.507770    18A     -0.493819
      19A     -0.483997    20A     -0.413027

  @DF-RHF Final Energy:  -231.07075678743391

   => Energetics <=

    Nuclear Repulsion Energy =            174.0953985692646313
    One-Electron Energy =                -657.9014817117731582
    Two-Electron Energy =                 252.7353263550744771
    DFT Exchange-Correlation Energy =       0.0000000000000000
    Empirical Dispersion Energy =           0.0000000000000000
    PCM Polarization Energy =               0.0000000000000000
    EFP Energy =                            0.0000000000000000
    Total Energy =                       -231.0707567874340782

  Mulliken Charges: (a.u.)
   Center  Symbol    Alpha    Beta     Spin     Total
       1     H     0.46476  0.46476  0.00000  0.07049
       2     C     2.90590  2.90590  0.00000  0.18820
       3     C     3.08697  3.08697  0.00000 -0.17394
       4     O     4.16451  4.16451  0.00000 -0.32903
       5     C     3.10340  3.10340  0.00000 -0.20679
       6     H     0.44314  0.44314  0.00000  0.11372
       7     H     0.44280  0.44280  0.00000  0.11441
       8     C     3.14387  3.14387  0.00000 -0.28774
       9     H     0.44368  0.44368  0.00000  0.11263
      10     H     0.45133  0.45133  0.00000  0.09734
      11     H     0.45105  0.45105  0.00000  0.09790
      12     H     0.44671  0.44671  0.00000  0.10658
      13     H     0.45189  0.45189  0.00000  0.09621

   Total alpha = 20.00000, Total beta = 20.00000, Total charge = -0.00000

*** Psi4 exiting successfully. Buy a developer a beer!
