                              Psi4 1.0.54 Driver

  ==> Input File <==

--------------------------------------------------------------------------
set {
	reference rhf
	basis cc-pvtz
}

set_num_threads( 4 )
memory 2 gb

molecule MOL {
0 1

H	 1.651322	 -0.822465	 0.000000
O	 0.729993	 -1.034364	 0.000000
C	 0.037305	 0.100061	 0.000000
C	 -1.018193	 0.114195	 1.064801
O	 0.255038	 0.974579	 -0.764596
H	 -1.697888	 -0.713906	 0.910750
H	 -1.554005	 1.048218	 1.029700
H	 -0.555055	 -0.016084	 2.034336

	symmetry c1
}
set optking {
	frozen_dihedral = ("
		4 3 2 1
	")
}

ee,wfn = optimize('scf', return_wfn=True)
oeprop( wfn, 'DIPOLE', 'QUADRUPOLE', 'MULLIKEN_CHARGES')
f=open( 'psi4out.xyz', 'w' )
f.write( "8  " )
f.write( str(ee) + "\n" )
f.write( MOL.save_string_xyz() )
f.close()
--------------------------------------------------------------------------

    Molecular point group: c1
  Charge       = 0
  Multiplicity = 1
  Basis Set: CC-PVTZ
  Basis Set:
  @DF-RHF Final Energy:  -227.89265610283420
    Total Energy =                       -227.8926561028340529
    Molecular point group: c1
  Basis Set: CC-PVTZ
  Basis Set:
  Basis Set: CC-PVTZ
  Basis Set:
  @DF-RHF Final Energy:  -227.89063529805549
    Total Energy =                       -227.8906352980553436
  Basis Set: CC-PVTZ
  Basis Set:
  Basis Set: CC-PVTZ
  Basis Set:
  @DF-RHF Final Energy:  -227.89334086116742
    Total Energy =                       -227.8933408611674736
  Basis Set: CC-PVTZ
  Basis Set:
  Basis Set: CC-PVTZ
  Basis Set:
  @DF-RHF Final Energy:  -227.89354804359499
    Total Energy =                       -227.8935480435950467
  Basis Set: CC-PVTZ
  Basis Set:
  @DF-RHF Final Energy:  -227.89361145951949
    Total Energy =                       -227.8936114595194340
  Basis Set: CC-PVTZ
  Basis Set:
  @DF-RHF Final Energy:  -227.89364012057837
    Total Energy =                       -227.8936401205783113
  Basis Set: CC-PVTZ
  Basis Set:
  Basis Set: CC-PVTZ
  Basis Set:
  @DF-RHF Final Energy:  -227.89364362468206
    Total Energy =                       -227.8936436246820278
  Basis Set: CC-PVTZ
  Basis Set:
  Basis Set: CC-PVTZ
  Basis Set:
  @DF-RHF Final Energy:  -227.89364175578737
    Total Energy =                       -227.8936417557873142
  Basis Set: CC-PVTZ
  Basis Set:
  Charge       = 0
  Multiplicity = 1
  Basis Set: CC-PVTZ
  Basis Set:

    Orbital Energies (a.u.)
    -----------------------

    Doubly Occupied:

       1A    -20.596667     2A    -20.547588     3A    -11.379175
       4A    -11.239949     5A     -1.472115     6A     -1.372654
       7A     -1.026191     8A     -0.831615     9A     -0.708247
      10A     -0.681432    11A     -0.660903    12A     -0.584427
      13A     -0.581657    14A     -0.538952    15A     -0.492027
      16A     -0.452932

  @DF-RHF Final Energy:  -227.89364249750057

   => Energetics <=

    Nuclear Repulsion Energy =            122.4224117761171158
    One-Electron Energy =                -554.2990447921129089
    Two-Electron Energy =                 203.9829905184952281
    DFT Exchange-Correlation Energy =       0.0000000000000000
    Empirical Dispersion Energy =           0.0000000000000000
    PCM Polarization Energy =               0.0000000000000000
    EFP Energy =                            0.0000000000000000
    Total Energy =                       -227.8936424975005934
    Molecular point group: c1
  Basis Set: CC-PVTZ
  Basis Set:

  -Total Gradient:
     Atom            X                  Y                   Z
    ------   -----------------  -----------------  -----------------
       1       -0.000340050117    -0.000938438876     0.011707028187
       2        0.002257908333     0.002214456229    -0.012486522531
       3       -0.006303282543    -0.003498781514    -0.004113284466
       4        0.004686242033     0.002352560132     0.005012793438
       5       -0.000345596261    -0.000185037947    -0.000082645368
       6        0.000027138320     0.000039937625     0.000030158964
       7        0.000066008894    -0.000001314157    -0.000003486279
       8       -0.000048368657     0.000016618508    -0.000064041945

  **** Optimization is complete! (in 9 steps) ****
    Final optimized geometry and variables:
    Molecular point group: c1

    Geometry (in Angstrom), charge = 0, multiplicity = 1:

    H            1.591953217412    -0.928687988482    -0.125877902812
    O            0.661859442573    -1.084061013542    -0.161375736288
    C           -0.003269318572     0.083171846822    -0.083916561772
    C           -1.086781560929     0.057238959102     0.952840789967
    O            0.307450653117     1.028808288605    -0.712940082162
    H           -1.686831556524    -0.837893241605     0.861215562998
    H           -1.701328624540     0.938821791474     0.869820485107
    H           -0.608398587218     0.032812867811     1.924736444630

  Mulliken Charges: (a.u.)
   Center  Symbol    Alpha    Beta     Spin     Total
       1     H     0.37885  0.37885  0.00000  0.24230
       2     O     4.17371  4.17371  0.00000 -0.34742
       3     C     2.80442  2.80442  0.00000  0.39116
       4     C     3.13584  3.13584  0.00000 -0.27167
       5     O     4.17626  4.17626  0.00000 -0.35253
       6     H     0.44381  0.44381  0.00000  0.11239
       7     H     0.43878  0.43878  0.00000  0.12244
       8     H     0.44833  0.44833  0.00000  0.10335

   Total alpha = 16.00000, Total beta = 16.00000, Total charge =  0.00000

*** Psi4 exiting successfully. Buy a developer a beer!
