                              Psi4 1.0.54 Driver

  ==> Input File <==

--------------------------------------------------------------------------
set {
	reference rhf
	basis cc-pvtz
}

set_num_threads( 4 )
memory 2 gb

molecule MOL {
0 1

H	 2.867672	 -0.456275	 0.875795
C	 2.403497	 -0.020426	 0.000000
N	 0.989899	 -0.304564	 0.000000
H	 2.867672	 -0.456275	 -0.875795
H	 2.620366	 1.051270	 0.000000
C	 0.579246	 -1.069697	 1.159096
C	 0.555847	 -0.953286	 -1.219970
H	 1.083287	 -2.040418	 1.196334
H	 0.846872	 -0.526515	 2.058017
C	 -0.921123	 -1.289756	 1.132445
H	 0.806304	 -0.324689	 -2.066649
H	 1.058129	 -1.915251	 -1.361674
C	 -0.943920	 -1.176336	 -1.185494
H	 -1.224032	 -1.936996	 1.943588
H	 -1.430716	 -0.334821	 1.244306
O	 -1.319662	 -1.906738	 -0.055681
H	 -1.263308	 -1.741592	 -2.049845
H	 -1.454694	 -0.215532	 -1.193579

	symmetry c1
}
set optking {
	frozen_dihedral = ("
		6 3 2 5
	")
}

ee,wfn = optimize('scf', return_wfn=True)
oeprop( wfn, 'DIPOLE', 'QUADRUPOLE', 'MULLIKEN_CHARGES')
f=open( 'psi4out.xyz', 'w' )
f.write( "18  " )
f.write( str(ee) + "\n" )
f.write( MOL.save_string_xyz() )
f.close()
--------------------------------------------------------------------------

    Molecular point group: c1
  Charge       = 0
  Multiplicity = 1
  Basis Set: CC-PVTZ
  Basis Set:
  @DF-RHF Final Energy:  -325.13906533863968
    Total Energy =                       -325.1390653386392842
    Molecular point group: c1
  Basis Set: CC-PVTZ
  Basis Set:
  Basis Set: CC-PVTZ
  Basis Set:
  @DF-RHF Final Energy:  -324.45455835566719
    Total Energy =                       -324.4545583556673023
  Basis Set: CC-PVTZ
  Basis Set:
  Basis Set: CC-PVTZ
  Basis Set:
  @DF-RHF Final Energy:  -324.65184891018112
    Total Energy =                       -324.6518489101810587
  Basis Set: CC-PVTZ
  Basis Set:
  Basis Set: CC-PVTZ
  Basis Set:
  @DF-RHF Final Energy:  -324.92558381829906
    Total Energy =                       -324.9255838182991738
  Basis Set: CC-PVTZ
  Basis Set:
  @DF-RHF Final Energy:  -325.10839167323547
    Total Energy =                       -325.1083916732358148
  @DF-RHF Final Energy:  -325.13176339565598
    Total Energy =                       -325.1317633956558097
  @DF-RHF Final Energy:  -325.13830106724151
    Total Energy =                       -325.1383010672416276
  Basis Set: CC-PVTZ
  Basis Set:
  @DF-RHF Final Energy:  -325.13971432860478
    Total Energy =                       -325.1397143286045548
  Basis Set: CC-PVTZ
  Basis Set:
  Basis Set: CC-PVTZ
  Basis Set:
  @DF-RHF Final Energy:  -325.13984699390153
    Total Energy =                       -325.1398469939011875
  Basis Set: CC-PVTZ
  Basis Set:
  Basis Set: CC-PVTZ
  Basis Set:
  @DF-RHF Final Energy:  -325.13985701064843
    Total Energy =                       -325.1398570106481429
  Basis Set: CC-PVTZ
  Basis Set:
  Charge       = 0
  Multiplicity = 1
  Basis Set: CC-PVTZ
  Basis Set:

    Orbital Energies (a.u.)
    -----------------------

    Doubly Occupied:

       1A    -20.546936     2A    -15.540574     3A    -11.263473
       4A    -11.263443     5A    -11.242420     6A    -11.242358
       7A    -11.238879     8A     -1.385861     9A     -1.228938
      10A     -1.038774    11A     -0.980944    12A     -0.883573
      13A     -0.870435    14A     -0.773457    15A     -0.684329
      16A     -0.645617    17A     -0.644285    18A     -0.631780
      19A     -0.627840    20A     -0.572271    21A     -0.558061
      22A     -0.547992    23A     -0.527028    24A     -0.499834
      25A     -0.484947    26A     -0.453319    27A     -0.409856
      28A     -0.348077

  @DF-RHF Final Energy:  -325.13985795510951

   => Energetics <=

    Nuclear Repulsion Energy =            341.3509709911093069
    One-Electron Energy =               -1118.7110624077115517
    Two-Electron Energy =                 452.2202334614929669
    DFT Exchange-Correlation Energy =       0.0000000000000000
    Empirical Dispersion Energy =           0.0000000000000000
    PCM Polarization Energy =               0.0000000000000000
    EFP Energy =                            0.0000000000000000
    Total Energy =                       -325.1398579551092780
    Molecular point group: c1
  Basis Set: CC-PVTZ
  Basis Set:

  -Total Gradient:
     Atom            X                  Y                   Z
    ------   -----------------  -----------------  -----------------
       1       -0.000009193725    -0.000018293601     0.000007207499
       2        0.000528159797     0.000397842878    -0.001301319397
       3        0.000992431724    -0.000787869740     0.000060651086
       4       -0.000042108886    -0.000004177920    -0.000013785063
       5       -0.000611648571    -0.000115905155     0.001101459075
       6       -0.000880041648     0.000461093025     0.000113757038
       7        0.000004468304     0.000002257458    -0.000026596464
       8        0.000018291664     0.000003944703     0.000002144549
       9       -0.000018961993     0.000009570713     0.000038400683
      10        0.000057647919    -0.000002246835    -0.000059699399
      11        0.000006436278     0.000009086287    -0.000019730763
      12       -0.000019893216     0.000005015608     0.000018344437
      13       -0.000003461181    -0.000010556761     0.000126781246
      14        0.000013471883    -0.000001610647    -0.000001353881
      15       -0.000004072103     0.000003874868    -0.000001237807
      16       -0.000025416434     0.000060728067    -0.000016721241
      17        0.000009321423    -0.000014497776    -0.000007177928
      18       -0.000015431237     0.000001744818    -0.000021123671

  **** Optimization is complete! (in 11 steps) ****
    Final optimized geometry and variables:
    Molecular point group: c1

    Geometry (in Angstrom), charge = 0, multiplicity = 1:

    H            0.955719935641     2.127772626698     1.767957317483
    C            0.828330045314     2.170843890064     0.692069558079
    N            0.128983915090     0.995812602762     0.202172844407
    H            1.819595328941     2.258859570593     0.258380174959
    H            0.278416913979     3.078023256230     0.466195857351
    C           -0.226420205937     0.044921029349     1.233243539349
    C            0.783762583406     0.347928400939    -0.913118726725
    H            0.659371120025    -0.386525979802     1.710183583288
    H           -0.800796613602     0.548110039455     2.002167666365
    C           -1.063484733008    -1.072643938272     0.640652739528
    H            0.945783198592     1.071851228623    -1.703473193272
    H            1.760872093361    -0.054713965471    -0.628240803855
    C           -0.082449356853    -0.779399284991    -1.441498837538
    H           -1.250301127951    -1.839091906328     1.379983547773
    H           -2.019672293524    -0.672639706981     0.308811050293
    O           -0.406185751690    -1.684951243793    -0.428754991145
    H            0.442054135217    -1.333355400509    -2.207691364724
    H           -0.991251003864    -0.366555677695    -1.875168976860

  Mulliken Charges: (a.u.)
   Center  Symbol    Alpha    Beta     Spin     Total
       1     H     0.45940  0.45940  0.00000  0.08120
       2     C     3.08971  3.08971  0.00000 -0.17943
       3     N     3.61945  3.61945  0.00000 -0.23889
       4     H     0.46105  0.46105  0.00000  0.07790
       5     H     0.44945  0.44945  0.00000  0.10110
       6     C     3.04139  3.04139  0.00000 -0.08278
       7     C     3.04179  3.04179  0.00000 -0.08358
       8     H     0.46895  0.46895  0.00000  0.06210
       9     H     0.45368  0.45368  0.00000  0.09264
      10     C     2.98446  2.98446  0.00000  0.03107
      11     H     0.45355  0.45355  0.00000  0.09290
      12     H     0.46893  0.46893  0.00000  0.06213
      13     C     2.98444  2.98444  0.00000  0.03111
      14     H     0.45015  0.45015  0.00000  0.09970
      15     H     0.46855  0.46855  0.00000  0.06290
      16     O     4.18634  4.18634  0.00000 -0.37268
      17     H     0.45019  0.45019  0.00000  0.09962
      18     H     0.46852  0.46852  0.00000  0.06296

   Total alpha = 28.00000, Total beta = 28.00000, Total charge =  0.00000

*** Psi4 exiting successfully. Buy a developer a beer!
