                              Psi4 1.0.54 Driver

  ==> Input File <==

--------------------------------------------------------------------------
set {
	reference rhf
	basis cc-pvtz
}

set_num_threads( 4 )
memory 2 gb

molecule MOL {
0 1

O	 -2.817697	 1.304178	 0.001046
C	 -2.664672	 0.129869	 0.003507
C	 -3.797908	 -0.860100	 -0.001145
O	 -1.481217	 -0.452708	 0.001092
H	 -4.408836	 -0.679689	 -0.875387
H	 -3.443486	 -1.878443	 -0.002770
H	 -4.412123	 -0.683688	 0.871605
C	 -0.332055	 0.384012	 -0.000250
C	 0.892252	 -0.506059	 -0.000295
H	 -0.360822	 1.020205	 -0.874146
H	 -0.359817	 1.021310	 0.872861
C	 1.524096	 -0.613941	 -1.385032
H	 0.610822	 -1.491527	 0.356523
H	 1.614430	 -0.111184	 0.706951
C	 2.761580	 -1.506780	 -1.409478
H	 0.791128	 -1.000314	 -2.088915
H	 1.792651	 0.378211	 -1.739272
C	 3.393971	 -1.613905	 -2.792813
H	 2.494104	 -2.499012	 -1.057359
H	 3.494819	 -1.121576	 -0.706581
H	 2.695253	 -2.028645	 -3.511582
H	 4.268649	 -2.253550	 -2.775508
H	 3.703427	 -0.640475	 -3.158223

	symmetry c1
}
set optking {
	frozen_dihedral = ("
		13 9 8 10
	")
}

ee,wfn = optimize('scf', return_wfn=True)
oeprop( wfn, 'DIPOLE', 'QUADRUPOLE', 'MULLIKEN_CHARGES')
f=open( 'psi4out.xyz', 'w' )
f.write( "23  " )
f.write( str(ee) + "\n" )
f.write( MOL.save_string_xyz() )
f.close()
--------------------------------------------------------------------------

    Molecular point group: c1
  Charge       = 0
  Multiplicity = 1
  Basis Set: CC-PVTZ
  Basis Set:
  @DF-RHF Final Energy:  -423.13007907491544
    Total Energy =                       -423.1300790749153293
    Molecular point group: c1
  Basis Set: CC-PVTZ
  Basis Set:
  Basis Set: CC-PVTZ
  Basis Set:
  @DF-RHF Final Energy:  -423.13027521208295
    Total Energy =                       -423.1302752120824380
  Basis Set: CC-PVTZ
  Basis Set:
  Basis Set: CC-PVTZ
  Basis Set:
  @DF-RHF Final Energy:  -423.13045998321161
    Total Energy =                       -423.1304599832113809
  Basis Set: CC-PVTZ
  Basis Set:
  Basis Set: CC-PVTZ
  Basis Set:
  @DF-RHF Final Energy:  -423.13057066860478
    Total Energy =                       -423.1305706686046051
  Basis Set: CC-PVTZ
  Basis Set:
  Basis Set: CC-PVTZ
  Basis Set:
  @DF-RHF Final Energy:  -423.13058968792689
    Total Energy =                       -423.1305896879263173
  Basis Set: CC-PVTZ
  Basis Set:
  Charge       = 0
  Multiplicity = 1
  Basis Set: CC-PVTZ
  Basis Set:

    Orbital Energies (a.u.)
    -----------------------

    Doubly Occupied:

       1A    -20.595438     2A    -20.529232     3A    -11.365985
       4A    -11.280237     5A    -11.230734     6A    -11.222591
       7A    -11.218857     8A    -11.218004     9A    -11.210225
      10A     -1.470284    11A     -1.363230    12A     -1.092959
      13A     -1.041951    14A     -1.003143    15A     -0.931415
      16A     -0.843249    17A     -0.799599    18A     -0.781917
      19A     -0.690702    20A     -0.684529    21A     -0.669223
      22A     -0.645655    23A     -0.609422    24A     -0.584457
      25A     -0.579127    26A     -0.575682    27A     -0.559365
      28A     -0.534976    29A     -0.528750    30A     -0.503758
      31A     -0.500260    32A     -0.473908    33A     -0.471355
      34A     -0.465671    35A     -0.447683    36A     -0.439348

  @DF-RHF Final Energy:  -423.13059046895705

   => Energetics <=

    Nuclear Repulsion Energy =            454.9917124569274165
    One-Electron Energy =               -1477.9187565940680997
    Two-Electron Energy =                 599.7964536681837444
    DFT Exchange-Correlation Energy =       0.0000000000000000
    Empirical Dispersion Energy =           0.0000000000000000
    PCM Polarization Energy =               0.0000000000000000
    EFP Energy =                            0.0000000000000000
    Total Energy =                       -423.1305904689569388
    Molecular point group: c1
  Basis Set: CC-PVTZ
  Basis Set:

  -Total Gradient:
     Atom            X                  Y                   Z
    ------   -----------------  -----------------  -----------------
       1        0.000013097489     0.000084342123    -0.000016679287
       2       -0.000083166986    -0.000055147114     0.000052030662
       3        0.000031751170     0.000023795451     0.000013380500
       4        0.000114115556    -0.000000032299    -0.000113739191
       5       -0.000002675946     0.000018394164    -0.000029788490
       6        0.000019307532    -0.000047577554    -0.000000411121
       7       -0.000020343448     0.000005918138     0.000020652012
       8        0.002492102324     0.003576573676     0.001895159648
       9        0.000511788166     0.000575874440     0.004276017184
      10       -0.002181230999    -0.003073503395    -0.002162699433
      11        0.000010542774     0.000062173218     0.000039136071
      12       -0.000035513304    -0.000048018367     0.000017314240
      13       -0.000869037390    -0.001104241334    -0.003967415540
      14       -0.000000182196    -0.000031363013     0.000013465735
      15        0.000024628896     0.000009261120    -0.000016046814
      16       -0.000032358248    -0.000040556967    -0.000023175701
      17       -0.000027507056     0.000039300442    -0.000022297601
      18        0.000004985020     0.000020482160     0.000017654207
      19       -0.000009136011    -0.000014824621    -0.000009498394
      20        0.000028961854     0.000003680386     0.000028301731
      21       -0.000018930369    -0.000007986645    -0.000008047385
      22        0.000020004674    -0.000013050700     0.000002727441
      23        0.000008796495     0.000016506698    -0.000006040471

  **** Optimization is complete! (in 6 steps) ****
    Final optimized geometry and variables:
    Molecular point group: c1

    Geometry (in Angstrom), charge = 0, multiplicity = 1:

    O           -2.543621539780     1.687251394779     0.618774813453
    C           -2.367588734307     0.516056995110     0.594871862191
    C           -3.481995981599    -0.493593696198     0.531861784236
    O           -1.174413913358    -0.044366975223     0.621428530653
    H           -4.068775290166    -0.302833788458    -0.356736906730
    H           -3.109390530313    -1.505467449360     0.517509072615
    H           -4.126068015683    -0.348921987141     1.388911171875
    C           -0.038777528173     0.818292147326     0.680190978734
    C            1.211998954518    -0.054429031358     0.653821184594
    H           -0.087509226000     1.472732420626    -0.177953262726
    H           -0.106566067783     1.416373306124     1.576236111596
    C            1.834438389471    -0.172672558657    -0.736885583051
    H            0.937631359449    -1.046287255223     0.992352847731
    H            1.944539100119     0.341041149118     1.348522604148
    C            3.053702781045    -1.088518794782    -0.773586563917
    H            1.084407643704    -0.542944553685    -1.431461173763
    H            2.117375556291     0.815895332504    -1.090333018478
    C            3.679827400825    -1.196436779287    -2.159866517482
    H            2.768554928453    -2.078681163546    -0.428835865352
    H            3.797468336295    -0.724118652292    -0.069875673480
    H            2.970077286260    -1.589829092339    -2.879950853410
    H            4.541032088728    -1.854461785403    -2.151290130372
    H            4.008466189064    -0.226361197960    -2.517607090127

  Mulliken Charges: (a.u.)
   Center  Symbol    Alpha    Beta     Spin     Total
       1     O     4.20298  4.20298  0.00000 -0.40596
       2     C     2.81282  2.81282  0.00000  0.37435
       3     C     3.13913  3.13913  0.00000 -0.27826
       4     O     4.14942  4.14942  0.00000 -0.29884
       5     H     0.44220  0.44220  0.00000  0.11560
       6     H     0.44243  0.44243  0.00000  0.11515
       7     H     0.44194  0.44194  0.00000  0.11612
       8     C     2.98569  2.98569  0.00000  0.02863
       9     C     3.08981  3.08981  0.00000 -0.17963
      10     H     0.45340  0.45340  0.00000  0.09321
      11     H     0.44631  0.44631  0.00000  0.10739
      12     C     3.09065  3.09065  0.00000 -0.18131
      13     H     0.44844  0.44844  0.00000  0.10312
      14     H     0.44802  0.44802  0.00000  0.10396
      15     C     3.08652  3.08652  0.00000 -0.17304
      16     H     0.45161  0.45161  0.00000  0.09679
      17     H     0.45389  0.45389  0.00000  0.09222
      18     C     3.14958  3.14958  0.00000 -0.29917
      19     H     0.45341  0.45341  0.00000  0.09319
      20     H     0.45449  0.45449  0.00000  0.09102
      21     H     0.45467  0.45467  0.00000  0.09065
      22     H     0.44790  0.44790  0.00000  0.10421
      23     H     0.45470  0.45470  0.00000  0.09061

   Total alpha = 36.00000, Total beta = 36.00000, Total charge = -0.00000

*** Psi4 exiting successfully. Buy a developer a beer!
