                              Psi4 1.0.54 Driver

  ==> Input File <==

--------------------------------------------------------------------------
set {
	reference rhf
	basis cc-pvtz
}

set_num_threads( 4 )
memory 2 gb

molecule MOL {
0 1

H	 -4.097492	 -0.261984	 -1.338110
O	 -3.458596	 0.315260	 -0.960865
C	 -3.176635	 -0.080824	 0.355601
C	 -1.763371	 0.265266	 0.799691
H	 -3.321825	 -1.153438	 0.379502
H	 -3.895468	 0.357385	 1.043382
C	 -0.673390	 -0.426948	 -0.013392
H	 -1.631049	 1.344913	 0.747560
H	 -1.664587	 -0.001624	 1.849167
C	 0.737842	 -0.043159	 0.423759
H	 -0.806103	 -0.190518	 -1.063345
H	 -0.797221	 -1.503753	 0.074146
C	 1.824000	 -0.743224	 -0.390623
H	 0.850588	 1.033777	 0.343840
H	 0.868587	 -0.286314	 1.476203
C	 3.255957	 -0.453067	 0.062319
H	 1.718250	 -0.470599	 -1.438164
H	 1.658105	 -1.815850	 -0.339904
C	 3.707029	 0.992337	 -0.133857
H	 3.928201	 -1.104096	 -0.488158
H	 3.362667	 -0.724561	 1.109374
H	 3.605811	 1.294044	 -1.171549
H	 4.748333	 1.111029	 0.143343
H	 3.129882	 1.683078	 0.468956

	symmetry c1
}
set optking {
	frozen_dihedral = ("
		1 2 3 5
	")
}

ee,wfn = optimize('scf', return_wfn=True)
oeprop( wfn, 'DIPOLE', 'QUADRUPOLE', 'MULLIKEN_CHARGES')
f=open( 'psi4out.xyz', 'w' )
f.write( "24  " )
f.write( str(ee) + "\n" )
f.write( MOL.save_string_xyz() )
f.close()
--------------------------------------------------------------------------

    Molecular point group: c1
  Charge       = 0
  Multiplicity = 1
  Basis Set: CC-PVTZ
  Basis Set:
  @DF-RHF Final Energy:  -349.37858500241623
    Total Energy =                       -349.3785850024165711
    Molecular point group: c1
  Basis Set: CC-PVTZ
  Basis Set:
  Basis Set: CC-PVTZ
  Basis Set:
  @DF-RHF Final Energy:  -349.37981982907581
    Total Energy =                       -349.3798198290759274
  Basis Set: CC-PVTZ
  Basis Set:
  Basis Set: CC-PVTZ
  Basis Set:
  @DF-RHF Final Energy:  -349.38013291923704
    Total Energy =                       -349.3801329192376670
  Basis Set: CC-PVTZ
  Basis Set:
  Basis Set: CC-PVTZ
  Basis Set:
  @DF-RHF Final Energy:  -349.38013727117237
    Total Energy =                       -349.3801372711726572
  Basis Set: CC-PVTZ
  Basis Set:
  Charge       = 0
  Multiplicity = 1
  Basis Set: CC-PVTZ
  Basis Set:

    Orbital Energies (a.u.)
    -----------------------

    Doubly Occupied:

       1A    -20.545628     2A    -11.265910     3A    -11.210248
       4A    -11.210149     5A    -11.207641     6A    -11.206844
       7A    -11.205743     8A    -11.203119     9A     -1.363250
      10A     -1.087326    11A     -1.047721    12A     -0.985709
      13A     -0.913942    14A     -0.845171    15A     -0.789529
      16A     -0.774255    17A     -0.709119    18A     -0.640772
      19A     -0.636540    20A     -0.609793    21A     -0.592646
      22A     -0.578464    23A     -0.557948    24A     -0.536373
      25A     -0.515340    26A     -0.505225    27A     -0.496478
      28A     -0.473439    29A     -0.466679    30A     -0.458700
      31A     -0.450432    32A     -0.449972    33A     -0.421866

  @DF-RHF Final Energy:  -349.38013789299805

   => Energetics <=

    Nuclear Repulsion Energy =            385.0402280087230338
    One-Electron Energy =               -1236.9167997564309189
    Two-Electron Energy =                 502.4964338547102329
    DFT Exchange-Correlation Energy =       0.0000000000000000
    Empirical Dispersion Energy =           0.0000000000000000
    PCM Polarization Energy =               0.0000000000000000
    EFP Energy =                            0.0000000000000000
    Total Energy =                       -349.3801378929976522
    Molecular point group: c1
  Basis Set: CC-PVTZ
  Basis Set:

  -Total Gradient:
     Atom            X                  Y                   Z
    ------   -----------------  -----------------  -----------------
       1        0.000964478510    -0.000780372781    -0.000512203692
       2       -0.001460922061     0.000996705301     0.000696537516
       3        0.001631959100    -0.000367664939    -0.000450941569
       4       -0.000042795402     0.000001210770     0.000019838973
       5       -0.001108337713     0.000160111422     0.000272259964
       6        0.000026810914    -0.000003270155     0.000003758353
       7       -0.000027581357    -0.000002147363    -0.000002056889
       8       -0.000011374965    -0.000007147029    -0.000007767773
       9       -0.000001173214     0.000008501859     0.000013628500
      10       -0.000001142207     0.000000108590    -0.000004642866
      11        0.000004987693    -0.000010876383    -0.000021805327
      12        0.000006953903     0.000004671037    -0.000004669611
      13        0.000008698771    -0.000001157940     0.000003932355
      14        0.000004644059     0.000010373811     0.000005566777
      15       -0.000000800835    -0.000000986467    -0.000005607971
      16        0.000007189645    -0.000007151224    -0.000013779209
      17        0.000000084784     0.000000836131     0.000003045124
      18        0.000001443317    -0.000003551582    -0.000003780340
      19       -0.000003236176    -0.000003063745     0.000002773634
      20        0.000005753356    -0.000002332241     0.000001834790
      21       -0.000000359447     0.000003301582     0.000000994856
      22       -0.000000620948    -0.000001376647    -0.000001290637
      23        0.000001236921    -0.000000233666     0.000000699767
      24       -0.000005896660     0.000005511662     0.000003675277

  **** Optimization is complete! (in 5 steps) ****
    Final optimized geometry and variables:
    Molecular point group: c1

    Geometry (in Angstrom), charge = 0, multiplicity = 1:

    H           -4.077780021509    -0.105358578780    -1.257560923016
    O           -3.430347357226     0.419431963421    -0.826589053505
    C           -3.162502771643    -0.087068477756     0.457203427627
    C           -1.739862931128     0.257778288595     0.853686922643
    H           -3.309228582434    -1.164258497319     0.480248563802
    H           -3.855262479715     0.346904187172     1.173317291922
    C           -0.676835397638    -0.432353033645     0.004278648111
    H           -1.621301189094     1.335264397837     0.788072076178
    H           -1.606590059362    -0.009033860179     1.899105540358
    C            0.746889914427    -0.049206643687     0.399530131256
    H           -0.842291837204    -0.186777446727    -1.038615694345
    H           -0.795166316842    -1.510563509819     0.091191202924
    C            1.808571876763    -0.743436418770    -0.451354562690
    H            0.854518193749     1.028026808708     0.320920030457
    H            0.910609820566    -0.297216842714     1.446304676353
    C            3.253501932359    -0.452101547344    -0.042221552856
    H            1.669574436710    -0.466167245008    -1.493795491614
    H            1.646930914635    -1.816889845537    -0.400330583071
    C            3.694556065390     0.995520449745    -0.244815830735
    H            3.909907633210    -1.098551201842    -0.616873005001
    H            3.393679461546    -0.728704799700     0.999582761065
    H            3.558802046635     1.302755909657    -1.276893213656
    H            4.744074431133     1.115348053538    -0.000882196437
    H            3.135435124339     1.681343244771     0.380054709234

  Mulliken Charges: (a.u.)
   Center  Symbol    Alpha    Beta     Spin     Total
       1     H     0.39354  0.39354  0.00000  0.21291
       2     O     4.20281  4.20281  0.00000 -0.40561
       3     C     2.97688  2.97688  0.00000  0.04623
       4     C     3.08871  3.08871  0.00000 -0.17743
       5     H     0.47270  0.47270  0.00000  0.05461
       6     H     0.46229  0.46229  0.00000  0.07542
       7     C     3.09080  3.09080  0.00000 -0.18159
       8     H     0.45136  0.45136  0.00000  0.09728
       9     H     0.45399  0.45399  0.00000  0.09203
      10     C     3.09215  3.09215  0.00000 -0.18430
      11     H     0.44557  0.44557  0.00000  0.10886
      12     H     0.45911  0.45911  0.00000  0.08178
      13     C     3.09423  3.09423  0.00000 -0.18847
      14     H     0.45166  0.45166  0.00000  0.09668
      15     H     0.45678  0.45678  0.00000  0.08643
      16     C     3.09016  3.09016  0.00000 -0.18032
      17     H     0.45383  0.45383  0.00000  0.09233
      18     H     0.45095  0.45095  0.00000  0.09810
      19     C     3.15228  3.15228  0.00000 -0.30455
      20     H     0.44916  0.44916  0.00000  0.10169
      21     H     0.45552  0.45552  0.00000  0.08897
      22     H     0.45475  0.45475  0.00000  0.09050
      23     H     0.44712  0.44712  0.00000  0.10576
      24     H     0.45365  0.45365  0.00000  0.09271

   Total alpha = 33.00000, Total beta = 33.00000, Total charge =  0.00000

*** Psi4 exiting successfully. Buy a developer a beer!
