                              Psi4 1.0.54 Driver

  ==> Input File <==

--------------------------------------------------------------------------
set {
	reference rhf
	basis cc-pvtz
}

set_num_threads( 4 )
memory 2 gb

molecule MOL {
0 1

H	 3.721907	 -0.933076	 -0.066039
O	 2.824271	 -1.154299	 0.131461
C	 2.076458	 -0.067370	 -0.038225
C	 0.626018	 -0.337582	 0.258241
O	 2.538288	 0.965419	 -0.381593
C	 -0.267326	 0.883135	 0.076490
H	 0.325620	 -1.161483	 -0.378003
H	 0.574537	 -0.713685	 1.275261
C	 -1.726822	 0.642622	 0.463839
H	 -0.210803	 1.217591	 -0.953497
H	 0.129920	 1.693110	 0.675679
C	 -2.480891	 -0.340606	 -0.429852
H	 -2.243098	 1.597649	 0.438609
H	 -1.776542	 0.301208	 1.495542
C	 -1.842276	 -0.494162	 -1.806466
H	 -2.518710	 -1.310165	 0.059597
H	 -3.510451	 -0.020422	 -0.554125
H	 -2.394262	 -1.197572	 -2.419009
H	 -0.822120	 -0.854105	 -1.726336
H	 -1.816507	 0.453870	 -2.333463

	symmetry c1
}
set optking {
	frozen_dihedral = ("
		16 12 9 6
	")
}

ee,wfn = optimize('scf', return_wfn=True)
oeprop( wfn, 'DIPOLE', 'QUADRUPOLE', 'MULLIKEN_CHARGES')
f=open( 'psi4out.xyz', 'w' )
f.write( "20  " )
f.write( str(ee) + "\n" )
f.write( MOL.save_string_xyz() )
f.close()
--------------------------------------------------------------------------

    Molecular point group: c1
  Charge       = 0
  Multiplicity = 1
  Basis Set: CC-PVTZ
  Basis Set:
  @DF-RHF Final Energy:  -384.08165058172585
    Total Energy =                       -384.0816505817256257
    Molecular point group: c1
  Basis Set: CC-PVTZ
  Basis Set:
  Basis Set: CC-PVTZ
  Basis Set:
  @DF-RHF Final Energy:  -384.08690700712771
    Total Energy =                       -384.0869070071274791
  Basis Set: CC-PVTZ
  Basis Set:
  Basis Set: CC-PVTZ
  Basis Set:
  @DF-RHF Final Energy:  -384.08763274395437
    Total Energy =                       -384.0876327439548277
  Basis Set: CC-PVTZ
  Basis Set:
  Basis Set: CC-PVTZ
  Basis Set:
  @DF-RHF Final Energy:  -384.08701099798111
    Total Energy =                       -384.0870109979811104
  Basis Set: CC-PVTZ
  Basis Set:
  @DF-RHF Final Energy:  -384.08781183594817
    Total Energy =                       -384.0878118359481732
  Basis Set: CC-PVTZ
  Basis Set:
  @DF-RHF Final Energy:  -384.08789015055584
    Total Energy =                       -384.0878901505553813
  Basis Set: CC-PVTZ
  Basis Set:
  Basis Set: CC-PVTZ
  Basis Set:
  @DF-RHF Final Energy:  -384.08789408598864
    Total Energy =                       -384.0878940859878412
  Basis Set: CC-PVTZ
  Basis Set:
  Basis Set: CC-PVTZ
  Basis Set:
  @DF-RHF Final Energy:  -384.08789510953352
    Total Energy =                       -384.0878951095334060
  Basis Set: CC-PVTZ
  Basis Set:
  Charge       = 0
  Multiplicity = 1
  Basis Set: CC-PVTZ
  Basis Set:

    Orbital Energies (a.u.)
    -----------------------

    Doubly Occupied:

       1A    -20.603672     2A    -20.540298     3A    -11.373080
       4A    -11.238017     5A    -11.220056     6A    -11.219073
       7A    -11.218512     8A    -11.211805     9A     -1.477200
      10A     -1.368700    11A     -1.095584    12A     -1.038133
      13A     -0.962224    14A     -0.883150    15A     -0.814859
      16A     -0.766419    17A     -0.703142    18A     -0.692203
      19A     -0.669723    20A     -0.629916    21A     -0.623677
      22A     -0.586634    23A     -0.569760    24A     -0.564387
      25A     -0.536520    26A     -0.512100    27A     -0.508217
      28A     -0.484064    29A     -0.469261    30A     -0.461031
      31A     -0.456455    32A     -0.443689

  @DF-RHF Final Energy:  -384.08789530006629

   => Energetics <=

    Nuclear Repulsion Energy =            384.1853704730932577
    One-Electron Energy =               -1284.6634075175261387
    Two-Electron Energy =                 516.3901417443665878
    DFT Exchange-Correlation Energy =       0.0000000000000000
    Empirical Dispersion Energy =           0.0000000000000000
    PCM Polarization Energy =               0.0000000000000000
    EFP Energy =                            0.0000000000000000
    Total Energy =                       -384.0878953000662932
    Molecular point group: c1
  Basis Set: CC-PVTZ
  Basis Set:

  -Total Gradient:
     Atom            X                  Y                   Z
    ------   -----------------  -----------------  -----------------
       1       -0.000005635635     0.000005209548     0.000000647240
       2       -0.000015986838    -0.000005996099    -0.000009803217
       3        0.000031506592     0.000001411730     0.000014113724
       4        0.000009723548    -0.000004289865    -0.000019230624
       5       -0.000005576992     0.000006363601     0.000001584738
       6       -0.001302851988     0.004333274464    -0.003249675972
       7       -0.000007169636    -0.000005912343     0.000001147855
       8        0.000005896863     0.000003475471     0.000023964195
       9        0.000367108031    -0.005818031069     0.005445309855
      10        0.000001183726     0.000010103132    -0.000008871028
      11        0.000007963749    -0.000007481739     0.000001203232
      12        0.007396912517    -0.000490518392    -0.005245519558
      13       -0.000001289127     0.000001273162     0.000013105117
      14       -0.000011011914    -0.000010490679    -0.000006616150
      15       -0.000008506803     0.000007412021     0.000008394397
      16       -0.006461368749     0.001984187697     0.003051039678
      17       -0.000000211010    -0.000011199366    -0.000021649742
      18       -0.000007187738    -0.000002860042    -0.000001452068
      19        0.000008737625    -0.000004742015     0.000006983624
      20       -0.000002236215     0.000008810780    -0.000004675293

  **** Optimization is complete! (in 9 steps) ****
    Final optimized geometry and variables:
    Molecular point group: c1

    Geometry (in Angstrom), charge = 0, multiplicity = 1:

    H            3.470800110111    -0.948124928120     0.453851747978
    O            2.565515495297    -1.148048503657     0.638846480747
    C            1.829090027731    -0.082900337707     0.334551885272
    C            0.367361072971    -0.319834525636     0.601739865153
    O            2.307362169074     0.910666989060    -0.092395239011
    C           -0.515630006601     0.880615197112     0.281054552420
    H            0.080836375666    -1.199873841423     0.037364108253
    H            0.276642501299    -0.600358576428     1.646303073266
    C           -2.001498935894     0.627760998980     0.546635078397
    H           -0.358516301239     1.184837531425    -0.744581128519
    H           -0.192104513556     1.715497940371     0.890871407360
    C           -2.748187122916    -0.323430684001    -0.415767523849
    H           -2.490163148971     1.595810097717     0.500749348525
    H           -2.136181470879     0.278525375040     1.565497499673
    C           -2.227345323797    -0.416851933281    -1.846056732251
    H           -2.840238575858    -1.309005047430     0.030460357716
    H           -3.775386996175     0.026277301844    -0.465274011121
    H           -2.879893651960    -1.048052919148    -2.437871682920
    H           -1.231037163283    -0.837040257498    -1.903072013242
    H           -2.199793280847     0.558660590665    -2.319146640862

  Mulliken Charges: (a.u.)
   Center  Symbol    Alpha    Beta     Spin     Total
       1     H     0.38246  0.38246  0.00000  0.23508
       2     O     4.16048  4.16048  0.00000 -0.32096
       3     C     2.80319  2.80319  0.00000  0.39362
       4     C     3.11356  3.11356  0.00000 -0.22712
       5     O     4.19118  4.19118  0.00000 -0.38235
       6     C     3.10012  3.10012  0.00000 -0.20025
       7     H     0.43706  0.43706  0.00000  0.12589
       8     H     0.43500  0.43500  0.00000  0.13000
       9     C     3.10601  3.10601  0.00000 -0.21202
      10     H     0.44211  0.44211  0.00000  0.11579
      11     H     0.43627  0.43627  0.00000  0.12747
      12     C     3.09814  3.09814  0.00000 -0.19628
      13     H     0.44442  0.44442  0.00000  0.11116
      14     H     0.44941  0.44941  0.00000  0.10118
      15     C     3.15611  3.15611  0.00000 -0.31222
      16     H     0.44895  0.44895  0.00000  0.10210
      17     H     0.44763  0.44763  0.00000  0.10475
      18     H     0.44310  0.44310  0.00000  0.11380
      19     H     0.45406  0.45406  0.00000  0.09188
      20     H     0.45075  0.45075  0.00000  0.09849

   Total alpha = 32.00000, Total beta = 32.00000, Total charge =  0.00000

*** Psi4 exiting successfully. Buy a developer a beer!
