  ==> Input File <==

--------------------------------------------------------------------------
set {
	reference rhf
	basis cc-pvtz
}

set_num_threads( 4 )
memory 2 gb

molecule MOL {
0 1

O	 -0.392006	 -0.962693	 -1.759447
C	 -0.387191	 -0.046235	 -0.988215
C	 -1.519744	 0.959749	 -1.000605
N	 0.622280	 0.144970	 -0.099307
H	 -1.156344	 1.960557	 -1.197250
H	 -2.201214	 0.668096	 -1.782289
H	 -2.046384	 0.972656	 -0.054319
C	 1.664396	 -0.854993	 0.000772
C	 0.571142	 1.093822	 0.987348
H	 2.462727	 -0.615153	 -0.690869
H	 1.261798	 -1.821849	 -0.240651
H	 2.081615	 -0.891605	 1.003877
H	 1.568249	 1.468559	 1.179661
H	 -0.053448	 1.937950	 0.750216
H	 0.203172	 0.640625	 1.905092

	symmetry c1
}
set optking {
	frozen_dihedral = ("
		2 4 8 10
	")
}

ee = optimize('scf')
oeprop('DIPOLE', 'QUADRUPOLE', 'MULLIKEN_CHARGES')
f=open( 'psi4out.xyz', 'w' )
f.write( "15  " )
f.write( str(ee) + "\n" )
f.write( MOL.save_string_xyz() )
f.close()
--------------------------------------------------------------------------

    Molecular point group: c1
  Charge       = 0
  Multiplicity = 1
  Basis Set: CC-PVTZ
  Basis Set:
  @DF-RHF Final Energy:  -286.13366766906893
    Total Energy =                       -286.1336676690687000
    Molecular point group: c1
  Basis Set: CC-PVTZ
  Basis Set:
  Basis Set: CC-PVTZ
  Basis Set:
  @DF-RHF Final Energy:  -286.13439342173160
    Total Energy =                       -286.1343934217314313
  Basis Set: CC-PVTZ
  Basis Set:
  Basis Set: CC-PVTZ
  Basis Set:
  @DF-RHF Final Energy:  -286.13448114966059
    Total Energy =                       -286.1344811496604734
  Basis Set: CC-PVTZ
  Basis Set:
  Basis Set: CC-PVTZ
  Basis Set:
  @DF-RHF Final Energy:  -286.13488222919960
    Total Energy =                       -286.1348822291995475
  Basis Set: CC-PVTZ
  Basis Set:
  @DF-RHF Final Energy:  -286.13507703399387
    Total Energy =                       -286.1350770339938663
  @DF-RHF Final Energy:  -286.13517028862782
    Total Energy =                       -286.1351702886278758
  @DF-RHF Final Energy:  -286.13527047785954
    Total Energy =                       -286.1352704778594216
  @DF-RHF Final Energy:  -286.13538001578377
    Total Energy =                       -286.1353800157837668
  @DF-RHF Final Energy:  -286.13551696574865
    Total Energy =                       -286.1355169657485362
  Basis Set: CC-PVTZ
  Basis Set:
  @DF-RHF Final Energy:  -286.13557970954673
    Total Energy =                       -286.1355797095467892
  Basis Set: CC-PVTZ
  Basis Set:
  Basis Set: CC-PVTZ
  Basis Set:
  @DF-RHF Final Energy:  -286.13560371293329
    Total Energy =                       -286.1356037129337437
  Basis Set: CC-PVTZ
  Basis Set:
  Basis Set: CC-PVTZ
  Basis Set:
  @DF-RHF Final Energy:  -286.13560728722331
    Total Energy =                       -286.1356072872232517
  Basis Set: CC-PVTZ
  Basis Set:
  Charge       = 0
  Multiplicity = 1
  Basis Set: CC-PVTZ
  Basis Set:

    Orbital Energies (a.u.)
    -----------------------

    Doubly Occupied:

       1A    -20.504405     2A    -15.578179     3A    -11.334800
       4A    -11.263920     5A    -11.246512     6A    -11.226565
       7A     -1.387959     8A     -1.245949     9A     -1.015038
      10A     -0.973155    11A     -0.920296    12A     -0.738869
      13A     -0.683079    14A     -0.661607    15A     -0.653851
      16A     -0.590150    17A     -0.578309    18A     -0.568157
      19A     -0.562145    20A     -0.547981    21A     -0.530348
      22A     -0.506300    23A     -0.414388    24A     -0.371015

  @DF-RHF Final Energy:  -286.13560770756186

   => Energetics <=

    Nuclear Repulsion Energy =            252.9786356080654173
    One-Electron Energy =                -890.0225316507039679
    Two-Electron Energy =                 350.9082883350764632
    DFT Exchange-Correlation Energy =       0.0000000000000000
    Empirical Dispersion Energy =           0.0000000000000000
    PCM Polarization Energy =               0.0000000000000000
    EFP Energy =                            0.0000000000000000
    Total Energy =                       -286.1356077075621442
    Molecular point group: c1
  Basis Set: CC-PVTZ
  Basis Set:

  -Total Gradient:
     Atom            X                  Y                   Z
    ------   -----------------  -----------------  -----------------
       1        0.000014623597    -0.000020426568     0.000010068661
       2        0.000114942857     0.000137888187    -0.000060370593
       3        0.000032107616     0.000031759211    -0.000001608196
       4       -0.000224060835    -0.000226350721     0.000052255180
       5       -0.000009838585    -0.000005008133     0.000010016863
       6        0.000006561822    -0.000008398743     0.000000919545
       7       -0.000004149083    -0.000004734992     0.000015221977
       8        0.000150790734     0.000164211245     0.000181333183
       9        0.000009226891    -0.000010980085    -0.000054099207
      10       -0.000070182292    -0.000074093923    -0.000187503433
      11       -0.000002005621    -0.000001114171     0.000005120667
      12       -0.000010204016    -0.000008779431     0.000002019087
      13        0.000012142237     0.000020604695     0.000012432314
      14       -0.000016002160     0.000007292586     0.000002181327
      15       -0.000003953159    -0.000001869155     0.000012012625

  **** Optimization is complete! (in 13 steps) ****
    Final optimized geometry and variables:
    Molecular point group: c1

    Geometry (in Angstrom), charge = 0, multiplicity = 1:

    O           -0.402888835897    -0.936442625151    -1.374398472432
    C           -0.478129253699    -0.094151935778    -0.526345419289
    C           -1.579355984510     0.944153117371    -0.583904799486
    N            0.389568092163    -0.047056043352     0.518440793041
    H           -1.172956367961     1.941429592030    -0.699838678148
    H           -2.196606490223     0.712370510080    -1.435886465513
    H           -2.185058335780     0.929392433224     0.313303396931
    C            1.505403467631    -0.970239828756     0.525816806869
    C            0.511220358516     1.080657781425     1.411691890638
    H            2.376267747936    -0.549091428449     0.030068294697
    H            1.230039951251    -1.877135309728     0.017816262148
    H            1.771204780414    -1.199135171998     1.549791570759
    H            1.276364096951     1.779727884930     1.081284422866
    H           -0.418650855092     1.614693378340     1.505716625588
    H            0.787267974727     0.728039184775     2.397022749246

  Mulliken Charges: (a.u.)
   Center  Symbol    Alpha    Beta     Spin     Total
       1     O     4.21980  4.21980  0.00000 -0.43960
       2     C     2.84513  2.84513  0.00000  0.30974
       3     C     3.16084  3.16084  0.00000 -0.32167
       4     N     3.56324  3.56324  0.00000 -0.12648
       5     H     0.44903  0.44903  0.00000  0.10194
       6     H     0.42865  0.42865  0.00000  0.14270
       7     H     0.44885  0.44885  0.00000  0.10230
       8     C     3.09655  3.09655  0.00000 -0.19309
       9     C     3.09557  3.09557  0.00000 -0.19114
      10     H     0.45706  0.45706  0.00000  0.08588
      11     H     0.42840  0.42840  0.00000  0.14321
      12     H     0.45724  0.45724  0.00000  0.08551
      13     H     0.45534  0.45534  0.00000  0.08932
      14     H     0.44523  0.44523  0.00000  0.10954
      15     H     0.44908  0.44908  0.00000  0.10185

   Total alpha = 24.00000, Total beta = 24.00000, Total charge = -0.00000
