  ==> Input File <==

--------------------------------------------------------------------------
set {
	reference rhf
	basis 6-31G*
}

set_num_threads( 4 )
memory 2 gb

molecule MOL {
0 1

H	 -1.367966	 0.069849	 -1.630278
C	 -0.778805	 -0.484033	 -0.928144
C	 -0.773667	 -1.867295	 -0.922020
C	 0.000000	 0.183220	 0.000000
H	 -1.371642	 -2.404452	 -1.634659
C	 0.000000	 -2.555744	 0.000000
N	 0.000000	 1.642018	 0.000000
C	 0.778805	 -0.484034	 0.928144
H	 0.000000	 -3.630640	 0.000000
C	 0.773667	 -1.867295	 0.922020
O	 1.057097	 2.196749	 0.000000
O	 -1.057097	 2.196749	 0.000000
H	 1.367966	 0.069849	 1.630278
H	 1.371642	 -2.404452	 1.634659

	symmetry c1
}
set optking {
	frozen_dihedral = ("
		2 4 7 11
	")
}

ee = optimize('scf')
oeprop('DIPOLE', 'QUADRUPOLE', 'MULLIKEN_CHARGES')
f=open( 'psi4out.xyz', 'w' )
f.write( "14  " )
f.write( str(ee) + "\n" )
f.write( MOL.save_string_xyz() )
f.close()
--------------------------------------------------------------------------

    Molecular point group: c1
  Charge       = 0
  Multiplicity = 1
  Basis Set: 6-31G*
  Basis Set:
  @DF-RHF Final Energy:  -434.16847401229472
    Total Energy =                       -434.1684740122947233
    Molecular point group: c1
  Basis Set: 6-31G*
  Basis Set:
  Basis Set: 6-31G*
  Basis Set:
  @DF-RHF Final Energy:  -434.16301818783830
    Total Energy =                       -434.1630181878385883
  Basis Set: 6-31G*
  Basis Set:
  Basis Set: 6-31G*
  Basis Set:
  @DF-RHF Final Energy:  -434.16887659178468
    Total Energy =                       -434.1688765917853061
  Basis Set: 6-31G*
  Basis Set:
  Basis Set: 6-31G*
  Basis Set:
  @DF-RHF Final Energy:  -434.16908078785360
    Total Energy =                       -434.1690807878536589
  Basis Set: 6-31G*
  Basis Set:
  Basis Set: 6-31G*
  Basis Set:
  @DF-RHF Final Energy:  -434.16908341856822
    Total Energy =                       -434.1690834185684480
  Basis Set: 6-31G*
  Basis Set:
  Charge       = 0
  Multiplicity = 1
  Basis Set: 6-31G*
  Basis Set:

    Orbital Energies (a.u.)
    -----------------------

    Doubly Occupied:

       1A    -20.604517     2A    -20.604089     3A    -15.855323
       4A    -11.306594     5A    -11.271579     6A    -11.271271
       7A    -11.265439     8A    -11.262549     9A    -11.262285
      10A     -1.635955    11A     -1.419746    12A     -1.202787
      13A     -1.095203    14A     -1.053856    15A     -0.957742
      16A     -0.869294    17A     -0.826248    18A     -0.781778
      19A     -0.733396    20A     -0.729579    21A     -0.713336
      22A     -0.650420    23A     -0.649448    24A     -0.624315
      25A     -0.557129    26A     -0.542393    27A     -0.531418
      28A     -0.491757    29A     -0.486362    30A     -0.450867
      31A     -0.370418    32A     -0.366416

  @DF-RHF Final Energy:  -434.16908347176417

   => Energetics <=

    Nuclear Repulsion Energy =            416.8544608124644242
    One-Electron Energy =               -1417.1600675458328169
    Two-Electron Energy =                 566.1365232616039975
    DFT Exchange-Correlation Energy =       0.0000000000000000
    Empirical Dispersion Energy =           0.0000000000000000
    PCM Polarization Energy =               0.0000000000000000
    EFP Energy =                            0.0000000000000000
    Total Energy =                       -434.1690834717644520
    Molecular point group: c1
  Basis Set: 6-31G*
  Basis Set:

  -Total Gradient:
     Atom            X                  Y                   Z
    ------   -----------------  -----------------  -----------------
       1        0.000012334405     0.000000418132     0.000003390306
       2        0.004103531428    -0.000191195637    -0.003260150394
       3        0.000027045255     0.000013209651    -0.000029766744
       4       -0.005713822493     0.000199216071     0.002260214878
       5       -0.000002548011    -0.000001561425     0.000006497419
       6        0.000008263006     0.000001935942     0.000008629357
       7        0.001554977256     0.000017640092     0.007139967843
       8       -0.000117398552    -0.000023462332     0.000089465984
       9       -0.000001371829    -0.000003530648    -0.000000950451
      10       -0.000037576000     0.000004208505     0.000016870674
      11        0.000128672441    -0.000080619318    -0.006246379991
      12        0.000041323554     0.000061934271     0.000016667308
      13       -0.000009362804    -0.000001401841     0.000002241714
      14        0.000005932338     0.000003208533    -0.000006697903

  **** Optimization is complete! (in 6 steps) ****
    Final optimized geometry and variables:
    Molecular point group: c1

    Geometry (in Angstrom), charge = 0, multiplicity = 1:

    H           -1.399701775787     0.081476158914    -1.595399423871
    C           -0.796727389038    -0.475914401887    -0.905156923170
    C           -0.769682949585    -1.859921356453    -0.920369803008
    C           -0.030122547008     0.182774319759     0.034466918503
    H           -1.353074575575    -2.395163215861    -1.646412470839
    C            0.005893367532    -2.550298470919    -0.001839752700
    N            0.000479624181     1.639466986744     0.006227732445
    C            0.778161309717    -0.480214584395     0.935943178642
    H            0.016431949212    -3.624974064297    -0.013060438006
    C            0.774095456258    -1.863873336216     0.926721225728
    O            1.071615794833     2.164964483330     0.026833641667
    O           -1.045077006088     2.207896559796    -0.084700165770
    H            1.387617138254     0.074327737404     1.622891219482
    H            1.377890215363    -2.402719274409     1.633156501881

  Mulliken Charges: (a.u.)
   Center  Symbol    Alpha    Beta     Spin     Total
       1     H     0.37133  0.37133  0.00000  0.25734
       2     C     3.08634  3.08634  0.00000 -0.17269
       3     C     3.10614  3.10614  0.00000 -0.21227
       4     C     2.90583  2.90583  0.00000  0.18833
       5     H     0.38847  0.38847  0.00000  0.22307
       6     C     3.08975  3.08975  0.00000 -0.17950
       7     N     3.25623  3.25623  0.00000  0.48754
       8     C     3.08582  3.08582  0.00000 -0.17164
       9     H     0.38954  0.38954  0.00000  0.22092
      10     C     3.10651  3.10651  0.00000 -0.21302
      11     O     4.22670  4.22670  0.00000 -0.45339
      12     O     4.22639  4.22639  0.00000 -0.45279
      13     H     0.37250  0.37250  0.00000  0.25500
      14     H     0.38845  0.38845  0.00000  0.22310

   Total alpha = 32.00000, Total beta = 32.00000, Total charge = -0.00000
