                              Psi4 1.0.54 Driver

  ==> Input File <==

--------------------------------------------------------------------------
set {
	reference rhf
	basis cc-pvtz
}

set_num_threads( 4 )
memory 2 gb

molecule MOL {
0 1

H	 -6.164298	 -2.814429	 0.887879
O	 -6.266327	 -3.235628	 1.720953
C	 -5.219670	 -4.145153	 1.936697
C	 -3.886059	 -3.475788	 2.233541
H	 -5.520027	 -4.745313	 2.784973
H	 -5.119315	 -4.816859	 1.086291
C	 -3.317089	 -2.667566	 1.069539
H	 -4.007559	 -2.833063	 3.100317
H	 -3.177529	 -4.251934	 2.512791
C	 -1.962932	 -2.037984	 1.393148
H	 -4.021232	 -1.889063	 0.795461
H	 -3.211101	 -3.314048	 0.199992
C	 -1.311023	 -1.277304	 0.237018
H	 -2.073880	 -1.370677	 2.244394
H	 -1.284448	 -2.824201	 1.712511
C	 -2.041121	 -0.006551	 -0.194127
H	 -0.299500	 -1.011378	 0.531349
H	 -1.210682	 -1.942031	 -0.618098
C	 -3.489218	 0.042606	 0.286507
H	 -2.022185	 0.066287	 -1.279394
H	 -1.518764	 0.869305	 0.178730
C	 -4.219984	 1.311773	 -0.139038
H	 -4.022855	 -0.824300	 -0.093339
H	 -3.510372	 -0.038577	 1.370031
H	 -4.244251	 1.405725	 -1.219696
H	 -5.244345	 1.313233	 0.215630
H	 -3.732090	 2.196311	 0.257073

	symmetry c1
}
set optking {
	frozen_dihedral = ("
		10 13 16 20
	")
}

ee,wfn = optimize('scf', return_wfn=True)
oeprop( wfn, 'DIPOLE', 'QUADRUPOLE', 'MULLIKEN_CHARGES')
f=open( 'psi4out.xyz', 'w' )
f.write( "27  " )
f.write( str(ee) + "\n" )
f.write( MOL.save_string_xyz() )
f.close()
--------------------------------------------------------------------------

    Molecular point group: c1
  Charge       = 0
  Multiplicity = 1
  Basis Set: CC-PVTZ
  Basis Set:
  @DF-RHF Final Energy:  -388.39177162536464
    Total Energy =                       -388.3917716253654362
    Molecular point group: c1
  Basis Set: CC-PVTZ
  Basis Set:
  Basis Set: CC-PVTZ
  Basis Set:
  @DF-RHF Final Energy:  -388.41010768582197
    Total Energy =                       -388.4101076858220267
  Basis Set: CC-PVTZ
  Basis Set:
  Basis Set: CC-PVTZ
  Basis Set:
  @DF-RHF Final Energy:  -388.41455448961267
    Total Energy =                       -388.4145544896130104
  Basis Set: CC-PVTZ
  Basis Set:
  Basis Set: CC-PVTZ
  Basis Set:
  @DF-RHF Final Energy:  -388.41567615087894
    Total Energy =                       -388.4156761508786531
  Basis Set: CC-PVTZ
  Basis Set:
  @DF-RHF Final Energy:  -388.41604616505549
    Total Energy =                       -388.4160461650557181
  @DF-RHF Final Energy:  -388.41629465595344
    Total Energy =                       -388.4162946559531520
  @DF-RHF Final Energy:  -388.41628958645595
    Total Energy =                       -388.4162895864554912
  Basis Set: CC-PVTZ
  Basis Set:
  @DF-RHF Final Energy:  -388.41635188135086
    Total Energy =                       -388.4163518813510336
  Basis Set: CC-PVTZ
  Basis Set:
  Basis Set: CC-PVTZ
  Basis Set:
  @DF-RHF Final Energy:  -388.41635433996834
    Total Energy =                       -388.4163543399683931
  Basis Set: CC-PVTZ
  Basis Set:
  Basis Set: CC-PVTZ
  Basis Set:
  @DF-RHF Final Energy:  -388.41635544775949
    Total Energy =                       -388.4163554477586331
  Basis Set: CC-PVTZ
  Basis Set:
  Charge       = 0
  Multiplicity = 1
  Basis Set: CC-PVTZ
  Basis Set:

    Orbital Energies (a.u.)
    -----------------------

    Doubly Occupied:

       1A    -20.545433     2A    -11.264958     3A    -11.215818
       4A    -11.214777     5A    -11.214057     6A    -11.213608
       7A    -11.212926     8A    -11.212869     9A    -11.206821
      10A     -1.363300    11A     -1.093025    12A     -1.060005
      13A     -1.010504    14A     -0.950471    15A     -0.887869
      16A     -0.833905    17A     -0.797256    18A     -0.767796
      19A     -0.696540    20A     -0.651439    21A     -0.637485
      22A     -0.617926    23A     -0.601914    24A     -0.585349
      25A     -0.573689    26A     -0.568560    27A     -0.537288
      28A     -0.514194    29A     -0.510242    30A     -0.501601
      31A     -0.487206    32A     -0.482505    33A     -0.469142
      34A     -0.448381    35A     -0.444788    36A     -0.444095
      37A     -0.425095

  @DF-RHF Final Energy:  -388.41635563934886

   => Energetics <=

    Nuclear Repulsion Energy =            470.5983978154268357
    One-Electron Energy =               -1459.5038271714183793
    Two-Electron Energy =                 600.4890737166426788
    DFT Exchange-Correlation Energy =       0.0000000000000000
    Empirical Dispersion Energy =           0.0000000000000000
    PCM Polarization Energy =               0.0000000000000000
    EFP Energy =                            0.0000000000000000
    Total Energy =                       -388.4163556393489216
    Molecular point group: c1
  Basis Set: CC-PVTZ
  Basis Set:

  -Total Gradient:
     Atom            X                  Y                   Z
    ------   -----------------  -----------------  -----------------
       1       -0.000011762345     0.000009442841    -0.000007477986
       2        0.000053749177    -0.000037864497    -0.000001909578
       3       -0.000111268013     0.000045908246     0.000000764617
       4        0.000038545140    -0.000001224348     0.000005221015
       5        0.000026787714    -0.000013461613     0.000012378074
       6        0.000015493418    -0.000007435490    -0.000012292472
       7        0.000042284428    -0.000079592422     0.000017914006
       8       -0.000009024738     0.000007133325     0.000001728081
       9        0.000002410934     0.000000421211     0.000000859652
      10       -0.002217448178    -0.001571985073    -0.002057516421
      11       -0.000031456057     0.000060806849    -0.000018152674
      12       -0.000004712461     0.000003209579     0.000001722104
      13        0.002335454931     0.001950364302     0.003066541677
      14       -0.000012467178    -0.000008538618     0.000007870330
      15       -0.000004758901    -0.000022019494     0.000018615101
      16        0.003973106027     0.001527771934    -0.001113308714
      17       -0.000016744524     0.000011298664     0.000023006126
      18        0.000050559471     0.000016169259    -0.000032030130
      19        0.000016327208     0.000008282084    -0.000017204614
      20       -0.004125788493    -0.001902866944     0.000100737250
      21        0.000005229001     0.000013613694    -0.000001696421
      22       -0.000006189478     0.000027476278     0.000002568230
      23       -0.000021417364    -0.000032330294    -0.000006787009
      24        0.000006780840    -0.000003346023     0.000001470429
      25       -0.000002068714    -0.000003821457     0.000000662597
      26        0.000002652718    -0.000001340687     0.000005367993
      27        0.000005725442     0.000003928693     0.000000948740

  **** Optimization is complete! (in 11 steps) ****
    Final optimized geometry and variables:
    Molecular point group: c1

    Geometry (in Angstrom), charge = 0, multiplicity = 1:

    H           -2.503600584673    -1.804881134456    -0.173237964357
    O           -2.571873048557    -2.154505909420     0.695498466930
    C           -1.389793989581    -2.825943787706     1.043115821043
    C           -0.220474895222    -1.892448618582     1.318703441027
    H           -1.621564665166    -3.389366095207     1.936900049578
    H           -1.120200349100    -3.543723557200     0.270786239493
    C            0.246868861878    -1.097244890217     0.101681926320
    H           -0.503351651431    -1.210460466482     2.114932016524
    H            0.604289742044    -2.492736976754     1.695441905980
    C            1.469526468535    -0.229471566409     0.399803806881
    H           -0.566933028509    -0.480553943638    -0.258817069897
    H            0.496237499106    -1.786097506482    -0.703212923114
    C            2.024879208171     0.562479000208    -0.793546723243
    H            1.253176924458     0.434307186644     1.231038592956
    H            2.259247319486    -0.887817192419     0.750795474166
    C            1.389110841093     1.929585576604    -1.160189095573
    H            3.080740955252     0.734494872961    -0.619151725223
    H            1.980951141681    -0.087390967488    -1.662837123715
    C           -0.011771408470     2.251875536180    -0.634206078719
    H            1.332903595921     1.995126771386    -2.242169437253
    H            2.054691259643     2.722262307552    -0.834080185477
    C           -0.442063909592     3.669226985968    -1.002185092609
    H           -0.732700760140     1.552788437434    -1.043194323448
    H           -0.050687430261     2.141749498679     0.443646274149
    H           -0.443276332454     3.812351129969    -2.077765555779
    H           -1.441258531384     3.881542577081    -0.639534984189
    H            0.229141870076     4.405913597700    -0.573459664873

  Mulliken Charges: (a.u.)
   Center  Symbol    Alpha    Beta     Spin     Total
       1     H     0.39216  0.39216  0.00000  0.21568
       2     O     4.20550  4.20550  0.00000 -0.41099
       3     C     2.97971  2.97971  0.00000  0.04058
       4     C     3.09060  3.09060  0.00000 -0.18120
       5     H     0.44872  0.44872  0.00000  0.10257
       6     H     0.46919  0.46919  0.00000  0.06162
       7     C     3.10200  3.10200  0.00000 -0.20399
       8     H     0.45098  0.45098  0.00000  0.09805
       9     H     0.45467  0.45467  0.00000  0.09066
      10     C     3.10851  3.10851  0.00000 -0.21701
      11     H     0.45258  0.45258  0.00000  0.09484
      12     H     0.45291  0.45291  0.00000  0.09418
      13     C     3.10495  3.10495  0.00000 -0.20990
      14     H     0.44837  0.44837  0.00000  0.10327
      15     H     0.44382  0.44382  0.00000  0.11237
      16     C     3.08656  3.08656  0.00000 -0.17312
      17     H     0.44380  0.44380  0.00000  0.11239
      18     H     0.45451  0.45451  0.00000  0.09097
      19     C     3.09492  3.09492  0.00000 -0.18984
      20     H     0.45142  0.45142  0.00000  0.09715
      21     H     0.45230  0.45230  0.00000  0.09541
      22     C     3.15118  3.15118  0.00000 -0.30237
      23     H     0.45471  0.45471  0.00000  0.09058
      24     H     0.44905  0.44905  0.00000  0.10189
      25     H     0.45503  0.45503  0.00000  0.08995
      26     H     0.44748  0.44748  0.00000  0.10505
      27     H     0.45439  0.45439  0.00000  0.09122

   Total alpha = 37.00000, Total beta = 37.00000, Total charge = -0.00000

*** Psi4 exiting successfully. Buy a developer a beer!
