                              Psi4 1.0.54 Driver

  ==> Input File <==

--------------------------------------------------------------------------
set {
	reference rhf
	basis cc-pvtz
}

set_num_threads( 4 )
memory 2 gb

molecule MOL {
0 1

H	 -2.123894	 -0.667238	 -0.609809
O	 -2.041679	 -0.058866	 0.103463
C	 -0.959304	 0.780994	 -0.094939
C	 0.354905	 0.037902	 -0.006215
H	 -0.985899	 1.279578	 -1.057596
H	 -0.969809	 1.529522	 0.682889
F	 0.556549	 -0.697299	 -1.085386
F	 1.355637	 0.888271	 0.088682
F	 0.409226	 -0.764095	 1.030039

	symmetry c1
}
set optking {
	frozen_dihedral = ("
		7 4 3 5
	")
}

ee,wfn = optimize('scf', return_wfn=True)
oeprop( wfn, 'DIPOLE', 'QUADRUPOLE', 'MULLIKEN_CHARGES')
f=open( 'psi4out.xyz', 'w' )
f.write( "9  " )
f.write( str(ee) + "\n" )
f.write( MOL.save_string_xyz() )
f.close()
--------------------------------------------------------------------------

    Molecular point group: c1
  Charge       = 0
  Multiplicity = 1
  Basis Set: CC-PVTZ
  Basis Set:
  @DF-RHF Final Energy:  -450.84605492534376
    Total Energy =                       -450.8460549253436511
    Molecular point group: c1
  Basis Set: CC-PVTZ
  Basis Set:
  Basis Set: CC-PVTZ
  Basis Set:
  @DF-RHF Final Energy:  -450.84617854817179
    Total Energy =                       -450.8461785481720199
  Basis Set: CC-PVTZ
  Basis Set:
  Basis Set: CC-PVTZ
  Basis Set:
  @DF-RHF Final Energy:  -450.84621660070843
    Total Energy =                       -450.8462166007087149
  Basis Set: CC-PVTZ
  Basis Set:
  Basis Set: CC-PVTZ
  Basis Set:
  @DF-RHF Final Energy:  -450.84621942690404
    Total Energy =                       -450.8462194269040424
  Basis Set: CC-PVTZ
  Basis Set:
  Charge       = 0
  Multiplicity = 1
  Basis Set: CC-PVTZ
  Basis Set:

    Orbital Energies (a.u.)
    -----------------------

    Doubly Occupied:

       1A    -26.338324     2A    -26.337373     3A    -26.336451
       4A    -20.583371     5A    -11.493087     6A    -11.310260
       7A     -1.747062     8A     -1.643506     9A     -1.642500
      10A     -1.406387    11A     -1.049774    12A     -0.929365
      13A     -0.837643    14A     -0.834908    15A     -0.809335
      16A     -0.733882    17A     -0.717921    18A     -0.703340
      19A     -0.670257    20A     -0.665321    21A     -0.648536
      22A     -0.632806    23A     -0.617235    24A     -0.534695
      25A     -0.484441

  @DF-RHF Final Energy:  -450.84621998970016

   => Energetics <=

    Nuclear Repulsion Energy =            277.4635469646925117
    One-Electron Energy =               -1177.2039727085757477
    Two-Electron Energy =                 448.8942057541831900
    DFT Exchange-Correlation Energy =       0.0000000000000000
    Empirical Dispersion Energy =           0.0000000000000000
    PCM Polarization Energy =               0.0000000000000000
    EFP Energy =                            0.0000000000000000
    Total Energy =                       -450.8462199896999891
    Molecular point group: c1
  Basis Set: CC-PVTZ
  Basis Set:

  -Total Gradient:
     Atom            X                  Y                   Z
    ------   -----------------  -----------------  -----------------
       1       -0.000002094879    -0.000015793350     0.000003794751
       2       -0.000054888692    -0.000056718583     0.000002016759
       3        0.002505718005     0.004678004762     0.001442890957
       4       -0.002296330240    -0.003962698412     0.001579317420
       5       -0.001628225681    -0.003127917774    -0.001557955770
       6        0.000010307965    -0.000015663293    -0.000001678600
       7        0.001500792331     0.002491550581    -0.001451941569
       8       -0.000038453125    -0.000011994188    -0.000006238080
       9        0.000003174315     0.000021230256    -0.000010205868

  **** Optimization is complete! (in 5 steps) ****
    Final optimized geometry and variables:
    Molecular point group: c1

    Geometry (in Angstrom), charge = 0, multiplicity = 1:

    H           -2.143955001240    -0.636407540882    -0.675780348866
    O           -2.048098237087    -0.077248026812     0.074911433331
    C           -0.965585950288     0.774743991993    -0.083105578348
    C            0.352936330013     0.034820951000     0.002527154607
    H           -0.988315323534     1.275345236690    -1.044198115652
    H           -0.995835256646     1.505538030607     0.709777809851
    F            0.558427117067    -0.695257490257    -1.080181395649
    F            1.348107550041     0.895869576828     0.082036902605
    F            0.423732750421    -0.760683368080     1.039560848021

  Mulliken Charges: (a.u.)
   Center  Symbol    Alpha    Beta     Spin     Total
       1     H     0.38775  0.38775  0.00000  0.22450
       2     O     4.19184  4.19184  0.00000 -0.38368
       3     C     2.99189  2.99189  0.00000  0.01622
       4     C     2.68552  2.68552  0.00000  0.62896
       5     H     0.46083  0.46083  0.00000  0.07835
       6     H     0.44637  0.44637  0.00000  0.10725
       7     F     4.61727  4.61727  0.00000 -0.23453
       8     F     4.61331  4.61331  0.00000 -0.22662
       9     F     4.60522  4.60522  0.00000 -0.21044

   Total alpha = 25.00000, Total beta = 25.00000, Total charge = -0.00000

*** Psi4 exiting successfully. Buy a developer a beer!
