  ==> Input File <==

--------------------------------------------------------------------------
set {
	reference rhf
	basis 6-31G*
}

set_num_threads( 1 )
memory 2 gb

molecule MOL {
0 1

H	 2.591676	 2.013956	 0.335017
O	 3.341076	 1.666752	 -0.126416
C	 3.569581	 0.339145	 0.272707
C	 2.539767	 -0.640285	 -0.279495
H	 4.553106	 0.084646	 -0.100901
H	 3.608576	 0.269204	 1.359154
C	 1.115811	 -0.397273	 0.226630
H	 2.556196	 -0.582511	 -1.364741
H	 2.852081	 -1.648031	 -0.010655
C	 0.228240	 -1.640037	 0.114501
H	 0.670959	 0.418315	 -0.336653
H	 1.151428	 -0.076601	 1.267899
C	 -1.184551	 -1.476077	 0.686758
H	 0.160949	 -1.938829	 -0.930029
H	 0.716615	 -2.462079	 0.633575
C	 -2.074648	 -0.484974	 -0.068174
H	 -1.669748	 -2.449930	 0.683352
H	 -1.116609	 -1.176586	 1.731519
C	 -3.504358	 -0.434459	 0.474792
H	 -2.101192	 -0.757171	 -1.122363
H	 -1.646134	 0.513296	 -0.021966
C	 -4.393232	 0.558784	 -0.272896
H	 -3.946076	 -1.427022	 0.418282
H	 -3.479249	 -0.172125	 1.530460
H	 -4.465088	 0.304482	 -1.326647
H	 -5.399789	 0.569964	 0.133740
H	 -3.997851	 1.568384	 -0.204011

	symmetry c1
}
set optking {
	frozen_dihedral = ("
		14 10 7 4,
		14 10 13 16,
		8 4 3 2,
		10 13 16 20,
		20 16 19 22,
		4 3 2 1
	")
}

ee = energy('scf')
oeprop('DIPOLE', 'QUADRUPOLE', 'MULLIKEN_CHARGES')
f=open( 'psi4out.xyz', 'w' )
f.write( "27  " )
f.write( str(ee) + "\n" )
f.write( MOL.save_string_xyz() )
f.close()
--------------------------------------------------------------------------

    Molecular point group: c1

    Geometry (in Angstrom), charge = 0, multiplicity = 1:

       Center              X                  Y                   Z               Mass
    ------------   -----------------  -----------------  -----------------  -----------------
           H          2.591912046590     2.247908344593     0.223350333556     1.007825032070
           O          3.341312046590     1.900704344593    -0.238082666444    15.994914619560
           C          3.569817046590     0.573097344593     0.161040333556    12.000000000000
           C          2.540003046590    -0.406332655407    -0.391161666444    12.000000000000
           H          4.553342046590     0.318598344593    -0.212567666444     1.007825032070
           H          3.608812046590     0.503156344593     1.247487333556     1.007825032070
           C          1.116047046590    -0.163320655407     0.114963333556    12.000000000000
           H          2.556432046590    -0.348558655407    -1.476407666444     1.007825032070
           H          2.852317046590    -1.414078655407    -0.122321666444     1.007825032070
           C          0.228476046590    -1.406084655407     0.002834333556    12.000000000000
           H          0.671195046590     0.652267344593    -0.448319666444     1.007825032070
           H          1.151664046590     0.157351344593     1.156232333556     1.007825032070
           C         -1.184314953410    -1.242124655407     0.575091333556    12.000000000000
           H          0.161185046590    -1.704876655407    -1.041695666444     1.007825032070
           H          0.716851046590    -2.228126655407     0.521908333556     1.007825032070
           C         -2.074411953410    -0.251021655407    -0.179840666444    12.000000000000
           H         -1.669511953410    -2.215977655407     0.571685333556     1.007825032070
           H         -1.116372953410    -0.942633655407     1.619852333556     1.007825032070
           C         -3.504121953410    -0.200506655407     0.363125333556    12.000000000000
           H         -2.100955953410    -0.523218655407    -1.234029666444     1.007825032070
           H         -1.645897953410     0.747248344593    -0.133632666444     1.007825032070
           C         -4.392995953410     0.792736344593    -0.384562666444    12.000000000000
           H         -3.945839953410    -1.193069655407     0.306615333556     1.007825032070
           H         -3.479012953410     0.061827344593     1.418793333556     1.007825032070
           H         -4.464851953410     0.538434344593    -1.438313666444     1.007825032070
           H         -5.399552953410     0.803916344593     0.022073333556     1.007825032070
           H         -3.997614953410     1.802336344593    -0.315677666444     1.007825032070

  Charge       = 0
  Multiplicity = 1
  Basis Set: 6-31G*
  Basis Set:

    Orbital Energies (a.u.)
    -----------------------

    Doubly Occupied:

       1A    -20.552062     2A    -11.266926     3A    -11.219415
       4A    -11.217726     5A    -11.216182     6A    -11.215868
       7A    -11.214624     8A    -11.214387     9A    -11.209420
      10A     -1.358759    11A     -1.095438    12A     -1.061639
      13A     -1.011485    14A     -0.948304    15A     -0.888174
      16A     -0.820284    17A     -0.801542    18A     -0.778444
      19A     -0.695480    20A     -0.649768    21A     -0.633941
      22A     -0.617556    23A     -0.602322    24A     -0.584006
      25A     -0.578375    26A     -0.552581    27A     -0.541952
      28A     -0.529216    29A     -0.506282    30A     -0.495620
      31A     -0.484801    32A     -0.475538    33A     -0.469016
      34A     -0.461295    35A     -0.449635    36A     -0.442093
      37A     -0.422826

  @DF-RHF Final Energy:  -388.28037309547841

   => Energetics <=

    Nuclear Repulsion Energy =            458.9782151594485526
    One-Electron Energy =               -1435.9512132264028423
    Two-Electron Energy =                 588.6926249714729238
    DFT Exchange-Correlation Energy =       0.0000000000000000
    Empirical Dispersion Energy =           0.0000000000000000
    PCM Polarization Energy =               0.0000000000000000
    EFP Energy =                            0.0000000000000000
    Total Energy =                       -388.2803730954813091

  Mulliken Charges: (a.u.)
   Center  Symbol    Alpha    Beta     Spin     Total
       1     H     0.28008  0.28008  0.00000  0.43983
       2     O     4.37113  4.37113  0.00000 -0.74226
       3     C     2.99815  2.99815  0.00000  0.00370
       4     C     3.16088  3.16088  0.00000 -0.32175
       5     H     0.41498  0.41498  0.00000  0.17004
       6     H     0.43191  0.43191  0.00000  0.13618
       7     C     3.16532  3.16532  0.00000 -0.33063
       8     H     0.41403  0.41403  0.00000  0.17195
       9     H     0.42392  0.42392  0.00000  0.15215
      10     C     3.15298  3.15298  0.00000 -0.30596
      11     H     0.41691  0.41691  0.00000  0.16618
      12     H     0.42800  0.42800  0.00000  0.14401
      13     C     3.15361  3.15361  0.00000 -0.30722
      14     H     0.42176  0.42176  0.00000  0.15649
      15     H     0.42156  0.42156  0.00000  0.15688
      16     C     3.15254  3.15254  0.00000 -0.30508
      17     H     0.42128  0.42128  0.00000  0.15744
      18     H     0.42438  0.42438  0.00000  0.15124
      19     C     3.15122  3.15122  0.00000 -0.30244
      20     H     0.42377  0.42377  0.00000  0.15246
      21     H     0.42334  0.42334  0.00000  0.15333
      22     C     3.23919  3.23919  0.00000 -0.47837
      23     H     0.42290  0.42290  0.00000  0.15420
      24     H     0.42335  0.42335  0.00000  0.15330
      25     H     0.42150  0.42150  0.00000  0.15701
      26     H     0.41923  0.41923  0.00000  0.16155
      27     H     0.42211  0.42211  0.00000  0.15579

   Total alpha = 37.00000, Total beta = 37.00000, Total charge =  0.00000
