                              Psi4 1.0.54 Driver

  ==> Input File <==

--------------------------------------------------------------------------
set {
	reference rhf
	basis cc-pvtz
}

set_num_threads( 4 )
memory 2 gb

molecule MOL {
0 1

H	 -3.941973	 0.934228	 -0.390224
C	 -3.240162	 0.342701	 0.161016
C	 -2.105997	 -0.000418	 -0.398703
H	 -3.485368	 0.047206	 1.162193
O	 -1.189946	 -0.765863	 0.237511
H	 -1.846458	 0.297311	 -1.398265
C	 0.026572	 -0.995256	 -0.379403
C	 1.057223	 0.049888	 -0.004615
H	 -0.054361	 -1.010670	 -1.459674
H	 0.397526	 -1.952058	 -0.044198
F	 1.373405	 0.756677	 -1.071179
F	 0.602491	 0.883372	 0.906445
F	 2.157618	 -0.488244	 0.462293

	symmetry c1
}
set optking {
	frozen_dihedral = ("
		11 8 7 9
	")
}

ee,wfn = optimize('scf', return_wfn=True)
oeprop( wfn, 'DIPOLE', 'QUADRUPOLE', 'MULLIKEN_CHARGES')
f=open( 'psi4out.xyz', 'w' )
f.write( "13  " )
f.write( str(ee) + "\n" )
f.write( MOL.save_string_xyz() )
f.close()
--------------------------------------------------------------------------

    Molecular point group: c1
  Charge       = 0
  Multiplicity = 1
  Basis Set: CC-PVTZ
  Basis Set:
  @DF-RHF Final Energy:  -527.73461808849265
    Total Energy =                       -527.7346180884925388
    Molecular point group: c1
  Basis Set: CC-PVTZ
  Basis Set:
  Basis Set: CC-PVTZ
  Basis Set:
  @DF-RHF Final Energy:  -527.73549281370560
    Total Energy =                       -527.7354928137060597
  Basis Set: CC-PVTZ
  Basis Set:
  Basis Set: CC-PVTZ
  Basis Set:
  @DF-RHF Final Energy:  -527.73577425846861
    Total Energy =                       -527.7357742584686093
  Basis Set: CC-PVTZ
  Basis Set:
  Basis Set: CC-PVTZ
  Basis Set:
  @DF-RHF Final Energy:  -527.73580805423273
    Total Energy =                       -527.7358080542325069
  Basis Set: CC-PVTZ
  Basis Set:
  Basis Set: CC-PVTZ
  Basis Set:
  @DF-RHF Final Energy:  -527.73581875158777
    Total Energy =                       -527.7358187515876580
  Basis Set: CC-PVTZ
  Basis Set:
  Basis Set: CC-PVTZ
  Basis Set:
  @DF-RHF Final Energy:  -527.73582357445594
    Total Energy =                       -527.7358235744563899
  Basis Set: CC-PVTZ
  Basis Set:
  Basis Set: CC-PVTZ
  Basis Set:
  @DF-RHF Final Energy:  -527.73582500190901
    Total Energy =                       -527.7358250019093475
  Basis Set: CC-PVTZ
  Basis Set:
  Charge       = 0
  Multiplicity = 1
  Basis Set: CC-PVTZ
  Basis Set:

    Orbital Energies (a.u.)
    -----------------------

    Doubly Occupied:

       1A    -26.340223     2A    -26.339171     3A    -26.338467
       4A    -20.602768     5A    -11.499431     6A    -11.319784
       7A    -11.298231     8A    -11.214968     9A     -1.750424
      10A     -1.647053    11A     -1.643527    12A     -1.443709
      13A     -1.083762    14A     -1.019303    15A     -0.932320
      16A     -0.843163    17A     -0.837854    18A     -0.827562
      19A     -0.797608    20A     -0.728999    21A     -0.722616
      22A     -0.701273    23A     -0.680212    24A     -0.668794
      25A     -0.661688    26A     -0.649704    27A     -0.635431
      28A     -0.587229    29A     -0.565600    30A     -0.527884
      31A     -0.516479    32A     -0.357522

  @DF-RHF Final Energy:  -527.73582532233991

   => Energetics <=

    Nuclear Repulsion Energy =            413.4211982557655460
    One-Electron Energy =               -1550.7485273764946214
    Two-Electron Energy =                 609.5915037983891125
    DFT Exchange-Correlation Energy =       0.0000000000000000
    Empirical Dispersion Energy =           0.0000000000000000
    PCM Polarization Energy =               0.0000000000000000
    EFP Energy =                            0.0000000000000000
    Total Energy =                       -527.7358253223399061
    Molecular point group: c1
  Basis Set: CC-PVTZ
  Basis Set:

  -Total Gradient:
     Atom            X                  Y                   Z
    ------   -----------------  -----------------  -----------------
       1        0.000012076126    -0.000002850297     0.000006043762
       2       -0.000003475116    -0.000003650324     0.000001118416
       3        0.000016208188    -0.000017498621    -0.000018627447
       4        0.000000950970     0.000001535018    -0.000004727868
       5       -0.000030660683     0.000009391038     0.000038731445
       6        0.000001695201     0.000004600087     0.000008021494
       7        0.002660527126    -0.002277694821    -0.000232072511
       8       -0.002400149414     0.001977102411     0.000474240522
       9       -0.001764325341     0.001568144686     0.000093095069
      10       -0.000014323869    -0.000009672238    -0.000006285167
      11        0.001528046839    -0.001230255574    -0.000440501716
      12        0.000019297405    -0.000024603289     0.000050223488
      13       -0.000025867416     0.000005451927     0.000030740517

  **** Optimization is complete! (in 8 steps) ****
    Final optimized geometry and variables:
    Molecular point group: c1

    Geometry (in Angstrom), charge = 0, multiplicity = 1:

    H           -3.874196412692     0.984580067751    -0.297012545191
    C           -3.206561162184     0.324779740844     0.218027682506
    C           -2.070825500510    -0.011362619211    -0.342633403758
    H           -3.487153106572    -0.045081010773     1.184631916984
    O           -1.197084574867    -0.860760992636     0.243577582693
    H           -1.778013856572     0.360238812719    -1.308808150236
    C            0.036093236248    -1.040148651531    -0.357268536173
    C            1.044103828838     0.071975715236    -0.022184768924
    H           -0.057991950457    -1.084199455111    -1.434880611954
    H            0.437413966056    -1.971069230119     0.006966542641
    F            1.340031289712     0.786773477240    -1.092362326407
    F            0.606587892224     0.892345165200     0.896067665268
    F            2.176992049876    -0.447744827197     0.407695470315

  Mulliken Charges: (a.u.)
   Center  Symbol    Alpha    Beta     Spin     Total
       1     H     0.42530  0.42530  0.00000  0.14939
       2     C     3.19483  3.19483  0.00000 -0.38965
       3     C     2.96091  2.96091  0.00000  0.07818
       4     H     0.42475  0.42475  0.00000  0.15049
       5     O     4.13924  4.13924  0.00000 -0.27847
       6     H     0.43400  0.43400  0.00000  0.13200
       7     C     3.03241  3.03241  0.00000 -0.06481
       8     C     2.67335  2.67335  0.00000  0.65331
       9     H     0.45506  0.45506  0.00000  0.08987
      10     H     0.43363  0.43363  0.00000  0.13274
      11     F     4.61368  4.61368  0.00000 -0.22736
      12     F     4.60169  4.60169  0.00000 -0.20338
      13     F     4.61115  4.61115  0.00000 -0.22230

   Total alpha = 32.00000, Total beta = 32.00000, Total charge =  0.00000

*** Psi4 exiting successfully. Buy a developer a beer!
