  ==> Input File <==

--------------------------------------------------------------------------
set {
	reference rhf
	basis 6-31G*
}

set_num_threads( 1 )
memory 2 gb

molecule MOL {
0 1

O	 0.890900	 4.449719	 0.194007
C	 -0.195495	 4.931614	 0.295402
C	 -1.458496	 4.089151	 0.290832
C	 -0.384831	 6.428094	 0.436316
C	 -1.206306	 2.591363	 0.144998
H	 -2.003037	 4.300123	 1.210264
H	 -2.098151	 4.451897	 -0.512697
C	 -2.500612	 1.776173	 0.144844
H	 -0.560765	 2.259102	 0.951849
H	 -0.656195	 2.410957	 -0.773141
C	 -2.259874	 0.272531	 0.000494
H	 -3.048927	 1.964482	 1.066765
H	 -3.143966	 2.115616	 -0.665675
C	 -3.549786	 -0.549746	 -0.000374
H	 -1.617427	 -0.068026	 0.810618
H	 -1.712569	 0.083018	 -0.921210
C	 -4.809590	 0.315458	 -0.000369
H	 -3.560515	 -1.202009	 -0.871156
H	 -3.561123	 -1.202955	 0.869711
H	 -4.844746	 0.956611	 -0.876632
H	 -5.706986	 -0.295590	 -0.001609
H	 -4.845960	 0.954827	 0.877144
H	 -0.902515	 6.659048	 1.362750
H	 0.577895	 6.919959	 0.428489
H	 -0.994075	 6.810958	 -0.377239

	symmetry c1
}
set optking {
	frozen_dihedral = ("
		9 5 8 12,
		15 11 8 12,
		1 2 3 6,
		9 5 3 6
	")
}

ee = energy('scf')
oeprop('DIPOLE', 'QUADRUPOLE', 'MULLIKEN_CHARGES')
f=open( 'psi4out.xyz', 'w' )
f.write( "25  " )
f.write( str(ee) + "\n" )
f.write( MOL.save_string_xyz() )
f.close()
--------------------------------------------------------------------------

    Molecular point group: c1

    Geometry (in Angstrom), charge = 0, multiplicity = 1:

       Center              X                  Y                   Z               Mass
    ------------   -----------------  -----------------  -----------------  -----------------
           O          2.616715944179     1.742595307455     0.026607469344    15.994914619560
           C          1.530320944179     2.224490307455     0.128002469344    12.000000000000
           C          0.267319944179     1.382027307455     0.123432469344    12.000000000000
           C          1.340984944179     3.720970307455     0.268916469344    12.000000000000
           C          0.519509944179    -0.115760692545    -0.022401530656    12.000000000000
           H         -0.277221055821     1.592999307455     1.042864469344     1.007825032070
           H         -0.372335055821     1.744773307455    -0.680096530656     1.007825032070
           C         -0.774796055821    -0.930950692545    -0.022555530656    12.000000000000
           H          1.165050944179    -0.448021692545     0.784449469344     1.007825032070
           H          1.069620944179    -0.296166692545    -0.940540530656     1.007825032070
           C         -0.534058055821    -2.434592692545    -0.166905530656    12.000000000000
           H         -1.323111055821    -0.742641692545     0.899365469344     1.007825032070
           H         -1.418150055821    -0.591507692545    -0.833074530656     1.007825032070
           C         -1.823970055821    -3.256869692545    -0.167773530656    12.000000000000
           H          0.108388944179    -2.775149692545     0.643218469344     1.007825032070
           H          0.013246944179    -2.624105692545    -1.088609530656     1.007825032070
           C         -3.083774055821    -2.391665692545    -0.167768530656    12.000000000000
           H         -1.834699055821    -3.909132692545    -1.038555530656     1.007825032070
           H         -1.835307055821    -3.910078692545     0.702311469344     1.007825032070
           H         -3.118930055821    -1.750512692545    -1.044031530656     1.007825032070
           H         -3.981170055821    -3.002713692545    -0.169008530656     1.007825032070
           H         -3.120144055821    -1.752296692545     0.709744469344     1.007825032070
           H          0.823300944179     3.951924307455     1.195350469344     1.007825032070
           H          2.303710944179     4.212835307455     0.261089469344     1.007825032070
           H          0.731740944179     4.103834307455    -0.544638530656     1.007825032070

  Charge       = 0
  Multiplicity = 1
  Basis Set: 6-31G*
  Basis Set:

    Orbital Energies (a.u.)
    -----------------------

    Doubly Occupied:

       1A    -20.550085     2A    -11.325919     3A    -11.231329
       4A    -11.228102     5A    -11.215613     6A    -11.214888
       7A    -11.213950     8A    -11.211982     9A    -11.207868
      10A     -1.395386    11A     -1.095718    12A     -1.056848
      13A     -1.011873    14A     -0.962995    15A     -0.899653
      16A     -0.829960    17A     -0.767481    18A     -0.728767
      19A     -0.662500    20A     -0.652042    21A     -0.631995
      22A     -0.624335    23A     -0.601484    24A     -0.593087
      25A     -0.556129    26A     -0.555401    27A     -0.552012
      28A     -0.526481    29A     -0.511107    30A     -0.491751
      31A     -0.490060    32A     -0.478687    33A     -0.459541
      34A     -0.452058    35A     -0.442515    36A     -0.399141

  @DF-RHF Final Energy:  -387.12229862856583

   => Energetics <=

    Nuclear Repulsion Energy =            446.8063638326728437
    One-Electron Energy =               -1410.1998027770077897
    Two-Electron Energy =                 576.2711403157694576
    DFT Exchange-Correlation Energy =       0.0000000000000000
    Empirical Dispersion Energy =           0.0000000000000000
    PCM Polarization Energy =               0.0000000000000000
    EFP Energy =                            0.0000000000000000
    Total Energy =                       -387.1222986285655452

  Mulliken Charges: (a.u.)
   Center  Symbol    Alpha    Beta     Spin     Total
       1     O     4.26123  4.26123  0.00000 -0.52247
       2     C     2.73568  2.73568  0.00000  0.52864
       3     C     3.21070  3.21070  0.00000 -0.42140
       4     C     3.28659  3.28659  0.00000 -0.57318
       5     C     3.14530  3.14530  0.00000 -0.29060
       6     H     0.41033  0.41033  0.00000  0.17933
       7     H     0.41034  0.41034  0.00000  0.17933
       8     C     3.16039  3.16039  0.00000 -0.32079
       9     H     0.41273  0.41273  0.00000  0.17455
      10     H     0.41274  0.41274  0.00000  0.17451
      11     C     3.15500  3.15500  0.00000 -0.31001
      12     H     0.42338  0.42338  0.00000  0.15325
      13     H     0.42249  0.42249  0.00000  0.15502
      14     C     3.15485  3.15485  0.00000 -0.30970
      15     H     0.41944  0.41944  0.00000  0.16112
      16     H     0.41988  0.41988  0.00000  0.16024
      17     C     3.24541  3.24541  0.00000 -0.49082
      18     H     0.41972  0.41972  0.00000  0.16055
      19     H     0.42022  0.42022  0.00000  0.15956
      20     H     0.42102  0.42102  0.00000  0.15796
      21     H     0.41787  0.41787  0.00000  0.16427
      22     H     0.42060  0.42060  0.00000  0.15880
      23     H     0.40880  0.40880  0.00000  0.18239
      24     H     0.39652  0.39652  0.00000  0.20695
      25     H     0.40876  0.40876  0.00000  0.18248

   Total alpha = 36.00000, Total beta = 36.00000, Total charge = -0.00000
