                              Psi4 1.0.54 Driver

  ==> Input File <==

--------------------------------------------------------------------------
set {
	reference rhf
	basis cc-pvtz
}

set_num_threads( 4 )
memory 2 gb

molecule MOL {
0 1

O	 2.725584	 1.573980	 0.424729
C	 2.399081	 0.849039	 1.306753
C	 1.115679	 0.044867	 1.261822
C	 3.251553	 0.679814	 2.544039
C	 0.288398	 0.247429	 0.000314
H	 1.381348	 -1.002724	 1.384463
H	 0.537769	 0.300865	 2.146972
C	 -0.993089	 -0.581367	 -0.000217
H	 0.891133	 -0.005483	 -0.864476
H	 0.046930	 1.299329	 -0.101332
C	 -2.258482	 0.271340	 0.000669
H	 -1.002280	 -1.233920	 -0.870484
H	 -1.002061	 -1.235367	 0.868958
C	 -3.544441	 -0.550271	 -0.000253
H	 -2.250545	 0.925250	 -0.867923
H	 -2.250598	 0.923423	 0.870642
C	 -4.804551	 0.308747	 0.000556
H	 -3.553737	 -1.201524	 -0.870151
H	 -3.553831	 -1.203282	 0.868313
H	 -4.842050	 0.949078	 -0.874436
H	 -5.698404	 -0.304480	 -0.000254
H	 -4.842277	 0.947103	 0.876982
H	 3.538955	 -0.359299	 2.661057
H	 4.134927	 1.294713	 2.466959
H	 2.688030	 0.959501	 3.427361

	symmetry c1
}
set optking {
	frozen_dihedral = ("
		9 5 8 12
	")
}

ee,wfn = optimize('scf', return_wfn=True)
oeprop( wfn, 'DIPOLE', 'QUADRUPOLE', 'MULLIKEN_CHARGES')
f=open( 'psi4out.xyz', 'w' )
f.write( "25  " )
f.write( str(ee) + "\n" )
f.write( MOL.save_string_xyz() )
f.close()
--------------------------------------------------------------------------

    Molecular point group: c1
  Charge       = 0
  Multiplicity = 1
  Basis Set: CC-PVTZ
  Basis Set:
  @DF-RHF Final Energy:  -387.26881199857809
    Total Energy =                       -387.2688119985776893
    Molecular point group: c1
  Basis Set: CC-PVTZ
  Basis Set:
  Basis Set: CC-PVTZ
  Basis Set:
  @DF-RHF Final Energy:  -387.26906257473331
    Total Energy =                       -387.2690625747330841
  Basis Set: CC-PVTZ
  Basis Set:
  Basis Set: CC-PVTZ
  Basis Set:
  @DF-RHF Final Energy:  -387.26910594747591
    Total Energy =                       -387.2691059474759641
  Basis Set: CC-PVTZ
  Basis Set:
  Basis Set: CC-PVTZ
  Basis Set:
  @DF-RHF Final Energy:  -387.26896062035888
    Total Energy =                       -387.2689606203593939
  Basis Set: CC-PVTZ
  Basis Set:
  Basis Set: CC-PVTZ
  Basis Set:
  @DF-RHF Final Energy:  -387.26912824804697
    Total Energy =                       -387.2691282480468544
  Basis Set: CC-PVTZ
  Basis Set:
  Charge       = 0
  Multiplicity = 1
  Basis Set: CC-PVTZ
  Basis Set:

    Orbital Energies (a.u.)
    -----------------------

    Doubly Occupied:

       1A    -20.538974     2A    -11.320343     3A    -11.230715
       4A    -11.226605     5A    -11.214907     6A    -11.214349
       7A    -11.214080     8A    -11.212969     9A    -11.207321
      10A     -1.398886    11A     -1.093860    12A     -1.057546
      13A     -1.014778    14A     -0.970037    15A     -0.892432
      16A     -0.816349    17A     -0.791668    18A     -0.733025
      19A     -0.660415    20A     -0.648098    21A     -0.639718
      22A     -0.624237    23A     -0.598594    24A     -0.578680
      25A     -0.569220    26A     -0.566118    27A     -0.541461
      28A     -0.523415    29A     -0.518717    30A     -0.495042
      31A     -0.485695    32A     -0.478315    33A     -0.464660
      34A     -0.460698    35A     -0.447232    36A     -0.401471

  @DF-RHF Final Energy:  -387.26912845831129

   => Energetics <=

    Nuclear Repulsion Energy =            441.1843232077067682
    One-Electron Energy =               -1399.2056477587200334
    Two-Electron Energy =                 570.7521960927022064
    DFT Exchange-Correlation Energy =       0.0000000000000000
    Empirical Dispersion Energy =           0.0000000000000000
    PCM Polarization Energy =               0.0000000000000000
    EFP Energy =                            0.0000000000000000
    Total Energy =                       -387.2691284583111155
    Molecular point group: c1
  Basis Set: CC-PVTZ
  Basis Set:

  -Total Gradient:
     Atom            X                  Y                   Z
    ------   -----------------  -----------------  -----------------
       1        0.000013636682     0.000021073598    -0.000017797217
       2       -0.000017018542    -0.000021666439     0.000006952798
       3        0.000002865356     0.000019353961     0.000019565032
       4        0.000011940088    -0.000011737284    -0.000007217174
       5        0.000533804377    -0.000896010889     0.000677434041
       6       -0.000000738795    -0.000006939032    -0.000003984665
       7       -0.000000430202    -0.000009604935    -0.000010054600
       8       -0.000530504802     0.000894817577    -0.000664922409
       9       -0.000383695552     0.000607960378    -0.000441517848
      10        0.000004978273    -0.000005384173     0.000005538411
      11        0.000000356744     0.000012915276    -0.000023101044
      12        0.000368043538    -0.000597101069     0.000447105815
      13        0.000001057423     0.000000173061    -0.000004309449
      14        0.000005752330    -0.000006805340     0.000003476259
      15        0.000006960917    -0.000006639440    -0.000003442865
      16        0.000006731945     0.000000426682    -0.000006002753
      17       -0.000007893419    -0.000004544237     0.000010245451
      18       -0.000002475972     0.000005053506     0.000001844318
      19       -0.000004761519    -0.000005617612    -0.000003315466
      20        0.000003330778    -0.000004726641     0.000002284896
      21       -0.000007538708     0.000004215429     0.000002349431
      22       -0.000001191051     0.000000837006    -0.000001434675
      23       -0.000001499931    -0.000000230638     0.000010078914
      24       -0.000000038444     0.000001578583     0.000001352630
      25       -0.000001671519     0.000008602674    -0.000001127829

  **** Optimization is complete! (in 6 steps) ****
    Final optimized geometry and variables:
    Molecular point group: c1

    Geometry (in Angstrom), charge = 0, multiplicity = 1:

    O            2.933434063742     1.262680831101    -0.180265488614
    C            2.611290830421     0.526219346005     0.693870735751
    C            1.335963353161    -0.289981045218     0.637511778898
    C            3.461685281999     0.353737142870     1.932294759353
    C            0.514070920495    -0.091848831562    -0.629324035784
    H            1.609804978612    -1.335415954277     0.758978612532
    H            0.748782023518    -0.041735029676     1.519077080399
    C           -0.791862228520    -0.912695911166    -0.638051792688
    H            1.124524877543    -0.340768869718    -1.487501287975
    H            0.289033846405     0.962345911936    -0.733925324112
    C           -2.053821600014    -0.053110921867    -0.628994063384
    H           -0.810998568563    -1.562197437895    -1.507048532468
    H           -0.817113522411    -1.577226932013     0.221521404456
    C           -3.344242282547    -0.866592304611    -0.615817610871
    H           -2.047921499802     0.597796238152    -1.499683160446
    H           -2.034284885927     0.603274485418     0.238577580459
    C           -4.599525389777    -0.000407242449    -0.610141048330
    H           -3.363265007255    -1.521995652345    -1.482357030466
    H           -3.351019150708    -1.515682908401     0.255830510077
    H           -4.640041526581     0.635300252151    -1.488318776753
    H           -5.496809872522    -0.608506416609    -0.600889606047
    H           -4.627297974481     0.642974030809     0.263087630592
    H            3.760704553552    -0.683165257578     2.039237645943
    H            4.338256237001     0.979470253800     1.864718016504
    H            2.892141445011     0.617675536901     2.816624328278

  Mulliken Charges: (a.u.)
   Center  Symbol    Alpha    Beta     Spin     Total
       1     O     4.17053  4.17053  0.00000 -0.34107
       2     C     2.86400  2.86400  0.00000  0.27199
       3     C     3.11067  3.11067  0.00000 -0.22135
       4     C     3.15106  3.15106  0.00000 -0.30211
       5     C     3.09462  3.09462  0.00000 -0.18924
       6     H     0.44357  0.44357  0.00000  0.11286
       7     H     0.44460  0.44460  0.00000  0.11080
       8     C     3.09927  3.09927  0.00000 -0.19854
       9     H     0.44033  0.44033  0.00000  0.11934
      10     H     0.44569  0.44569  0.00000  0.10861
      11     C     3.08493  3.08493  0.00000 -0.16986
      12     H     0.44670  0.44670  0.00000  0.10660
      13     H     0.45710  0.45710  0.00000  0.08580
      14     C     3.08535  3.08535  0.00000 -0.17070
      15     H     0.45162  0.45162  0.00000  0.09676
      16     H     0.45570  0.45570  0.00000  0.08860
      17     C     3.14990  3.14990  0.00000 -0.29979
      18     H     0.45439  0.45439  0.00000  0.09123
      19     H     0.45505  0.45505  0.00000  0.08991
      20     H     0.45450  0.45450  0.00000  0.09101
      21     H     0.44848  0.44848  0.00000  0.10303
      22     H     0.45550  0.45550  0.00000  0.08901
      23     H     0.45043  0.45043  0.00000  0.09914
      24     H     0.43538  0.43538  0.00000  0.12923
      25     H     0.45063  0.45063  0.00000  0.09874

   Total alpha = 36.00000, Total beta = 36.00000, Total charge =  0.00000

*** Psi4 exiting successfully. Buy a developer a beer!
