  ==> Input File <==

--------------------------------------------------------------------------
set {
	reference rhf
	basis 6-31G*
}

set_num_threads( 4 )
memory 2 gb

molecule MOL {
0 1

H	 2.003942	 -0.780980	 -0.971667
C	 1.674207	 0.264378	 -0.935570
C	 0.692068	 0.589600	 0.160137
O	 2.089673	 1.048784	 -1.725649
C	 -0.558097	 -0.297372	 0.091132
H	 0.436067	 1.640068	 0.086245
H	 1.194271	 0.431393	 1.113863
C	 -1.850991	 0.512573	 -0.019058
H	 -0.476753	 -0.965681	 -0.762987
H	 -0.604799	 -0.930658	 0.975228
C	 -3.096943	 -0.368295	 -0.099594
H	 -1.800724	 1.150330	 -0.898172
H	 -1.931651	 1.177355	 0.838044
H	 -3.060452	 -1.020287	 -0.967456
H	 -3.996858	 0.233488	 -0.175704
H	 -3.191959	 -0.995686	 0.782074

	symmetry c1
}
set optking {
	frozen_dihedral = ("
		6 3 5 9
	")
}

ee = optimize('scf')
oeprop('DIPOLE', 'QUADRUPOLE', 'MULLIKEN_CHARGES')
f=open( 'psi4out.xyz', 'w' )
f.write( "16  " )
f.write( str(ee) + "\n" )
f.write( MOL.save_string_xyz() )
f.close()
--------------------------------------------------------------------------

    Molecular point group: c1
  Charge       = 0
  Multiplicity = 1
  Basis Set: 6-31G*
  Basis Set:
  @DF-RHF Final Energy:  -270.01463888518253
    Total Energy =                       -270.0146388851823644
    Molecular point group: c1
  Basis Set: 6-31G*
  Basis Set:
  Basis Set: 6-31G*
  Basis Set:
  @DF-RHF Final Energy:  -270.01428525693996
    Total Energy =                       -270.0142852569399565
  Basis Set: 6-31G*
  Basis Set:
  Basis Set: 6-31G*
  Basis Set:
  @DF-RHF Final Energy:  -270.01194215438085
    Total Energy =                       -270.0119421543807903
  Basis Set: 6-31G*
  Basis Set:
  Basis Set: 6-31G*
  Basis Set:
  @DF-RHF Final Energy:  -270.01495747612057
    Total Energy =                       -270.0149574761205145
  Basis Set: 6-31G*
  Basis Set:
  @DF-RHF Final Energy:  -270.01498025653075
    Total Energy =                       -270.0149802565306913
  Basis Set: 6-31G*
  Basis Set:
  @DF-RHF Final Energy:  -270.01497909887155
    Total Energy =                       -270.0149790988714926
  Basis Set: 6-31G*
  Basis Set:
  Basis Set: 6-31G*
  Basis Set:
  @DF-RHF Final Energy:  -270.01499328386421
    Total Energy =                       -270.0149932838642144
  Basis Set: 6-31G*
  Basis Set:
  Basis Set: 6-31G*
  Basis Set:
  @DF-RHF Final Energy:  -270.01499694466588
    Total Energy =                       -270.0149969446659952
  Basis Set: 6-31G*
  Basis Set:
  Charge       = 0
  Multiplicity = 1
  Basis Set: 6-31G*
  Basis Set:

    Orbital Energies (a.u.)
    -----------------------

    Doubly Occupied:

       1A    -20.562143     2A    -11.326920     3A    -11.236231
       4A    -11.235015     5A    -11.228052     6A    -11.217414
       7A     -1.402415     8A     -1.093671     9A     -1.017216
      10A     -0.906007    11A     -0.812537    12A     -0.795086
      13A     -0.671112    14A     -0.650594    15A     -0.622425
      16A     -0.604120    17A     -0.590522    18A     -0.536667
      19A     -0.527081    20A     -0.521925    21A     -0.485821
      22A     -0.481659    23A     -0.468608    24A     -0.410170

  @DF-RHF Final Energy:  -270.01499737506259

   => Energetics <=

    Nuclear Repulsion Energy =            229.6819927466469267
    One-Electron Energy =                -820.5871546259443221
    Two-Electron Energy =                 320.8901645042347468
    DFT Exchange-Correlation Energy =       0.0000000000000000
    Empirical Dispersion Energy =           0.0000000000000000
    PCM Polarization Energy =               0.0000000000000000
    EFP Energy =                            0.0000000000000000
    Total Energy =                       -270.0149973750625918
    Molecular point group: c1
  Basis Set: 6-31G*
  Basis Set:

  -Total Gradient:
     Atom            X                  Y                   Z
    ------   -----------------  -----------------  -----------------
       1       -0.000008025108    -0.000008133637     0.000009177723
       2        0.000000633420     0.000006192347     0.000004102997
       3        0.000077932776    -0.000053486065    -0.000305403156
       4       -0.000004118635     0.000006142391     0.000003063819
       5       -0.000166854940     0.000210387847    -0.000121122094
       6       -0.000026002596     0.000011556569     0.000261740489
       7        0.000004136553    -0.000002037916    -0.000002296359
       8        0.000007484636    -0.000001898971    -0.000005245105
       9        0.000117687246    -0.000170025716     0.000154675972
      10        0.000003471104     0.000000908049     0.000000557087
      11       -0.000003929370     0.000001836871     0.000003321285
      12        0.000001521688     0.000000487464    -0.000000265736
      13       -0.000001782730    -0.000001099016    -0.000001416780
      14       -0.000000974542     0.000002207114    -0.000000951376
      15       -0.000002752678    -0.000001286757     0.000001870680
      16        0.000001573175    -0.000001750575    -0.000001809446

  **** Optimization is complete! (in 9 steps) ****
    Final optimized geometry and variables:
    Molecular point group: c1

    Geometry (in Angstrom), charge = 0, multiplicity = 1:

    H            2.101408986129    -1.087891961436    -0.626768201539
    C            1.857074670065    -0.024482354962    -0.516460946980
    C            0.860202359269     0.296487719585     0.568497234956
    O            2.369818975785     0.782465238849    -1.221667925703
    C           -0.402718333171    -0.595910166186     0.508379580783
    H            0.613229788084     1.348305873567     0.488203475013
    H            1.371122112497     0.159918910296     1.519308120020
    C           -1.698193616221     0.210921400330     0.392850104353
    H           -0.338363500727    -1.277096729154    -0.338279333051
    H           -0.452754484807    -1.227720990386     1.389855599682
    C           -2.942271225289    -0.673002758761     0.329247947965
    H           -1.650501856659     0.837851074074    -0.494277236309
    H           -1.775633838818     0.886455794374     1.241519962462
    H           -2.909398852908    -1.336038531918    -0.530593190223
    H           -3.843611049048    -0.073798869477     0.250044374093
    H           -3.032078177715    -1.289673176706     1.219069410607

  Mulliken Charges: (a.u.)
   Center  Symbol    Alpha    Beta     Spin     Total
       1     H     0.43152  0.43152  0.00000  0.13696
       2     C     2.83282  2.83282  0.00000  0.33435
       3     C     3.21124  3.21124  0.00000 -0.42248
       4     O     4.23749  4.23749  0.00000 -0.47498
       5     C     3.16605  3.16605  0.00000 -0.33209
       6     H     0.39679  0.39679  0.00000  0.20641
       7     H     0.40476  0.40476  0.00000  0.19049
       8     C     3.15328  3.15328  0.00000 -0.30656
       9     H     0.41714  0.41714  0.00000  0.16572
      10     H     0.41479  0.41479  0.00000  0.17041
      11     C     3.24128  3.24128  0.00000 -0.48255
      12     H     0.41680  0.41680  0.00000  0.16639
      13     H     0.41922  0.41922  0.00000  0.16156
      14     H     0.42002  0.42002  0.00000  0.15997
      15     H     0.41608  0.41608  0.00000  0.16784
      16     H     0.42072  0.42072  0.00000  0.15856

   Total alpha = 24.00000, Total beta = 24.00000, Total charge = -0.00000
