  ==> Input File <==

--------------------------------------------------------------------------
set {
	reference rhf
	basis cc-pvtz
}

set_num_threads( 4 )
memory 2 gb

molecule MOL {
0 1

H	 1.887680	 2.362387	 -0.507015
N	 1.066158	 1.801576	 -0.585644
C	 1.263552	 0.494993	 0.021953
H	 0.860948	 1.714565	 -1.559119
C	 -0.016533	 -0.325589	 -0.026925
H	 1.549151	 0.650620	 1.056944
H	 2.070975	 -0.071906	 -0.443534
C	 -1.280353	 0.525521	 0.047747
H	 -0.016686	 -0.912532	 -0.939714
H	 -0.014099	 -1.037598	 0.796369
C	 -2.560681	 -0.301323	 -0.007747
H	 -1.279957	 1.241025	 -0.770189
H	 -1.270445	 1.110526	 0.963468
H	 -2.617064	 -0.872870	 -0.928010
H	 -3.439525	 0.331102	 0.043462
H	 -2.609427	 -1.002736	 0.818585

	symmetry c1
}
set optking {
	frozen_dihedral = ("
		6 3 5 9
	")
}

ee = optimize('scf')
oeprop('DIPOLE', 'QUADRUPOLE', 'MULLIKEN_CHARGES')
f=open( 'psi4out.xyz', 'w' )
f.write( "16  " )
f.write( str(ee) + "\n" )
f.write( MOL.save_string_xyz() )
f.close()
--------------------------------------------------------------------------

    Molecular point group: c1
  Charge       = 0
  Multiplicity = 1
  Basis Set: CC-PVTZ
  Basis Set:
  @DF-RHF Final Energy:  -212.39374916061553
    Total Energy =                       -212.3937491606155277
    Molecular point group: c1
  Basis Set: CC-PVTZ
  Basis Set:
  Basis Set: CC-PVTZ
  Basis Set:
  @DF-RHF Final Energy:  -212.39506230244760
    Total Energy =                       -212.3950623024475135
  Basis Set: CC-PVTZ
  Basis Set:
  Basis Set: CC-PVTZ
  Basis Set:
  @DF-RHF Final Energy:  -212.39594412746976
    Total Energy =                       -212.3959441274698179
  Basis Set: CC-PVTZ
  Basis Set:
  Basis Set: CC-PVTZ
  Basis Set:
  @DF-RHF Final Energy:  -212.39600523159004
    Total Energy =                       -212.3960052315898679
  Basis Set: CC-PVTZ
  Basis Set:
  Basis Set: CC-PVTZ
  Basis Set:
  @DF-RHF Final Energy:  -212.39600911530198
    Total Energy =                       -212.3960091153016947
  Basis Set: CC-PVTZ
  Basis Set:
  Charge       = 0
  Multiplicity = 1
  Basis Set: CC-PVTZ
  Basis Set:

    Orbital Energies (a.u.)
    -----------------------

    Doubly Occupied:

       1A    -15.527691     2A    -11.239215     3A    -11.208854
       4A    -11.204455     5A    -11.201269     6A     -1.179085
       7A     -1.053735     8A     -0.959412     9A     -0.849500
      10A     -0.779563    11A     -0.668626    12A     -0.622699
      13A     -0.615908    14A     -0.575968    15A     -0.562065
      16A     -0.522817    17A     -0.498559    18A     -0.469169
      19A     -0.462642    20A     -0.454461    21A     -0.381858

  @DF-RHF Final Energy:  -212.39600983740388

   => Energetics <=

    Nuclear Repulsion Energy =            189.1961941442889952
    One-Electron Energy =                -661.1093060571810156
    Two-Electron Energy =                 259.5171020754881965
    DFT Exchange-Correlation Energy =       0.0000000000000000
    Empirical Dispersion Energy =           0.0000000000000000
    PCM Polarization Energy =               0.0000000000000000
    EFP Energy =                            0.0000000000000000
    Total Energy =                       -212.3960098374038239
    Molecular point group: c1
  Basis Set: CC-PVTZ
  Basis Set:

  -Total Gradient:
     Atom            X                  Y                   Z
    ------   -----------------  -----------------  -----------------
       1       -0.000011000753    -0.000029514564     0.000004870292
       2       -0.000040206759     0.000032532321    -0.000047673748
       3       -0.003360543954     0.005381180781     0.000822375188
       4        0.000002357600     0.000018184794    -0.000007165442
       5       -0.002487013175     0.004611381836    -0.003822794320
       6        0.003245734896    -0.005319691688    -0.000040901924
       7       -0.000020319212    -0.000016536509     0.000010085439
       8       -0.000003882670     0.000028602381     0.000080512040
       9        0.002661238497    -0.004742186427     0.003034021271
      10        0.000016352224     0.000025384889     0.000000675438
      11        0.000007237343    -0.000003501442    -0.000034938851
      12       -0.000011336047    -0.000001844624     0.000007448763
      13       -0.000011184548     0.000012488431     0.000000229609
      14       -0.000004735323    -0.000012624534    -0.000003798128
      15        0.000013731498     0.000003911404    -0.000008309310
      16        0.000003570380     0.000012232951     0.000005363684

  **** Optimization is complete! (in 6 steps) ****
    Final optimized geometry and variables:
    Molecular point group: c1

    Geometry (in Angstrom), charge = 0, multiplicity = 1:

    H            2.325312706779     1.863727532160    -0.345981772372
    N            1.476401239518     1.358958227121    -0.487448902256
    C            1.535969886175     0.061096094336     0.163617850887
    H            1.357149528968     1.257990056255    -1.474206023268
    C            0.234395048059    -0.739339591542     0.051187936343
    H            1.781462901103     0.201204271618     1.210576215873
    H            2.339608077381    -0.563438912979    -0.229443599122
    C           -1.055194350763     0.064474757263     0.174617894791
    H            0.242451963234    -1.326106445394    -0.864873088047
    H            0.255502544888    -1.485920295962     0.842148214532
    C           -2.295938556838    -0.822877702881     0.170623233880
    H           -1.121321127570     0.784794892501    -0.630969679886
    H           -1.025576314705     0.646494883456     1.090822849505
    H           -2.362272020817    -1.400967207389    -0.745681859153
    H           -3.200368665105    -0.230826577974     0.252215120864
    H           -2.283652105065    -1.522890730197     0.999796724463

  Mulliken Charges: (a.u.)
   Center  Symbol    Alpha    Beta     Spin     Total
       1     H     0.42915  0.42915  0.00000  0.14169
       2     N     3.68688  3.68688  0.00000 -0.37375
       3     C     3.03703  3.03703  0.00000 -0.07406
       4     H     0.43131  0.43131  0.00000  0.13737
       5     C     3.09848  3.09848  0.00000 -0.19696
       6     H     0.45540  0.45540  0.00000  0.08921
       7     H     0.46224  0.46224  0.00000  0.07553
       8     C     3.07169  3.07169  0.00000 -0.14337
       9     H     0.45343  0.45343  0.00000  0.09314
      10     H     0.45427  0.45427  0.00000  0.09147
      11     C     3.15097  3.15097  0.00000 -0.30195
      12     H     0.45264  0.45264  0.00000  0.09472
      13     H     0.45422  0.45422  0.00000  0.09155
      14     H     0.45700  0.45700  0.00000  0.08600
      15     H     0.44871  0.44871  0.00000  0.10258
      16     H     0.45659  0.45659  0.00000  0.08681

   Total alpha = 21.00000, Total beta = 21.00000, Total charge =  0.00000
