  ==> Input File <==

--------------------------------------------------------------------------
set {
	reference rhf
	basis 6-31G*
}

set_num_threads( 4 )
memory 2 gb

molecule MOL {
0 1

O	 -2.439739	 -0.935931	 -0.423848
C	 -1.921153	 0.064240	 -0.045697
C	 -2.624470	 1.379923	 0.150949
O	 -0.632575	 0.154573	 0.251549
H	 -2.168117	 2.136577	 -0.476876
H	 -3.669540	 1.273223	 -0.098610
H	 -2.519365	 1.700893	 1.180846
C	 0.160891	 -1.019931	 0.106212
C	 1.589627	 -0.672828	 0.480843
H	 0.089836	 -1.367806	 -0.916050
H	 -0.238459	 -1.792301	 0.749618
C	 2.246377	 0.346236	 -0.452210
H	 2.163194	 -1.597435	 0.473358
H	 1.604769	 -0.303424	 1.502885
C	 3.198642	 -0.304994	 -1.454254
H	 1.472606	 0.890608	 -0.989832
H	 2.785957	 1.078724	 0.139121
H	 3.651839	 0.437713	 -2.103124
H	 2.678359	 -1.021102	 -2.084154
H	 4.000468	 -0.833436	 -0.946413

	symmetry c1
}
set optking {
	frozen_dihedral = ("
		16 12 9 8
	")
}

ee = optimize('scf')
oeprop('DIPOLE', 'QUADRUPOLE', 'MULLIKEN_CHARGES')
f=open( 'psi4out.xyz', 'w' )
f.write( "20  " )
f.write( str(ee) + "\n" )
f.write( MOL.save_string_xyz() )
f.close()
--------------------------------------------------------------------------

    Molecular point group: c1
  Charge       = 0
  Multiplicity = 1
  Basis Set: 6-31G*
  Basis Set:
  @DF-RHF Final Energy:  -383.94103897926271
    Total Energy =                       -383.9410389792627711
    Molecular point group: c1
  Basis Set: 6-31G*
  Basis Set:
  Basis Set: 6-31G*
  Basis Set:
  @DF-RHF Final Energy:  -383.94118249652979
    Total Energy =                       -383.9411824965296773
  Basis Set: 6-31G*
  Basis Set:
  Basis Set: 6-31G*
  Basis Set:
  @DF-RHF Final Energy:  -383.94112593095383
    Total Energy =                       -383.9411259309536035
  Basis Set: 6-31G*
  Basis Set:
  Basis Set: 6-31G*
  Basis Set:
  @DF-RHF Final Energy:  -383.94133199720716
    Total Energy =                       -383.9413319972070440
  Basis Set: 6-31G*
  Basis Set:
  Basis Set: 6-31G*
  Basis Set:
  @DF-RHF Final Energy:  -383.94133463179179
    Total Energy =                       -383.9413346317917330
  Basis Set: 6-31G*
  Basis Set:
  Charge       = 0
  Multiplicity = 1
  Basis Set: 6-31G*
  Basis Set:

    Orbital Energies (a.u.)
    -----------------------

    Doubly Occupied:

       1A    -20.602030     2A    -20.544278     3A    -11.374717
       4A    -11.282607     5A    -11.233487     6A    -11.225149
       7A    -11.220717     8A    -11.213740     9A     -1.468230
      10A     -1.362517    11A     -1.084594    12A     -1.027492
      13A     -0.980211    14A     -0.882992    15A     -0.811187
      16A     -0.772529    17A     -0.690351    18A     -0.687523
      19A     -0.666061    20A     -0.623775    21A     -0.608420
      22A     -0.585368    23A     -0.573699    24A     -0.560176
      25A     -0.540262    26A     -0.528180    27A     -0.515162
      28A     -0.483608    29A     -0.473927    30A     -0.469021
      31A     -0.448512    32A     -0.438725

  @DF-RHF Final Energy:  -383.94133500838262

   => Energetics <=

    Nuclear Repulsion Energy =            386.9574556123567959
    One-Electron Energy =               -1289.8390833085989016
    Two-Electron Energy =                 518.9402926878594826
    DFT Exchange-Correlation Energy =       0.0000000000000000
    Empirical Dispersion Energy =           0.0000000000000000
    PCM Polarization Energy =               0.0000000000000000
    EFP Energy =                            0.0000000000000000
    Total Energy =                       -383.9413350083825662
    Molecular point group: c1
  Basis Set: 6-31G*
  Basis Set:

  -Total Gradient:
     Atom            X                  Y                   Z
    ------   -----------------  -----------------  -----------------
       1        0.000000879573     0.000015729532    -0.000007800754
       2       -0.000025208364    -0.000027998282     0.000076873423
       3        0.000004904433     0.000003715951    -0.000019829698
       4        0.000008099178    -0.000035389588     0.000038159544
       5       -0.000005929649     0.000022136638    -0.000005156069
       6        0.000000802069     0.000000393587    -0.000003933782
       7        0.000011656123    -0.000017544888    -0.000012968870
       8       -0.000735641180     0.001716018699     0.001032600262
       9        0.001096914748    -0.002780107504    -0.002120879888
      10       -0.000014149848    -0.000025711904     0.000019663278
      11       -0.000013583629     0.000004268665     0.000022451444
      12       -0.000496203424     0.003253692543     0.003059606288
      13        0.000015969932     0.000034045221    -0.000004399947
      14        0.000012866390     0.000001385217     0.000010573241
      15        0.000030457246    -0.000021899616     0.000022975190
      16        0.000113054878    -0.002102349746    -0.002106163736
      17       -0.000001427968    -0.000025931252     0.000008924051
      18       -0.000002502363     0.000010301943     0.000011368778
      19       -0.000002510147     0.000000984683    -0.000011462543
      20        0.000001552003    -0.000025739901    -0.000010600212

  **** Optimization is complete! (in 6 steps) ****
    Final optimized geometry and variables:
    Molecular point group: c1

    Geometry (in Angstrom), charge = 0, multiplicity = 1:

    O           -2.374377669791    -0.802536566241    -0.272549176705
    C           -1.859708513809     0.189985307263     0.130304116258
    C           -2.566623617789     1.499796236074     0.352107217668
    O           -0.574286958876     0.274625109170     0.442842040130
    H           -2.105954532229     2.271869555768    -0.253372612120
    H           -3.609309180490     1.397575488794     0.090936273711
    H           -2.470783727139     1.796035289282     1.390284255316
    C            0.222344789004    -0.895094929441     0.280575393213
    C            1.646539789207    -0.543183606436     0.671257293997
    H            0.154360936423    -1.226928245412    -0.747448732105
    H           -0.177070668150    -1.678840767872     0.910155127147
    C            2.321134346708     0.469797045795    -0.275557646153
    H            2.221634690248    -1.464790868591     0.706973912411
    H            1.623361883619    -0.155872623682     1.685069766790
    C            3.274854049620    -0.191463195117    -1.273371516271
    H            1.558607254535     1.005613130245    -0.831440583931
    H            2.865160345631     1.210213818958     0.301448149042
    H            3.706080917001     0.541176849827    -1.948481826156
    H            2.760209094445    -0.933130007101    -1.878665490731
    H            4.091765170940    -0.693260400719    -0.762593230526

  Mulliken Charges: (a.u.)
   Center  Symbol    Alpha    Beta     Spin     Total
       1     O     4.28311  4.28311  0.00000 -0.56623
       2     C     2.61975  2.61975  0.00000  0.76050
       3     C     3.28159  3.28159  0.00000 -0.56317
       4     O     4.30781  4.30781  0.00000 -0.61563
       5     H     0.40076  0.40076  0.00000  0.19848
       6     H     0.39689  0.39689  0.00000  0.20623
       7     H     0.40047  0.40047  0.00000  0.19905
       8     C     3.00525  3.00525  0.00000 -0.01050
       9     C     3.16705  3.16705  0.00000 -0.33410
      10     H     0.41072  0.41072  0.00000  0.17857
      11     H     0.40877  0.40877  0.00000  0.18245
      12     C     3.15765  3.15765  0.00000 -0.31529
      13     H     0.41572  0.41572  0.00000  0.16856
      14     H     0.41160  0.41160  0.00000  0.17679
      15     C     3.24155  3.24155  0.00000 -0.48311
      16     H     0.41289  0.41289  0.00000  0.17421
      17     H     0.41709  0.41709  0.00000  0.16582
      18     H     0.41825  0.41825  0.00000  0.16351
      19     H     0.42194  0.42194  0.00000  0.15612
      20     H     0.42113  0.42113  0.00000  0.15775

   Total alpha = 32.00000, Total beta = 32.00000, Total charge =  0.00000
