                              Psi4 1.0.54 Driver

  ==> Input File <==

--------------------------------------------------------------------------
set {
	reference rhf
	basis cc-pvtz
}

set_num_threads( 4 )
memory 2 gb

molecule MOL {
0 1

H	 -1.200377	 1.617270	 2.993913
O	 -0.953784	 1.089448	 2.257264
C	 -0.350797	 1.887183	 1.271342
C	 0.027642	 1.012027	 0.090274
H	 0.545766	 2.360344	 1.663848
H	 -1.025706	 2.679502	 0.959588
C	 -1.138737	 0.285728	 -0.581921
H	 0.748343	 0.277700	 0.435036
H	 0.539147	 1.636772	 -0.637924
C	 -1.933983	 -0.631436	 0.343653
H	 -0.763151	 -0.285569	 -1.422081
H	 -1.808359	 1.035291	 -0.992333
H	 -2.789188	 -1.049673	 -0.174718
H	 -1.335629	 -1.461368	 0.700418
H	 -2.305435	 -0.092167	 1.209725

	symmetry c1
}
set optking {
	frozen_dihedral = ("
		8 4 7 11
	")
}

ee,wfn = optimize('scf', return_wfn=True)
oeprop( wfn, 'DIPOLE', 'QUADRUPOLE', 'MULLIKEN_CHARGES')
f=open( 'psi4out.xyz', 'w' )
f.write( "15  " )
f.write( str(ee) + "\n" )
f.write( MOL.save_string_xyz() )
f.close()
--------------------------------------------------------------------------

    Molecular point group: c1
  Charge       = 0
  Multiplicity = 1
  Basis Set: CC-PVTZ
  Basis Set:
  @DF-RHF Final Energy:  -232.23015344917539
    Total Energy =                       -232.2301534491755319
    Molecular point group: c1
  Basis Set: CC-PVTZ
  Basis Set:
  Basis Set: CC-PVTZ
  Basis Set:
  @DF-RHF Final Energy:  -232.23366971853770
    Total Energy =                       -232.2336697185377261
  Basis Set: CC-PVTZ
  Basis Set:
  Basis Set: CC-PVTZ
  Basis Set:
  @DF-RHF Final Energy:  -232.23553952996070
    Total Energy =                       -232.2355395299606471
  Basis Set: CC-PVTZ
  Basis Set:
  Basis Set: CC-PVTZ
  Basis Set:
  @DF-RHF Final Energy:  -232.23580410043533
    Total Energy =                       -232.2358041004353026
  Basis Set: CC-PVTZ
  Basis Set:
  Basis Set: CC-PVTZ
  Basis Set:
  @DF-RHF Final Energy:  -232.23586234157926
    Total Energy =                       -232.2358623415793204
  Basis Set: CC-PVTZ
  Basis Set:
  Basis Set: CC-PVTZ
  Basis Set:
  @DF-RHF Final Energy:  -232.23586857975397
    Total Energy =                       -232.2358685797539124
  Basis Set: CC-PVTZ
  Basis Set:
  Charge       = 0
  Multiplicity = 1
  Basis Set: CC-PVTZ
  Basis Set:

    Orbital Energies (a.u.)
    -----------------------

    Doubly Occupied:

       1A    -20.546598     2A    -11.266979     3A    -11.211868
       4A    -11.210352     5A    -11.194465     6A     -1.364670
       7A     -1.063831     8A     -0.971396     9A     -0.864861
      10A     -0.777794    11A     -0.706565    12A     -0.648737
      13A     -0.606541    14A     -0.576120    15A     -0.555728
      16A     -0.539692    17A     -0.508761    18A     -0.473311
      19A     -0.466874    20A     -0.453436    21A     -0.429773

  @DF-RHF Final Energy:  -232.23586908545965

   => Energetics <=

    Nuclear Repulsion Energy =            192.5705257639818626
    One-Electron Energy =                -696.7360857328260408
    Two-Electron Energy =                 271.9296908833846373
    DFT Exchange-Correlation Energy =       0.0000000000000000
    Empirical Dispersion Energy =           0.0000000000000000
    PCM Polarization Energy =               0.0000000000000000
    EFP Energy =                            0.0000000000000000
    Total Energy =                       -232.2358690854595125
    Molecular point group: c1
  Basis Set: CC-PVTZ
  Basis Set:

  -Total Gradient:
     Atom            X                  Y                   Z
    ------   -----------------  -----------------  -----------------
       1        0.000009045312    -0.000003565868     0.000003197975
       2       -0.000019642226     0.000025270616    -0.000014599744
       3        0.000016138180     0.000017379906     0.000040510259
       4       -0.000776958699    -0.000524978034     0.001672158761
       5       -0.000011268155    -0.000008974793    -0.000004541765
       6        0.000003623546    -0.000016560950     0.000003655067
       7       -0.000170867824     0.001416849192    -0.001227617475
       8        0.000652899810     0.000224912319    -0.001239786377
       9       -0.000000566642    -0.000000948458     0.000001589719
      10       -0.000003775200     0.000016794075     0.000018531154
      11        0.000287373774    -0.001134666496     0.000751747551
      12        0.000014291767    -0.000003700634     0.000013018539
      13       -0.000007465890    -0.000006386231     0.000001742749
      14       -0.000000399763     0.000007308813    -0.000006577681
      15        0.000007572010    -0.000008733453    -0.000013028727

  **** Optimization is complete! (in 7 steps) ****
    Final optimized geometry and variables:
    Molecular point group: c1

    Geometry (in Angstrom), charge = 0, multiplicity = 1:

    H           -0.125877289356     0.822156045084     2.425040184464
    O            0.126001406020     0.318367290150     1.673354654253
    C            0.379928985308     1.171464780259     0.587019661965
    C            0.812360779608     0.363022044719    -0.623948053393
    H            1.171069505352     1.871022172896     0.844262158736
    H           -0.506529920722     1.755188120649     0.344985624685
    C           -0.286780592942    -0.402629032071    -1.364857408273
    H            1.603272691679    -0.317262536891    -0.323010457889
    H            1.262361430741     1.060095467803    -1.325936776283
    C           -0.992689571842    -1.497025368625    -0.567015443920
    H            0.166563187838    -0.859588858135    -2.239535951278
    H           -1.023143898172     0.305366597734    -1.736532627710
    H           -1.687949159886    -2.034533097887    -1.202910726111
    H           -0.279279350798    -2.212662691621    -0.173369795274
    H           -1.542178861376    -1.094513382834     0.271834800156

  Mulliken Charges: (a.u.)
   Center  Symbol    Alpha    Beta     Spin     Total
       1     H     0.39599  0.39599  0.00000  0.20803
       2     O     4.19747  4.19747  0.00000 -0.39494
       3     C     2.97696  2.97696  0.00000  0.04608
       4     C     3.09510  3.09510  0.00000 -0.19020
       5     H     0.46181  0.46181  0.00000  0.07639
       6     H     0.47253  0.47253  0.00000  0.05494
       7     C     3.09080  3.09080  0.00000 -0.18160
       8     H     0.45090  0.45090  0.00000  0.09819
       9     H     0.45002  0.45002  0.00000  0.09997
      10     C     3.14146  3.14146  0.00000 -0.28292
      11     H     0.45098  0.45098  0.00000  0.09803
      12     H     0.45678  0.45678  0.00000  0.08644
      13     H     0.45317  0.45317  0.00000  0.09365
      14     H     0.45499  0.45499  0.00000  0.09002
      15     H     0.45105  0.45105  0.00000  0.09791

   Total alpha = 21.00000, Total beta = 21.00000, Total charge = -0.00000

*** Psi4 exiting successfully. Buy a developer a beer!
