  ==> Input File <==

--------------------------------------------------------------------------
set {
	reference rhf
	basis 6-31G*
}

set_num_threads( 4 )
memory 2 gb

molecule MOL {
0 1

H	 -0.367348	 2.047014	 -0.308205
C	 0.352277	 1.337084	 0.083769
N	 -0.000016	 0.000074	 -0.335546
H	 1.328359	 1.600444	 -0.307950
H	 0.381933	 1.450534	 1.172486
C	 -1.386767	 -0.093914	 -0.730965
C	 0.888736	 -0.496099	 -1.361260
H	 -1.632073	 -1.122534	 -0.969958
H	 -2.024715	 0.219796	 0.087615
H	 -1.626099	 0.523243	 -1.603158
H	 1.911725	 -0.476142	 -1.002833
H	 0.638550	 -1.523845	 -1.599131
H	 0.842518	 0.087175	 -2.286778

	symmetry c1
}
set optking {
	frozen_dihedral = ("
		6 3 2 1
	")
}

ee = optimize('scf')
oeprop('DIPOLE', 'QUADRUPOLE', 'MULLIKEN_CHARGES')
f=open( 'psi4out.xyz', 'w' )
f.write( "13  " )
f.write( str(ee) + "\n" )
f.write( MOL.save_string_xyz() )
f.close()
--------------------------------------------------------------------------

    Molecular point group: c1
  Charge       = 0
  Multiplicity = 1
  Basis Set: 6-31G*
  Basis Set:
  @DF-RHF Final Energy:  -173.26260412451342
    Total Energy =                       -173.2626041245134161
    Molecular point group: c1
  Basis Set: 6-31G*
  Basis Set:
  Basis Set: 6-31G*
  Basis Set:
  @DF-RHF Final Energy:  -173.26334081695285
    Total Energy =                       -173.2633408169528479
  Basis Set: 6-31G*
  Basis Set:
  Basis Set: 6-31G*
  Basis Set:
  @DF-RHF Final Energy:  -173.26348988989452
    Total Energy =                       -173.2634898898944584
  Basis Set: 6-31G*
  Basis Set:
  Basis Set: 6-31G*
  Basis Set:
  @DF-RHF Final Energy:  -173.26349380296719
    Total Energy =                       -173.2634938029671900
  Basis Set: 6-31G*
  Basis Set:
  Charge       = 0
  Multiplicity = 1
  Basis Set: 6-31G*
  Basis Set:

    Orbital Energies (a.u.)
    -----------------------

    Doubly Occupied:

       1A    -15.541461     2A    -11.235398     3A    -11.235362
       4A    -11.235330     5A     -1.220550     6A     -0.951226
       7A     -0.949941     8A     -0.807205     9A     -0.637623
      10A     -0.628949    11A     -0.627094    12A     -0.549726
      13A     -0.545713    14A     -0.515329    15A     -0.499537
      16A     -0.498897    17A     -0.342751

  @DF-RHF Final Energy:  -173.26349433819465

   => Energetics <=

    Nuclear Repulsion Energy =            138.9220194026443949
    One-Electron Energy =                -508.3268450103092846
    Two-Electron Energy =                 196.1413312694702427
    DFT Exchange-Correlation Energy =       0.0000000000000000
    Empirical Dispersion Energy =           0.0000000000000000
    PCM Polarization Energy =               0.0000000000000000
    EFP Energy =                            0.0000000000000000
    Total Energy =                       -173.2634943381946186
    Molecular point group: c1
  Basis Set: 6-31G*
  Basis Set:

  -Total Gradient:
     Atom            X                  Y                   Z
    ------   -----------------  -----------------  -----------------
       1       -0.002385475416    -0.000512631720     0.003565090132
       2        0.003365545140     0.000907749237    -0.005711765370
       3       -0.001778502650    -0.001142173011     0.005130248636
       4       -0.000014319826    -0.000009550812    -0.000014390073
       5        0.000001916020     0.000010461986     0.000014265890
       6        0.000851306078     0.000755564115    -0.003015151065
       7       -0.000022408705     0.000006290545     0.000082396039
       8       -0.000017359369    -0.000008761056    -0.000009361965
       9       -0.000021928357    -0.000002104491    -0.000004621900
      10        0.000007081955     0.000005338338    -0.000005312481
      11        0.000011984221    -0.000003341342    -0.000016978097
      12        0.000007332659    -0.000010744894    -0.000013536443
      13       -0.000005171750     0.000003903105    -0.000000883302

  **** Optimization is complete! (in 5 steps) ****
    Final optimized geometry and variables:
    Molecular point group: c1

    Geometry (in Angstrom), charge = 0, multiplicity = 1:

    H           -0.316368943792     1.898317907104     0.325395014859
    C            0.390899838314     1.154993876238     0.690905909667
    N            0.043916550874    -0.194096879891     0.264859218831
    H            1.381770143963     1.429805728791     0.351180716119
    H            0.382407624599     1.222027777432     1.775396549214
    C           -1.344017530035    -0.303925080185    -0.123771270229
    C            0.921238816480    -0.705589931992    -0.766154319796
    H           -1.587839396939    -1.339152946917    -0.334406471723
    H           -1.982416930105     0.027039174874     0.688109023398
    H           -1.587073448017     0.291307317922    -1.009586816815
    H            1.947694766813    -0.692552655625    -0.418688018285
    H            0.661100103011    -1.734724595116    -0.987202249947
    H            0.870110446184    -0.137409584759    -1.700551266355

  Mulliken Charges: (a.u.)
   Center  Symbol    Alpha    Beta     Spin     Total
       1     H     0.42722  0.42722  0.00000  0.14556
       2     C     3.14475  3.14475  0.00000 -0.28951
       3     N     3.76813  3.76813  0.00000 -0.53626
       4     H     0.41956  0.41956  0.00000  0.16088
       5     H     0.41566  0.41566  0.00000  0.16868
       6     C     3.14353  3.14353  0.00000 -0.28705
       7     C     3.14283  3.14283  0.00000 -0.28566
       8     H     0.41734  0.41734  0.00000  0.16532
       9     H     0.41636  0.41636  0.00000  0.16728
      10     H     0.43494  0.43494  0.00000  0.13012
      11     H     0.41641  0.41641  0.00000  0.16718
      12     H     0.41777  0.41777  0.00000  0.16446
      13     H     0.43550  0.43550  0.00000  0.12899

   Total alpha = 17.00000, Total beta = 17.00000, Total charge = -0.00000
