  ==> Input File <==

--------------------------------------------------------------------------
set {
	reference rhf
	basis cc-pvtz
}

set_num_threads( 4 )
memory 2 gb

molecule MOL {
0 1

O	 -0.988175	 -1.402891	 0.050086
C	 -0.675048	 -0.248293	 -0.009686
C	 -1.742492	 0.826599	 -0.011538
N	 0.622280	 0.144970	 -0.099307
H	 -1.692153	 1.431066	 -0.908439
H	 -2.698310	 0.331559	 0.031353
H	 -1.642148	 1.483784	 0.843455
C	 1.476918	 -0.483801	 -1.084288
C	 1.309095	 0.898414	 0.922633
H	 2.141629	 0.257122	 -1.511390
H	 0.874461	 -0.913911	 -1.863539
H	 2.082477	 -1.268692	 -0.638331
H	 2.044939	 1.541161	 0.456750
H	 0.632914	 1.526513	 1.476860
H	 1.829713	 0.250325	 1.624047

	symmetry c1
}
set optking {
	frozen_dihedral = ("
		8 4 2 3
	")
}

ee = optimize('scf')
oeprop('DIPOLE', 'QUADRUPOLE', 'MULLIKEN_CHARGES')
f=open( 'psi4out.xyz', 'w' )
f.write( "15  " )
f.write( str(ee) + "\n" )
f.write( MOL.save_string_xyz() )
f.close()
--------------------------------------------------------------------------

    Molecular point group: c1
  Charge       = 0
  Multiplicity = 1
  Basis Set: CC-PVTZ
  Basis Set:
  @DF-RHF Final Energy:  -286.11226128536777
    Total Energy =                       -286.1122612853674809
    Molecular point group: c1
  Basis Set: CC-PVTZ
  Basis Set:
  Basis Set: CC-PVTZ
  Basis Set:
  @DF-RHF Final Energy:  -286.11580892041093
    Total Energy =                       -286.1158089204108705
  Basis Set: CC-PVTZ
  Basis Set:
  Basis Set: CC-PVTZ
  Basis Set:
  @DF-RHF Final Energy:  -286.11716821133012
    Total Energy =                       -286.1171682113302950
  Basis Set: CC-PVTZ
  Basis Set:
  Basis Set: CC-PVTZ
  Basis Set:
  @DF-RHF Final Energy:  -286.11833954784424
    Total Energy =                       -286.1183395478437888
  Basis Set: CC-PVTZ
  Basis Set:
  @DF-RHF Final Energy:  -286.11993147983094
    Total Energy =                       -286.1199314798310525
  @DF-RHF Final Energy:  -286.12116125336576
    Total Energy =                       -286.1211612533656989
  @DF-RHF Final Energy:  -286.12251125502252
    Total Energy =                       -286.1225112550228005
  @DF-RHF Final Energy:  -286.12399050992877
    Total Energy =                       -286.1239905099287171
  @DF-RHF Final Energy:  -286.12523141740917
    Total Energy =                       -286.1252314174095659
  @DF-RHF Final Energy:  -286.12535796857162
    Total Energy =                       -286.1253579685715067
  @DF-RHF Final Energy:  -286.12564921746343
    Total Energy =                       -286.1256492174635468
  Basis Set: CC-PVTZ
  Basis Set:
  @DF-RHF Final Energy:  -286.12569004895352
    Total Energy =                       -286.1256900489536861
  Basis Set: CC-PVTZ
  Basis Set:
  Basis Set: CC-PVTZ
  Basis Set:
  @DF-RHF Final Energy:  -286.12570951966813
    Total Energy =                       -286.1257095196681917
  Basis Set: CC-PVTZ
  Basis Set:
  Basis Set: CC-PVTZ
  Basis Set:
  @DF-RHF Final Energy:  -286.12571313074432
    Total Energy =                       -286.1257131307440318
  Basis Set: CC-PVTZ
  Basis Set:
  Charge       = 0
  Multiplicity = 1
  Basis Set: CC-PVTZ
  Basis Set:

    Orbital Energies (a.u.)
    -----------------------

    Doubly Occupied:

       1A    -20.516227     2A    -15.571857     3A    -11.339304
       4A    -11.259420     5A    -11.250290     6A    -11.229813
       7A     -1.396500     8A     -1.243451     9A     -1.014167
      10A     -0.969132    11A     -0.916764    12A     -0.738406
      13A     -0.684265    14A     -0.661524    15A     -0.651997
      16A     -0.593382    17A     -0.579525    18A     -0.572304
      19A     -0.561116    20A     -0.552177    21A     -0.528315
      22A     -0.504180    23A     -0.420667    24A     -0.373068

  @DF-RHF Final Energy:  -286.12571365403926

   => Energetics <=

    Nuclear Repulsion Energy =            253.1930353075240419
    One-Electron Energy =                -890.3817962602272473
    Two-Electron Energy =                 351.0630472986639461
    DFT Exchange-Correlation Energy =       0.0000000000000000
    Empirical Dispersion Energy =           0.0000000000000000
    PCM Polarization Energy =               0.0000000000000000
    EFP Energy =                            0.0000000000000000
    Total Energy =                       -286.1257136540392594
    Molecular point group: c1
  Basis Set: CC-PVTZ
  Basis Set:

  -Total Gradient:
     Atom            X                  Y                   Z
    ------   -----------------  -----------------  -----------------
       1       -0.000012488744     0.000000178576    -0.000071722011
       2       -0.002070482047    -0.000264149330     0.010616571962
       3        0.001406930043     0.002547613421    -0.007896522437
       4        0.000504364248    -0.010229324448     0.000646955652
       5        0.000009016952    -0.000008326727    -0.000022552601
       6        0.000001404472     0.000008259208    -0.000000293736
       7        0.000003024004     0.000009722778    -0.000003623721
       8        0.000204209088     0.007903971385    -0.003298099460
       9       -0.000005174942     0.000055804127     0.000035865884
      10       -0.000019327323    -0.000010676746    -0.000001665376
      11       -0.000004015184    -0.000016310864    -0.000021405347
      12       -0.000009109343    -0.000001984979    -0.000006768732
      13       -0.000000746953    -0.000005906150     0.000002443695
      14       -0.000005591956     0.000004745673     0.000007458694
      15       -0.000002012315     0.000006384073     0.000013357531

  **** Optimization is complete! (in 15 steps) ****
    Final optimized geometry and variables:
    Molecular point group: c1

    Geometry (in Angstrom), charge = 0, multiplicity = 1:

    O           -1.171999733468    -1.169056919989    -0.544983509596
    C           -0.701463375815    -0.205719688413    -0.024924381908
    C           -1.556156439260     1.020587628437     0.218809291609
    N            0.652013722534    -0.131309390210     0.246416379516
    H           -1.153318873434     1.856496013321    -0.340760557550
    H           -2.554676781220     0.801319622392    -0.121265088281
    H           -1.591468965770     1.308761690903     1.261230406085
    C            1.536999856496    -0.590470191185    -0.811228663085
    C            1.183557870819     1.005861403993     0.966600199545
    H            1.718353659422     0.198353324007    -1.539428825513
    H            1.099543745015    -1.438113940051    -1.309234424583
    H            2.487660696501    -0.888085801216    -0.388599036195
    H            1.267605592260     1.901503089590     0.352399018839
    H            0.581267458058     1.234723490402     1.831836315993
    H            2.174090285674     0.754797886373     1.320773813311

  Mulliken Charges: (a.u.)
   Center  Symbol    Alpha    Beta     Spin     Total
       1     O     4.20161  4.20161  0.00000 -0.40322
       2     C     2.84051  2.84051  0.00000  0.31898
       3     C     3.15909  3.15909  0.00000 -0.31818
       4     N     3.57848  3.57848  0.00000 -0.15696
       5     H     0.44934  0.44934  0.00000  0.10131
       6     H     0.42855  0.42855  0.00000  0.14291
       7     H     0.44743  0.44743  0.00000  0.10513
       8     C     3.09673  3.09673  0.00000 -0.19345
       9     C     3.10318  3.10318  0.00000 -0.20636
      10     H     0.46310  0.46310  0.00000  0.07380
      11     H     0.42933  0.42933  0.00000  0.14133
      12     H     0.45338  0.45338  0.00000  0.09325
      13     H     0.46032  0.46032  0.00000  0.07935
      14     H     0.44680  0.44680  0.00000  0.10640
      15     H     0.44215  0.44215  0.00000  0.11570

   Total alpha = 24.00000, Total beta = 24.00000, Total charge = -0.00000
