  ==> Input File <==

--------------------------------------------------------------------------
set {
	reference rhf
	basis 6-31G*
}

set_num_threads( 4 )
memory 2 gb

molecule MOL {
0 1

H	 -2.798360	 -0.862255	 -0.071053
N	 -1.863561	 -0.715187	 0.256814
C	 -1.344686	 0.554728	 -0.219830
H	 -1.300452	 -1.461917	 -0.101532
C	 0.081427	 0.741154	 0.254071
H	 -1.362155	 0.656231	 -1.305829
H	 -1.952773	 1.354456	 0.191809
O	 0.874168	 -0.245412	 -0.342030
H	 0.444037	 1.730782	 -0.023037
H	 0.121165	 0.653424	 1.337565
C	 0.317625	 -0.818009	 -1.482190
H	 1.013600	 -1.559674	 -1.849951
H	 -0.630334	 -1.305149	 -1.260717
H	 0.150501	 -0.074919	 -2.259169

	symmetry c1
}
set optking {
	frozen_dihedral = ("
		11 8 5 3
	")
}

ee = optimize('scf')
oeprop('DIPOLE', 'QUADRUPOLE', 'MULLIKEN_CHARGES')
f=open( 'psi4out.xyz', 'w' )
f.write( "14  " )
f.write( str(ee) + "\n" )
f.write( MOL.save_string_xyz() )
f.close()
--------------------------------------------------------------------------

    Molecular point group: c1
  Charge       = 0
  Multiplicity = 1
  Basis Set: 6-31G*
  Basis Set:
  @DF-RHF Final Energy:  -248.08174670489714
    Total Energy =                       -248.0817467048972276
    Molecular point group: c1
  Basis Set: 6-31G*
  Basis Set:
  Basis Set: 6-31G*
  Basis Set:
  @DF-RHF Final Energy:  -248.10323348235528
    Total Energy =                       -248.1032334823550514
  Basis Set: 6-31G*
  Basis Set:
  Basis Set: 6-31G*
  Basis Set:
  @DF-RHF Final Energy:  -248.11048108112462
    Total Energy =                       -248.1104810811247603
  Basis Set: 6-31G*
  Basis Set:
  Basis Set: 6-31G*
  Basis Set:
  @DF-RHF Final Energy:  -248.11142876876102
    Total Energy =                       -248.1114287687610727
  Basis Set: 6-31G*
  Basis Set:
  @DF-RHF Final Energy:  -248.11197272862103
    Total Energy =                       -248.1119727286208558
  Basis Set: 6-31G*
  Basis Set:
  @DF-RHF Final Energy:  -248.11216626156465
    Total Energy =                       -248.1121662615648233
  Basis Set: 6-31G*
  Basis Set:
  Basis Set: 6-31G*
  Basis Set:
  @DF-RHF Final Energy:  -248.11220232463856
    Total Energy =                       -248.1122023246384742
  Basis Set: 6-31G*
  Basis Set:
  Basis Set: 6-31G*
  Basis Set:
  @DF-RHF Final Energy:  -248.11220602428847
    Total Energy =                       -248.1122060242881844
  Basis Set: 6-31G*
  Basis Set:
  Charge       = 0
  Multiplicity = 1
  Basis Set: 6-31G*
  Basis Set:

    Orbital Energies (a.u.)
    -----------------------

    Doubly Occupied:

       1A    -20.551216     2A    -15.540081     3A    -11.268503
       4A    -11.266473     5A    -11.250075     6A     -1.371162
       7A     -1.182533     8A     -1.001641     9A     -0.925449
      10A     -0.806125    11A     -0.687517    12A     -0.676255
      13A     -0.646275    14A     -0.614337    15A     -0.605037
      16A     -0.547091    17A     -0.539920    18A     -0.522914
      19A     -0.451936    20A     -0.408728    21A     -0.389268

  @DF-RHF Final Energy:  -248.11220629051394

   => Energetics <=

    Nuclear Repulsion Energy =            196.7894239462617065
    One-Electron Energy =                -727.2981884175146661
    Two-Electron Energy =                 282.3965581807390777
    DFT Exchange-Correlation Energy =       0.0000000000000000
    Empirical Dispersion Energy =           0.0000000000000000
    PCM Polarization Energy =               0.0000000000000000
    EFP Energy =                            0.0000000000000000
    Total Energy =                       -248.1122062905139387
    Molecular point group: c1
  Basis Set: 6-31G*
  Basis Set:

  -Total Gradient:
     Atom            X                  Y                   Z
    ------   -----------------  -----------------  -----------------
       1        0.000014436171     0.000002642683     0.000001895892
       2       -0.000013207624    -0.000040019629     0.000014124049
       3        0.000709349938     0.003308059823    -0.003563621911
       4       -0.000016340413     0.000017350236    -0.000011841059
       5       -0.002071866529    -0.007032316064     0.006781557466
       6        0.000003855355    -0.000020382362     0.000013208820
       7        0.000002590037    -0.000008236197    -0.000004623046
       8        0.003546675675     0.007977819090    -0.005994197996
       9       -0.000010468221     0.000005087411    -0.000016007513
      10       -0.000022679872     0.000012935627     0.000001759436
      11       -0.002135531465    -0.004221156025     0.002795574665
      12       -0.000011644558    -0.000001919852    -0.000015788219
      13        0.000007400093     0.000006358303    -0.000009161144
      14       -0.000002568594    -0.000006223042     0.000007120560

  **** Optimization is complete! (in 9 steps) ****
    Final optimized geometry and variables:
    Molecular point group: c1

    Geometry (in Angstrom), charge = 0, multiplicity = 1:

    H           -2.635776769009    -0.539979962933     0.528479887601
    N           -1.668708648301    -0.483078633294     0.781816148357
    C           -1.034467747521     0.676443303994     0.173363472707
    H           -1.233552356398    -1.336494372072     0.493082972697
    C            0.440597506709     0.768566758450     0.539912049649
    H           -1.158428841630     0.733822834226    -0.907699666067
    H           -1.510527830330     1.560543343874     0.584873266395
    O            1.330385369461    -0.115476525811    -0.102752528564
    H            0.771246259096     1.782813262328     0.324635302009
    H            0.549235564607     0.599174789991     1.602707357740
    C            0.977829875403    -0.732596800786    -1.298779740235
    H            1.815837354017    -1.355928375698    -1.579556387639
    H            0.099790524883    -1.364826640271    -1.207815235087
    H            0.801875709304    -0.016947535999    -2.099279298508

  Mulliken Charges: (a.u.)
   Center  Symbol    Alpha    Beta     Spin     Total
       1     H     0.33087  0.33087  0.00000  0.33827
       2     N     3.92413  3.92413  0.00000 -0.84827
       3     C     3.09011  3.09011  0.00000 -0.18023
       4     H     0.32683  0.32683  0.00000  0.34634
       5     C     2.98188  2.98188  0.00000  0.03624
       6     H     0.42730  0.42730  0.00000  0.14540
       7     H     0.41315  0.41315  0.00000  0.17370
       8     O     4.31390  4.31390  0.00000 -0.62781
       9     H     0.42767  0.42767  0.00000  0.14466
      10     H     0.40890  0.40890  0.00000  0.18220
      11     C     3.07787  3.07787  0.00000 -0.15573
      12     H     0.41010  0.41010  0.00000  0.17980
      13     H     0.43768  0.43768  0.00000  0.12464
      14     H     0.42960  0.42960  0.00000  0.14080

   Total alpha = 21.00000, Total beta = 21.00000, Total charge = -0.00000
