                              Psi4 1.0.54 Driver

  ==> Input File <==

--------------------------------------------------------------------------
set {
	reference rhf
	basis cc-pvtz
}

set_num_threads( 4 )
memory 2 gb

molecule MOL {
0 1

O	 2.868453	 1.353349	 -0.000734
C	 2.841259	 0.166180	 -0.000295
C	 1.542794	 -0.614730	 -0.000853
C	 4.113372	 -0.651103	 0.000743
C	 0.288398	 0.247429	 0.000314
H	 1.557171	 -1.273139	 -0.866508
H	 1.557484	 -1.274998	 0.863344
C	 -0.993089	 -0.581367	 -0.000217
H	 0.305153	 0.900562	 -0.864701
H	 0.305567	 0.898805	 0.866656
C	 -2.258482	 0.271340	 0.000669
H	 -1.002280	 -1.233920	 -0.870484
H	 -1.002061	 -1.235367	 0.868958
C	 -3.408375	 -0.349173	 0.788988
H	 -2.577395	 0.440376	 -1.024921
H	 -2.029879	 1.251440	 0.412094
C	 -4.669307	 0.508630	 0.785197
H	 -3.638357	 -1.328394	 0.377682
H	 -3.090916	 -0.517313	 1.814594
H	 -5.032104	 0.666368	 -0.225019
H	 -5.465224	 0.040146	 1.352699
H	 -4.480693	 1.483324	 1.222737
H	 4.145311	 -1.294584	 -0.871587
H	 4.970080	 0.004978	 -0.000091
H	 4.145223	 -1.291980	 0.874988

	symmetry c1
}
set optking {
	frozen_dihedral = ("
		15 11 8 12
	")
}

ee,wfn = optimize('scf', return_wfn=True)
oeprop( wfn, 'DIPOLE', 'QUADRUPOLE', 'MULLIKEN_CHARGES')
f=open( 'psi4out.xyz', 'w' )
f.write( "25  " )
f.write( str(ee) + "\n" )
f.write( MOL.save_string_xyz() )
f.close()
--------------------------------------------------------------------------

    Molecular point group: c1
  Charge       = 0
  Multiplicity = 1
  Basis Set: CC-PVTZ
  Basis Set:
  @DF-RHF Final Energy:  -387.27129964458680
    Total Energy =                       -387.2712996445874296
    Molecular point group: c1
  Basis Set: CC-PVTZ
  Basis Set:
  Basis Set: CC-PVTZ
  Basis Set:
  @DF-RHF Final Energy:  -387.27151941361001
    Total Energy =                       -387.2715194136102355
  Basis Set: CC-PVTZ
  Basis Set:
  Basis Set: CC-PVTZ
  Basis Set:
  @DF-RHF Final Energy:  -387.27161447541488
    Total Energy =                       -387.2716144754151628
  Basis Set: CC-PVTZ
  Basis Set:
  Basis Set: CC-PVTZ
  Basis Set:
  @DF-RHF Final Energy:  -387.27095502643397
    Total Energy =                       -387.2709550264337395
  Basis Set: CC-PVTZ
  Basis Set:
  Basis Set: CC-PVTZ
  Basis Set:
  @DF-RHF Final Energy:  -387.27163008585910
    Total Energy =                       -387.2716300858596696
  Basis Set: CC-PVTZ
  Basis Set:
  Basis Set: CC-PVTZ
  Basis Set:
  @DF-RHF Final Energy:  -387.27163380484421
    Total Energy =                       -387.2716338048442140
  Basis Set: CC-PVTZ
  Basis Set:
  Charge       = 0
  Multiplicity = 1
  Basis Set: CC-PVTZ
  Basis Set:

    Orbital Energies (a.u.)
    -----------------------

    Doubly Occupied:

       1A    -20.538826     2A    -11.320464     3A    -11.229958
       4A    -11.226522     5A    -11.215232     6A    -11.214620
       7A    -11.213502     8A    -11.211486     9A    -11.206199
      10A     -1.398913    11A     -1.094280    12A     -1.057334
      13A     -1.015376    14A     -0.969352    15A     -0.891642
      16A     -0.815270    17A     -0.790809    18A     -0.731172
      19A     -0.660363    20A     -0.654195    21A     -0.634808
      22A     -0.625231    23A     -0.599455    24A     -0.583859
      25A     -0.566980    26A     -0.561856    27A     -0.539988
      28A     -0.529413    29A     -0.512381    30A     -0.492701
      31A     -0.487531    32A     -0.476675    33A     -0.464071
      34A     -0.459698    35A     -0.450911    36A     -0.401235

  @DF-RHF Final Energy:  -387.27163418196869

   => Energetics <=

    Nuclear Repulsion Energy =            439.3837023527046313
    One-Electron Energy =               -1395.6260562199215656
    Two-Electron Energy =                 568.9707196852481275
    DFT Exchange-Correlation Energy =       0.0000000000000000
    Empirical Dispersion Energy =           0.0000000000000000
    PCM Polarization Energy =               0.0000000000000000
    EFP Energy =                            0.0000000000000000
    Total Energy =                       -387.2716341819688068
    Molecular point group: c1
  Basis Set: CC-PVTZ
  Basis Set:

  -Total Gradient:
     Atom            X                  Y                   Z
    ------   -----------------  -----------------  -----------------
       1       -0.000014371291    -0.000100986290    -0.000003598743
       2        0.000050801827     0.000040596515     0.000007732553
       3        0.000043796803     0.000020424964     0.000010836104
       4       -0.000020696068    -0.000013080472    -0.000004254606
       5       -0.000008445978    -0.000008182474    -0.000031246665
       6        0.000004251253     0.000008168089     0.000004488817
       7        0.000006334493    -0.000006669509     0.000002946218
       8       -0.002960881895    -0.004347826157     0.002714548904
       9       -0.000000188825     0.000002520054    -0.000001973000
      10       -0.000017681035    -0.000008406636    -0.000011551595
      11        0.003320464142     0.004870698024    -0.000613412181
      12        0.001997812049     0.002886272938    -0.002144188363
      13        0.000012373981    -0.000004786079    -0.000020578474
      14       -0.000001720901    -0.000007302687    -0.000049678633
      15       -0.002332375184    -0.003391347465     0.000138536751
      16       -0.000011758332     0.000001870065    -0.000014706132
      17       -0.000017954376     0.000017995915     0.000025400720
      18        0.000002949307    -0.000018848088    -0.000008390363
      19        0.000017977457     0.000001762061    -0.000004491498
      20       -0.000003722473    -0.000004577030    -0.000011998808
      21       -0.000007985628     0.000005832491     0.000006494851
      22       -0.000006398891     0.000015013397     0.000005162020
      23       -0.000004840561     0.000020666552     0.000043200274
      24       -0.000043839904    -0.000006496497     0.000002365684
      25       -0.000003899976     0.000026688321    -0.000041643835

  **** Optimization is complete! (in 7 steps) ****
    Final optimized geometry and variables:
    Molecular point group: c1

    Geometry (in Angstrom), charge = 0, multiplicity = 1:

    O            2.851101192912     1.304509252939    -0.188578984520
    C            2.819382432208     0.117817173066    -0.213608189976
    C            1.518510802860    -0.658893586620    -0.191503762697
    C            4.087672494919    -0.703375936779    -0.269760868651
    C            0.267857429866     0.206471835088    -0.135161846262
    H            1.505156151999    -1.299739117540    -1.070227223311
    H            1.556394179676    -1.336787964555     0.658414156182
    C           -1.018129901640    -0.618419948185    -0.102963004773
    H            0.256280647859     0.872332431936    -0.991007251751
    H            0.315987395230     0.845483092827     0.739066388230
    C           -2.283816141064     0.249477350542    -0.110544036552
    H           -1.024068495096    -1.267653238732    -0.974198136983
    H           -1.011872244679    -1.259580244968     0.773848426657
    C           -3.457906934710    -0.392580199442     0.627222029955
    H           -2.592531546141     0.424686816979    -1.137035782571
    H           -2.073966018039     1.218995579496     0.330594741223
    C           -4.734091686079     0.439471577098     0.564054515756
    H           -3.648509380000    -1.377730259076     0.208945296888
    H           -3.182676982356    -0.552173712974     1.666253463105
    H           -5.059006337092     0.581138380367    -0.461412391298
    H           -5.543174451396    -0.039393793701     1.103672445143
    H           -4.582188965226     1.421721017125     0.999277528902
    H            4.090329013498    -1.327065814395    -1.156821630243
    H            4.946534962993    -0.050258164990    -0.282156831458
    H            4.143596912955    -1.363818635191     0.588482167959

  Mulliken Charges: (a.u.)
   Center  Symbol    Alpha    Beta     Spin     Total
       1     O     4.17062  4.17062  0.00000 -0.34124
       2     C     2.86205  2.86205  0.00000  0.27589
       3     C     3.11486  3.11486  0.00000 -0.22972
       4     C     3.15139  3.15139  0.00000 -0.30277
       5     C     3.08325  3.08325  0.00000 -0.16650
       6     H     0.44552  0.44552  0.00000  0.10897
       7     H     0.44532  0.44532  0.00000  0.10936
       8     C     3.09249  3.09249  0.00000 -0.18498
       9     H     0.44513  0.44513  0.00000  0.10975
      10     H     0.44663  0.44663  0.00000  0.10675
      11     C     3.08860  3.08860  0.00000 -0.17720
      12     H     0.45465  0.45465  0.00000  0.09071
      13     H     0.45504  0.45504  0.00000  0.08992
      14     C     3.08411  3.08411  0.00000 -0.16823
      15     H     0.45353  0.45353  0.00000  0.09293
      16     H     0.45184  0.45184  0.00000  0.09631
      17     C     3.15040  3.15040  0.00000 -0.30081
      18     H     0.45464  0.45464  0.00000  0.09072
      19     H     0.45542  0.45542  0.00000  0.08917
      20     H     0.45520  0.45520  0.00000  0.08961
      21     H     0.44874  0.44874  0.00000  0.10252
      22     H     0.45443  0.45443  0.00000  0.09113
      23     H     0.45040  0.45040  0.00000  0.09919
      24     H     0.43535  0.43535  0.00000  0.12930
      25     H     0.45039  0.45039  0.00000  0.09921

   Total alpha = 36.00000, Total beta = 36.00000, Total charge = -0.00000

*** Psi4 exiting successfully. Buy a developer a beer!
