  ==> Input File <==

--------------------------------------------------------------------------
set {
	reference rhf
	basis 6-31G*
}

set_num_threads( 4 )
memory 2 gb

molecule MOL {
0 1

O	 -1.276010	 1.052711	 -0.768302
C	 -1.204840	 0.067374	 -0.106123
C	 -2.388195	 -0.672128	 0.458071
O	 -0.067104	 -0.527208	 0.221609
H	 -2.388023	 -1.694060	 0.097175
H	 -3.300579	 -0.174919	 0.164318
H	 -2.315377	 -0.706351	 1.539059
C	 0.248570	 -1.798165	 -0.364008
C	 1.188391	 -2.484665	 0.611205
C	 0.864154	 -1.591521	 -1.739145
H	 -0.670122	 -2.358656	 -0.455453
H	 0.717755	 -2.597915	 1.581217
H	 1.455293	 -3.469650	 0.242558
H	 2.098089	 -1.907544	 0.737831
H	 1.126531	 -2.548821	 -2.178179
H	 0.165975	 -1.096205	 -2.401855
H	 1.765222	 -0.991054	 -1.664831

	symmetry c1
}
set optking {
	frozen_dihedral = ("
		8 4 2 1
	")
}

ee = optimize('scf')
oeprop('DIPOLE', 'QUADRUPOLE', 'MULLIKEN_CHARGES')
f=open( 'psi4out.xyz', 'w' )
f.write( "17  " )
f.write( str(ee) + "\n" )
f.write( MOL.save_string_xyz() )
f.close()
--------------------------------------------------------------------------

    Molecular point group: c1
  Charge       = 0
  Multiplicity = 1
  Basis Set: 6-31G*
  Basis Set:
  @DF-RHF Final Energy:  -344.89119515647388
    Total Energy =                       -344.8911951564742822
    Molecular point group: c1
  Basis Set: 6-31G*
  Basis Set:
  Basis Set: 6-31G*
  Basis Set:
  @DF-RHF Final Energy:  -344.89040483027424
    Total Energy =                       -344.8904048302740648
  Basis Set: 6-31G*
  Basis Set:
  Basis Set: 6-31G*
  Basis Set:
  @DF-RHF Final Energy:  -344.89358760480673
    Total Energy =                       -344.8935876048067257
  Basis Set: 6-31G*
  Basis Set:
  Basis Set: 6-31G*
  Basis Set:
  @DF-RHF Final Energy:  -344.89456179543555
    Total Energy =                       -344.8945617954357203
  Basis Set: 6-31G*
  Basis Set:
  @DF-RHF Final Energy:  -344.89464449807286
    Total Energy =                       -344.8946444980733759
  @DF-RHF Final Energy:  -344.89466214850620
    Total Energy =                       -344.8946621485061996
  @DF-RHF Final Energy:  -344.89466690460500
    Total Energy =                       -344.8946669046047191
  Basis Set: 6-31G*
  Basis Set:
  @DF-RHF Final Energy:  -344.89466875166704
    Total Energy =                       -344.8946687516670409
  Basis Set: 6-31G*
  Basis Set:
  Basis Set: 6-31G*
  Basis Set:
  @DF-RHF Final Energy:  -344.89467263127841
    Total Energy =                       -344.8946726312782971
  Basis Set: 6-31G*
  Basis Set:
  Basis Set: 6-31G*
  Basis Set:
  @DF-RHF Final Energy:  -344.89467392370409
    Total Energy =                       -344.8946739237044881
  Basis Set: 6-31G*
  Basis Set:
  Charge       = 0
  Multiplicity = 1
  Basis Set: 6-31G*
  Basis Set:

    Orbital Energies (a.u.)
    -----------------------

    Doubly Occupied:

       1A    -20.582462     2A    -20.552252     3A    -11.376051
       4A    -11.303104     5A    -11.237590     6A    -11.223077
       7A    -11.221419     8A     -1.455748     9A     -1.365361
      10A     -1.074316    11A     -1.011852    12A     -0.953398
      13A     -0.851424    14A     -0.767659    15A     -0.692793
      16A     -0.673460    17A     -0.655584    18A     -0.623760
      19A     -0.590589    20A     -0.587574    21A     -0.557527
      22A     -0.552898    23A     -0.541813    24A     -0.524151
      25A     -0.509198    26A     -0.477368    27A     -0.448770
      28A     -0.433726

  @DF-RHF Final Energy:  -344.89467435254818

   => Energetics <=

    Nuclear Repulsion Energy =            322.6376937059408760
    One-Electron Energy =               -1109.3748907129461259
    Two-Electron Energy =                 441.8425226544572979
    DFT Exchange-Correlation Energy =       0.0000000000000000
    Empirical Dispersion Energy =           0.0000000000000000
    PCM Polarization Energy =               0.0000000000000000
    EFP Energy =                            0.0000000000000000
    Total Energy =                       -344.8946743525480088
    Molecular point group: c1
  Basis Set: 6-31G*
  Basis Set:

  -Total Gradient:
     Atom            X                  Y                   Z
    ------   -----------------  -----------------  -----------------
       1        0.000007035843    -0.000433742784    -0.000785535051
       2        0.000230186420     0.000847513479     0.000907925115
       3       -0.000002836377     0.000015300885    -0.000002499823
       4       -0.000653034907    -0.000808071878     0.000377271176
       5        0.000005915657    -0.000008868376     0.000003165635
       6       -0.000005389839    -0.000007290846    -0.000005802068
       7       -0.000001625815     0.000008375575    -0.000000570436
       8        0.000434345915     0.000374003172    -0.000504764375
       9       -0.000001935796     0.000007265975     0.000007273273
      10       -0.000003107782    -0.000001741450     0.000004909658
      11       -0.000011273597     0.000001749336     0.000001371035
      12        0.000002076764     0.000000793825    -0.000001021437
      13       -0.000002297132     0.000000193145     0.000000134872
      14        0.000000576111     0.000001430759    -0.000001306035
      15        0.000000457632     0.000000658701     0.000004016700
      16        0.000000441881    -0.000000192461     0.000001124847
      17        0.000000465021     0.000002622936    -0.000005693083

  **** Optimization is complete! (in 11 steps) ****
    Final optimized geometry and variables:
    Molecular point group: c1

    Geometry (in Angstrom), charge = 0, multiplicity = 1:

    O           -0.747173625223     1.933793299941    -0.426816110764
    C           -0.832632664380     0.902829455425     0.144976934367
    C           -2.146008261241     0.281032732123     0.552647590110
    O            0.264869764454     0.230061856054     0.544828522504
    H           -2.287022976435    -0.680863984665     0.072249575846
    H           -2.957309632440     0.937587557384     0.275673145574
    H           -2.149885768917     0.115043303403     1.624023204473
    C            0.633131407796    -0.995754212785    -0.088870167147
    C            1.697223730489    -1.618021403481     0.796582923429
    C            1.122695022481    -0.732305254950    -1.505738126874
    H           -0.231826645491    -1.651748549717    -0.117795589139
    H            1.312343827799    -1.778728086486     1.796744107945
    H            2.016128342452    -2.572124076499     0.390213150601
    H            2.558892926497    -0.963451564487     0.862600820352
    H            1.422870988306    -1.663323535370    -1.976226703591
    H            0.349511308395    -0.279952171904    -2.116689758820
    H            1.972100410691    -0.059223045178    -1.488278892660

  Mulliken Charges: (a.u.)
   Center  Symbol    Alpha    Beta     Spin     Total
       1     O     4.25263  4.25263  0.00000 -0.50525
       2     C     2.62130  2.62130  0.00000  0.75739
       3     C     3.29323  3.29323  0.00000 -0.58645
       4     O     4.32073  4.32073  0.00000 -0.64147
       5     H     0.40637  0.40637  0.00000  0.18726
       6     H     0.39445  0.39445  0.00000  0.21109
       7     H     0.39927  0.39927  0.00000  0.20145
       8     C     2.92809  2.92809  0.00000  0.14383
       9     C     3.24049  3.24049  0.00000 -0.48098
      10     C     3.24700  3.24700  0.00000 -0.49400
      11     H     0.42278  0.42278  0.00000  0.15444
      12     H     0.41090  0.41090  0.00000  0.17821
      13     H     0.41860  0.41860  0.00000  0.16280
      14     H     0.40872  0.40872  0.00000  0.18257
      15     H     0.41851  0.41851  0.00000  0.16297
      16     H     0.41069  0.41069  0.00000  0.17861
      17     H     0.40623  0.40623  0.00000  0.18753

   Total alpha = 28.00000, Total beta = 28.00000, Total charge = -0.00000
