  ==> Input File <==

--------------------------------------------------------------------------
set {
	reference rhf
	basis cc-pvtz
}

set_num_threads( 4 )
memory 2 gb

molecule MOL {
0 1

H	 1.166964	 -1.062386	 0.758429
O	 1.324748	 -0.612467	 -0.052206
C	 0.706474	 0.636793	 -0.025501
C	 -0.617442	 0.695090	 -0.733654
H	 1.393836	 1.329316	 -0.496931
H	 0.572910	 0.981594	 0.998205
C	 -1.157348	 -0.276062	 -1.436273
H	 -1.138694	 1.633013	 -0.634432
H	 -0.661498	 -1.218190	 -1.572287
H	 -2.112144	 -0.152304	 -1.910730

	symmetry c1
}
set optking {
	frozen_dihedral = ("
		5 3 2 1
	")
}

ee = optimize('scf')
oeprop('DIPOLE', 'QUADRUPOLE', 'MULLIKEN_CHARGES')
f=open( 'psi4out.xyz', 'w' )
f.write( "10  " )
f.write( str(ee) + "\n" )
f.write( MOL.save_string_xyz() )
f.close()
--------------------------------------------------------------------------

    Molecular point group: c1
  Charge       = 0
  Multiplicity = 1
  Basis Set: CC-PVTZ
  Basis Set:
  @DF-RHF Final Energy:  -191.99732725126435
    Total Energy =                       -191.9973272512642666
    Molecular point group: c1
  Basis Set: CC-PVTZ
  Basis Set:
  Basis Set: CC-PVTZ
  Basis Set:
  @DF-RHF Final Energy:  -191.99757800472938
    Total Energy =                       -191.9975780047294336
  Basis Set: CC-PVTZ
  Basis Set:
  Basis Set: CC-PVTZ
  Basis Set:
  @DF-RHF Final Energy:  -191.99762007498595
    Total Energy =                       -191.9976200749859174
  Basis Set: CC-PVTZ
  Basis Set:
  Charge       = 0
  Multiplicity = 1
  Basis Set: CC-PVTZ
  Basis Set:

    Orbital Energies (a.u.)
    -----------------------

    Doubly Occupied:

       1A    -20.553945     2A    -11.278480     3A    -11.225374
       4A    -11.210961     5A     -1.373777     6A     -1.059265
       7A     -0.929257     8A     -0.764795     9A     -0.702597
      10A     -0.658644    11A     -0.616256    12A     -0.577853
      13A     -0.520641    14A     -0.507298    15A     -0.450095
      16A     -0.364189

  @DF-RHF Final Energy:  -191.99762106851097

   => Energetics <=

    Nuclear Repulsion Energy =            119.3972787900627708
    One-Electron Energy =                -497.2029459503733619
    Two-Electron Energy =                 185.8080460917994401
    DFT Exchange-Correlation Energy =       0.0000000000000000
    Empirical Dispersion Energy =           0.0000000000000000
    PCM Polarization Energy =               0.0000000000000000
    EFP Energy =                            0.0000000000000000
    Total Energy =                       -191.9976210685111369
    Molecular point group: c1
  Basis Set: CC-PVTZ
  Basis Set:

  -Total Gradient:
     Atom            X                  Y                   Z
    ------   -----------------  -----------------  -----------------
       1        0.001399999894     0.000650649946     0.000726703447
       2       -0.001635808730    -0.000768523722    -0.000486874568
       3       -0.000345359079    -0.000083110445    -0.001558982106
       4       -0.000027716377     0.000015324245     0.000033203209
       5        0.000565242569     0.000276172896     0.001312778715
       6        0.000029736986    -0.000085429349    -0.000003599108
       7        0.000002809255    -0.000024125178     0.000039516986
       8        0.000004109314     0.000004069180    -0.000026855769
       9        0.000004900594     0.000015726870    -0.000034491956
      10        0.000002085575    -0.000000754443    -0.000001398851

  **** Optimization is complete! (in 4 steps) ****
    Final optimized geometry and variables:
    Molecular point group: c1

    Geometry (in Angstrom), charge = 0, multiplicity = 1:

    H            1.030951123295    -1.174579729362     1.214626368518
    O            1.199647599114    -0.680546615807     0.434892035283
    C            0.570249884146     0.565332693563     0.504503101892
    C           -0.741441635359     0.624565804891    -0.224178641947
    H            1.250061575198     1.299941830336     0.085987034885
    H            0.411106243964     0.860399639958     1.539238091852
    C           -1.293544774866    -0.366666055115    -0.886657730875
    H           -1.237425083861     1.580417615667    -0.178755569988
    H           -0.817030341987    -1.324827313610    -0.959291974562
    H           -2.236574594594    -0.242671059322    -1.384349761837

  Mulliken Charges: (a.u.)
   Center  Symbol    Alpha    Beta     Spin     Total
       1     H     0.39056  0.39056  0.00000  0.21888
       2     O     4.19901  4.19901  0.00000 -0.39801
       3     C     2.95101  2.95101  0.00000  0.09799
       4     C     3.08110  3.08110  0.00000 -0.16219
       5     H     0.45724  0.45724  0.00000  0.08553
       6     H     0.47032  0.47032  0.00000  0.05937
       7     C     3.17663  3.17663  0.00000 -0.35326
       8     H     0.42384  0.42384  0.00000  0.15232
       9     H     0.42127  0.42127  0.00000  0.15745
      10     H     0.42903  0.42903  0.00000  0.14194

   Total alpha = 16.00000, Total beta = 16.00000, Total charge =  0.00000
