  ==> Input File <==

--------------------------------------------------------------------------
set {
	reference rhf
	basis 6-31G*
}

set_num_threads( 4 )
memory 2 gb

molecule MOL {
0 1

H	 3.729471	 -0.928294	 -0.070608
O	 2.826016	 -1.159218	 0.122261
C	 2.077727	 -0.067559	 -0.035091
C	 0.624473	 -0.343591	 0.253101
O	 2.542965	 0.974826	 -0.363729
C	 -0.265902	 0.883932	 0.072916
H	 0.324016	 -1.163849	 -0.390541
H	 0.565024	 -0.726111	 1.268924
C	 -1.728698	 0.646073	 0.462102
H	 -0.209144	 1.219470	 -0.958188
H	 0.135059	 1.692851	 0.673903
C	 -2.482460	 -0.343073	 -0.431425
H	 -2.245265	 1.602650	 0.432430
H	 -1.779332	 0.308348	 1.496285
C	 -1.823257	 -1.721704	 -0.467561
H	 -3.505300	 -0.441361	 -0.073400
H	 -2.548679	 0.042177	 -1.445614
H	 -2.373719	 -2.404028	 -1.107671
H	 -1.779235	 -2.161155	 0.524796
H	 -0.806900	 -1.660213	 -0.846340

	symmetry c1
}
set optking {
	frozen_dihedral = ("
		16 12 9 6
	")
}

ee = optimize('scf')
oeprop('DIPOLE', 'QUADRUPOLE', 'MULLIKEN_CHARGES')
f=open( 'psi4out.xyz', 'w' )
f.write( "20  " )
f.write( str(ee) + "\n" )
f.write( MOL.save_string_xyz() )
f.close()
--------------------------------------------------------------------------

    Molecular point group: c1
  Charge       = 0
  Multiplicity = 1
  Basis Set: 6-31G*
  Basis Set:
  @DF-RHF Final Energy:  -383.92146552092640
    Total Energy =                       -383.9214655209264038
    Molecular point group: c1
  Basis Set: 6-31G*
  Basis Set:
  Basis Set: 6-31G*
  Basis Set:
  @DF-RHF Final Energy:  -383.93817895236782
    Total Energy =                       -383.9381789523678208
  Basis Set: 6-31G*
  Basis Set:
  Basis Set: 6-31G*
  Basis Set:
  @DF-RHF Final Energy:  -383.94214509666608
    Total Energy =                       -383.9421450966661951
  Basis Set: 6-31G*
  Basis Set:
  Basis Set: 6-31G*
  Basis Set:
  @DF-RHF Final Energy:  -383.94254140159944
    Total Energy =                       -383.9425414015994420
  Basis Set: 6-31G*
  Basis Set:
  @DF-RHF Final Energy:  -383.94303277255062
    Total Energy =                       -383.9430327725505094
  @DF-RHF Final Energy:  -383.94329083415033
    Total Energy =                       -383.9432908341507300
  @DF-RHF Final Energy:  -383.94361570494601
    Total Energy =                       -383.9436157049461826
  Basis Set: 6-31G*
  Basis Set:
  @DF-RHF Final Energy:  -383.94383225781394
    Total Energy =                       -383.9438322578140514
  Basis Set: 6-31G*
  Basis Set:
  Basis Set: 6-31G*
  Basis Set:
  @DF-RHF Final Energy:  -383.94416243223372
    Total Energy =                       -383.9441624322339521
  Basis Set: 6-31G*
  Basis Set:
  Basis Set: 6-31G*
  Basis Set:
  @DF-RHF Final Energy:  -383.94420236740825
    Total Energy =                       -383.9442023674080247
  Basis Set: 6-31G*
  Basis Set:
  Charge       = 0
  Multiplicity = 1
  Basis Set: 6-31G*
  Basis Set:

    Orbital Energies (a.u.)
    -----------------------

    Doubly Occupied:

       1A    -20.612263     2A    -20.551410     3A    -11.380753
       4A    -11.239599     5A    -11.222868     6A    -11.220851
       7A    -11.220153     8A    -11.213716     9A     -1.474299
      10A     -1.365357    11A     -1.094136    12A     -1.039101
      13A     -0.960747    14A     -0.878931    15A     -0.806747
      16A     -0.777480    17A     -0.699210    18A     -0.686678
      19A     -0.666445    20A     -0.627032    21A     -0.617449
      22A     -0.591321    23A     -0.572124    24A     -0.559247
      25A     -0.531306    26A     -0.516393    27A     -0.503853
      28A     -0.478780    29A     -0.468975    30A     -0.464628
      31A     -0.454847    32A     -0.441283

  @DF-RHF Final Energy:  -383.94420166001561

   => Energetics <=

    Nuclear Repulsion Energy =            382.3785284063200720
    One-Electron Energy =               -1280.7694967849517980
    Two-Electron Energy =                 514.4467667186163453
    DFT Exchange-Correlation Energy =       0.0000000000000000
    Empirical Dispersion Energy =           0.0000000000000000
    PCM Polarization Energy =               0.0000000000000000
    EFP Energy =                            0.0000000000000000
    Total Energy =                       -383.9442016600153238
    Molecular point group: c1
  Basis Set: 6-31G*
  Basis Set:

  -Total Gradient:
     Atom            X                  Y                   Z
    ------   -----------------  -----------------  -----------------
       1        0.000037157741    -0.000022589613     0.000004760457
       2        0.000056525637     0.000011711141    -0.000042852649
       3       -0.000012798592     0.000066569587     0.000017684956
       4        0.000058522161    -0.000054417375    -0.000078787471
       5        0.000025900047    -0.000057739641     0.000051966353
       6        0.000446528563    -0.001021919163     0.000524566555
       7        0.000071434029     0.000175330510     0.000006975012
       8       -0.000002233970     0.000016122789     0.000006411254
       9       -0.000564090264     0.001437727381    -0.000728194173
      10        0.000044258919     0.000007047880     0.000073890076
      11        0.000084989887    -0.000015254305    -0.000018312525
      12       -0.000428176055     0.001090067914    -0.000564799428
      13       -0.000047733944    -0.000010602040     0.000093262146
      14       -0.000024491236    -0.000070615761    -0.000064338169
      15       -0.000072627762    -0.000110378852    -0.000018955471
      16        0.000518159704    -0.001360296327     0.000728440335
      17       -0.000027562097     0.000047465710    -0.000020179174
      18        0.000057936442    -0.000018298708    -0.000049710668
      19       -0.000105266234    -0.000088123399    -0.000052303683
      20       -0.000116432986    -0.000021807726     0.000130476268

  **** Optimization is complete! (in 11 steps) ****
    Final optimized geometry and variables:
    Molecular point group: c1

    Geometry (in Angstrom), charge = 0, multiplicity = 1:

    H            3.610844027772    -0.546444291841     0.145734379233
    O            2.750694723092    -0.761888877112     0.492878758131
    C            1.884322950047     0.146465968393     0.044658902735
    C            0.489523783122    -0.117803770192     0.550998742564
    O            2.216713998984     1.039395935715    -0.664851635363
    C           -0.532852178180     0.902560633875     0.051980542470
    H            0.232732774682    -1.132660105444     0.270195125846
    H            0.538419205281    -0.116328591081     1.636683478422
    C           -1.963072885087     0.664479669779     0.574458669627
    H           -0.527568168867     0.919986235023    -1.033303903033
    H           -0.195993543832     1.885674986187     0.361255224541
    C           -2.884863690622    -0.159244142266    -0.335964602503
    H           -2.439054156246     1.628364679410     0.729820860517
    H           -1.918740399750     0.195426336925     1.556139307630
    C           -2.400145786384    -1.569233433706    -0.678439483202
    H           -3.850315649736    -0.244750844761     0.156683726781
    H           -3.055698468007     0.391564120779    -1.258119685096
    H           -3.148524009609    -2.096375315870    -1.261874732580
    H           -2.213215780330    -2.153199763323     0.218786222607
    H           -1.487998813513    -1.554565786974    -1.265627896903

  Mulliken Charges: (a.u.)
   Center  Symbol    Alpha    Beta     Spin     Total
       1     H     0.26793  0.26793  0.00000  0.46414
       2     O     4.35158  4.35158  0.00000 -0.70315
       3     C     2.62325  2.62325  0.00000  0.75351
       4     C     3.21296  3.21296  0.00000 -0.42593
       5     O     4.27947  4.27947  0.00000 -0.55894
       6     C     3.15795  3.15795  0.00000 -0.31589
       7     H     0.39524  0.39524  0.00000  0.20951
       8     H     0.39871  0.39871  0.00000  0.20257
       9     C     3.15857  3.15857  0.00000 -0.31714
      10     H     0.40968  0.40968  0.00000  0.18063
      11     H     0.40856  0.40856  0.00000  0.18288
      12     C     3.15097  3.15097  0.00000 -0.30195
      13     H     0.41606  0.41606  0.00000  0.16787
      14     H     0.42364  0.42364  0.00000  0.15273
      15     C     3.24369  3.24369  0.00000 -0.48738
      16     H     0.42053  0.42053  0.00000  0.15894
      17     H     0.42085  0.42085  0.00000  0.15831
      18     H     0.41690  0.41690  0.00000  0.16620
      19     H     0.42238  0.42238  0.00000  0.15523
      20     H     0.42107  0.42107  0.00000  0.15786

   Total alpha = 32.00000, Total beta = 32.00000, Total charge =  0.00000
