  ==> Input File <==

--------------------------------------------------------------------------
set {
	reference rhf
	basis 6-31G*
}

set_num_threads( 4 )
memory 2 gb

molecule MOL {
0 1

H	 -0.981455	 -0.320175	 -1.006232
N	 -0.712432	 0.000013	 -0.096310
C	 0.734192	 -0.000004	 0.040609
H	 -1.130342	 -0.623609	 0.566491
H	 1.139899	 -0.873598	 -0.456463
H	 1.139939	 0.873831	 -0.456100
H	 1.096456	 -0.000300	 1.069655

	symmetry c1
}
set optking {
	frozen_dihedral = ("
		1 2 3 7
	")
}

ee = optimize('scf')
oeprop('DIPOLE', 'QUADRUPOLE', 'MULLIKEN_CHARGES')
f=open( 'psi4out.xyz', 'w' )
f.write( "7  " )
f.write( str(ee) + "\n" )
f.write( MOL.save_string_xyz() )
f.close()
--------------------------------------------------------------------------

    Molecular point group: c1
  Charge       = 0
  Multiplicity = 1
  Basis Set: 6-31G*
  Basis Set:
  @DF-RHF Final Energy:   -95.20686554761312
    Total Energy =                        -95.2068655476130630
    Molecular point group: c1
  Basis Set: 6-31G*
  Basis Set:
  Basis Set: 6-31G*
  Basis Set:
  @DF-RHF Final Energy:   -95.20861799096028
    Total Energy =                        -95.2086179909602208
  Basis Set: 6-31G*
  Basis Set:
  Basis Set: 6-31G*
  Basis Set:
  @DF-RHF Final Energy:   -95.20887110177736
    Total Energy =                        -95.2088711017774472
  Basis Set: 6-31G*
  Basis Set:
  Charge       = 0
  Multiplicity = 1
  Basis Set: 6-31G*
  Basis Set:

    Orbital Energies (a.u.)
    -----------------------

    Doubly Occupied:

       1A    -15.535071     2A    -11.237705     3A     -1.170970
       4A     -0.896983     5A     -0.663536     6A     -0.602753
       7A     -0.556813     8A     -0.517739     9A     -0.384713

  @DF-RHF Final Energy:   -95.20887344726246

   => Energetics <=

    Nuclear Repulsion Energy =             42.3076850059769782
    One-Electron Energy =                -211.9005551199562092
    Two-Electron Energy =                  74.3839966667168397
    DFT Exchange-Correlation Energy =       0.0000000000000000
    Empirical Dispersion Energy =           0.0000000000000000
    PCM Polarization Energy =               0.0000000000000000
    EFP Energy =                            0.0000000000000000
    Total Energy =                        -95.2088734472624054
    Molecular point group: c1
  Basis Set: 6-31G*
  Basis Set:

  -Total Gradient:
     Atom            X                  Y                   Z
    ------   -----------------  -----------------  -----------------
       1       -0.000013193753    -0.002507860336     0.000946705309
       2        0.000271974971     0.002554492707    -0.001124539657
       3       -0.000129245689     0.002412244398     0.000094661666
       4        0.000050011718     0.000010993351     0.000023370390
       5       -0.000020598604    -0.000024851335    -0.000022127250
       6       -0.000059057308     0.000003875016     0.000015933635
       7       -0.000099891335    -0.002448893800     0.000065995907

  **** Optimization is complete! (in 4 steps) ****
    Final optimized geometry and variables:
    Molecular point group: c1

    Geometry (in Angstrom), charge = 0, multiplicity = 1:

    H           -1.016628106483    -0.279889704890    -0.943527700301
    N           -0.718269572942     0.041263879950    -0.042982658160
    C            0.734187709186     0.019029263732     0.053640754026
    H           -1.116919255916    -0.592866322038     0.621778744967
    H            1.199991092865    -0.853117544617    -0.406450534164
    H            1.149389057184     0.905470460656    -0.411706746645
    H            1.022208970933     0.020490126202     1.098431075422

  Mulliken Charges: (a.u.)
   Center  Symbol    Alpha    Beta     Spin     Total
       1     H     0.33375  0.33375  0.00000  0.33250
       2     N     3.91662  3.91662  0.00000 -0.83325
       3     C     3.14813  3.14813  0.00000 -0.29626
       4     H     0.33406  0.33406  0.00000  0.33187
       5     H     0.43260  0.43260  0.00000  0.13481
       6     H     0.41584  0.41584  0.00000  0.16832
       7     H     0.41899  0.41899  0.00000  0.16201

   Total alpha =  9.00000, Total beta =  9.00000, Total charge = -0.00000
