                              Psi4 1.0.54 Driver

  ==> Input File <==

--------------------------------------------------------------------------
set {
	reference rhf
	basis cc-pvtz
}

set_num_threads( 4 )
memory 2 gb

molecule MOL {
0 1

O	 -2.364795	 1.350651	 -0.356202
C	 -2.102387	 0.217196	 -0.115673
C	 -0.881910	 -0.448129	 -0.720509
C	 -2.954298	 -0.612462	 0.815285
C	 0.376695	 -0.140025	 0.100361
H	 -0.763284	 -0.063466	 -1.725533
H	 -1.029402	 -1.521194	 -0.780874
C	 1.630207	 -0.772146	 -0.501001
H	 0.486632	 0.935267	 0.162725
H	 0.248225	 -0.501310	 1.117842
C	 2.907848	 -0.545876	 0.309149
H	 1.772784	 -0.391628	 -1.509394
H	 1.468529	 -1.842059	 -0.599744
C	 3.373802	 0.906639	 0.372125
H	 3.699140	 -1.146831	 -0.127906
H	 2.764321	 -0.923458	 1.318191
H	 3.519798	 1.311927	 -0.623875
H	 4.316899	 0.983758	 0.900700
H	 2.661122	 1.540651	 0.885346
H	 -3.447999	 -1.393628	 0.246043
H	 -3.696229	 0.008527	 1.293282
H	 -2.339951	 -1.101012	 1.563273

	symmetry c1
}
set optking {
	frozen_dihedral = ("
		6 3 5 8
	")
}

ee,wfn = optimize('scf', return_wfn=True)
oeprop( wfn, 'DIPOLE', 'QUADRUPOLE', 'MULLIKEN_CHARGES')
f=open( 'psi4out.xyz', 'w' )
f.write( "22  " )
f.write( str(ee) + "\n" )
f.write( MOL.save_string_xyz() )
f.close()
--------------------------------------------------------------------------

    Molecular point group: c1
  Charge       = 0
  Multiplicity = 1
  Basis Set: CC-PVTZ
  Basis Set:
  @DF-RHF Final Energy:  -348.22350865112867
    Total Energy =                       -348.2235086511281565
    Molecular point group: c1
  Basis Set: CC-PVTZ
  Basis Set:
  Basis Set: CC-PVTZ
  Basis Set:
  @DF-RHF Final Energy:  -348.22350584197744
    Total Energy =                       -348.2235058419773281
  Basis Set: CC-PVTZ
  Basis Set:
  Basis Set: CC-PVTZ
  Basis Set:
  @DF-RHF Final Energy:  -348.22350722384601
    Total Energy =                       -348.2235072238460134
  Basis Set: CC-PVTZ
  Basis Set:
  Basis Set: CC-PVTZ
  Basis Set:
  @DF-RHF Final Energy:  -348.22350905488332
    Total Energy =                       -348.2235090548834933
  Basis Set: CC-PVTZ
  Basis Set:
  Charge       = 0
  Multiplicity = 1
  Basis Set: CC-PVTZ
  Basis Set:

    Orbital Energies (a.u.)
    -----------------------

    Doubly Occupied:

       1A    -20.536743     2A    -11.319274     3A    -11.227977
       4A    -11.227382     5A    -11.226895     6A    -11.220617
       7A    -11.219046     8A    -11.209458     9A     -1.396853
      10A     -1.097365    11A     -1.045733    12A     -1.000263
      13A     -0.938898    14A     -0.858646    15A     -0.787239
      16A     -0.734269    17A     -0.664359    18A     -0.646476
      19A     -0.628082    20A     -0.622472    21A     -0.598308
      22A     -0.584505    23A     -0.564103    24A     -0.540970
      25A     -0.536139    26A     -0.520762    27A     -0.499501
      28A     -0.490510    29A     -0.471698    30A     -0.464844
      31A     -0.462255    32A     -0.398506

  @DF-RHF Final Energy:  -348.22350896250532

   => Energetics <=

    Nuclear Repulsion Energy =            373.6303482384125800
    One-Electron Energy =               -1212.2274180534291190
    Two-Electron Energy =                 490.3735608525116731
    DFT Exchange-Correlation Energy =       0.0000000000000000
    Empirical Dispersion Energy =           0.0000000000000000
    PCM Polarization Energy =               0.0000000000000000
    EFP Energy =                            0.0000000000000000
    Total Energy =                       -348.2235089625048658
    Molecular point group: c1
  Basis Set: CC-PVTZ
  Basis Set:

  -Total Gradient:
     Atom            X                  Y                   Z
    ------   -----------------  -----------------  -----------------
       1        0.000010068277     0.000019328220     0.000011696158
       2       -0.000020419605    -0.000003232897    -0.000032225002
       3       -0.000026154249     0.000110671558     0.000041463017
       4       -0.000001645535    -0.000001376594     0.000001924959
       5       -0.000012613825    -0.000085009039     0.000033521862
       6        0.000040603088    -0.000081900959    -0.000032917115
       7       -0.000003501962    -0.000002832000     0.000003458100
       8        0.000015093263     0.000060767345    -0.000049664084
       9       -0.000019252726    -0.000011773541     0.000008418478
      10       -0.000006682227    -0.000007766193     0.000000561082
      11       -0.000014385115     0.000010120359     0.000016630240
      12       -0.000009005511     0.000002168252    -0.000006664634
      13        0.000015203977    -0.000001702867    -0.000002707141
      14        0.000014710199    -0.000003383033    -0.000003653503
      15        0.000003164160    -0.000002881547     0.000003991917
      16       -0.000006171892     0.000004553343     0.000005280519
      17       -0.000005695289     0.000004477138    -0.000004436883
      18        0.000006984050    -0.000000059756    -0.000006681885
      19        0.000014073791    -0.000008270957     0.000005813668
      20        0.000001823599    -0.000003357049     0.000003192146
      21        0.000001656204     0.000000085784     0.000001932572
      22        0.000002147323     0.000001374435     0.000001065530

  **** Optimization is complete! (in 5 steps) ****
    Final optimized geometry and variables:
    Molecular point group: c1

    Geometry (in Angstrom), charge = 0, multiplicity = 1:

    O           -2.368601923397     1.342608081423    -0.354278723837
    C           -2.103942217222     0.210087012795    -0.112012485023
    C           -0.882864671247    -0.454124539189    -0.716536670057
    C           -2.954121850894    -0.619599873571     0.820402573887
    C            0.375793597234    -0.144552248394     0.103744136210
    H           -0.764723196622    -0.070351718043    -1.721920176571
    H           -1.029239950299    -1.527410971511    -0.776209592184
    C            1.629418662472    -0.776598303628    -0.497456675134
    H            0.485500950414     0.930878755982     0.164553477227
    H            0.247699883807    -0.504496324705     1.121717270697
    C            2.906564596112    -0.552285132922     0.313949261135
    H            1.772949805639    -0.394672091402    -1.505156254742
    H            1.467284183708    -1.846290120450    -0.597885234327
    C            3.375076094087     0.899403511403     0.376936511719
    H            3.697203056292    -1.154802311471    -0.122127348405
    H            2.761320640190    -0.929315468379     1.322949806129
    H            3.522285273129     1.304304099438    -0.619043397895
    H            4.318048831225     0.974890957224     0.905949626691
    H            2.663303741678     1.534760053600     0.889740190120
    H           -3.447575683644    -1.401513018544     0.251996062274
    H           -3.696262952564     0.001100390419     1.298416914079
    H           -2.338880886433    -1.107161475527     1.568288258776

  Mulliken Charges: (a.u.)
   Center  Symbol    Alpha    Beta     Spin     Total
       1     O     4.17782  4.17782  0.00000 -0.35564
       2     C     2.85847  2.85847  0.00000  0.28305
       3     C     3.09709  3.09709  0.00000 -0.19417
       4     C     3.15526  3.15526  0.00000 -0.31052
       5     C     3.10432  3.10432  0.00000 -0.20863
       6     H     0.43905  0.43905  0.00000  0.12190
       7     H     0.44859  0.44859  0.00000  0.10282
       8     C     3.09661  3.09661  0.00000 -0.19322
       9     H     0.43860  0.43860  0.00000  0.12279
      10     H     0.45223  0.45223  0.00000  0.09555
      11     C     3.09077  3.09077  0.00000 -0.18154
      12     H     0.45082  0.45082  0.00000  0.09837
      13     H     0.44885  0.44885  0.00000  0.10231
      14     C     3.15171  3.15171  0.00000 -0.30342
      15     H     0.44763  0.44763  0.00000  0.10475
      16     H     0.45468  0.45468  0.00000  0.09065
      17     H     0.45377  0.45377  0.00000  0.09247
      18     H     0.44620  0.44620  0.00000  0.10761
      19     H     0.45240  0.45240  0.00000  0.09520
      20     H     0.44835  0.44835  0.00000  0.10330
      21     H     0.43606  0.43606  0.00000  0.12787
      22     H     0.45074  0.45074  0.00000  0.09851

   Total alpha = 32.00000, Total beta = 32.00000, Total charge = -0.00000

*** Psi4 exiting successfully. Buy a developer a beer!
