  ==> Input File <==

--------------------------------------------------------------------------
set {
	reference rhf
	basis cc-pvtz
}

set_num_threads( 4 )
memory 2 gb

molecule MOL {
0 1

O	 -1.278239	 1.034789	 -0.784693
C	 -1.204115	 0.062668	 -0.112312
C	 -2.386398	 -0.667698	 0.460323
O	 -0.068058	 -0.518372	 0.226882
H	 -2.382952	 -1.693172	 0.114333
H	 -3.296656	 -0.175702	 0.158400
H	 -2.312537	 -0.685191	 1.540100
C	 1.169086	 0.037484	 -0.230612
C	 0.997594	 0.289227	 -1.715310
C	 2.309214	 -0.914751	 0.082378
H	 1.324910	 0.971117	 0.288172
H	 0.173139	 0.967079	 -1.895704
H	 1.899111	 0.730173	 -2.123409
H	 0.800328	 -0.637031	 -2.241682
H	 3.245173	 -0.500919	 -0.274306
H	 2.394856	 -1.074097	 1.148175
H	 2.150671	 -1.870263	 -0.404597

	symmetry c1
}
set optking {
	frozen_dihedral = ("
		11 8 4 2
	")
}

ee = optimize('scf')
oeprop('DIPOLE', 'QUADRUPOLE', 'MULLIKEN_CHARGES')
f=open( 'psi4out.xyz', 'w' )
f.write( "17  " )
f.write( str(ee) + "\n" )
f.write( MOL.save_string_xyz() )
f.close()
--------------------------------------------------------------------------

    Molecular point group: c1
  Charge       = 0
  Multiplicity = 1
  Basis Set: CC-PVTZ
  Basis Set:
  @DF-RHF Final Energy:  -345.02431435068263
    Total Energy =                       -345.0243143506828574
    Molecular point group: c1
  Basis Set: CC-PVTZ
  Basis Set:
  Basis Set: CC-PVTZ
  Basis Set:
  @DF-RHF Final Energy:  -345.03717963456785
    Total Energy =                       -345.0371796345679059
  Basis Set: CC-PVTZ
  Basis Set:
  Basis Set: CC-PVTZ
  Basis Set:
  @DF-RHF Final Energy:  -345.03898905432646
    Total Energy =                       -345.0389890543267484
  Basis Set: CC-PVTZ
  Basis Set:
  Basis Set: CC-PVTZ
  Basis Set:
  @DF-RHF Final Energy:  -345.03588019935216
    Total Energy =                       -345.0358801993522206
  Basis Set: CC-PVTZ
  Basis Set:
  @DF-RHF Final Energy:  -345.03937445958383
    Total Energy =                       -345.0393744595834278
  @DF-RHF Final Energy:  -345.03943750975799
    Total Energy =                       -345.0394375097577608
  @DF-RHF Final Energy:  -345.03944430769673
    Total Energy =                       -345.0394443076968400
  @DF-RHF Final Energy:  -345.03944625628685
    Total Energy =                       -345.0394462562868512
  @DF-RHF Final Energy:  -345.03944812610143
    Total Energy =                       -345.0394481261015471
  @DF-RHF Final Energy:  -345.03944957818305
    Total Energy =                       -345.0394495781827118
  @DF-RHF Final Energy:  -345.03230330837488
    Total Energy =                       -345.0323033083747646
  @DF-RHF Final Energy:  -344.98251276279854
    Total Energy =                       -344.9825127627990469
  @DF-RHF Final Energy:  -344.94415851564412
    Total Energy =                       -344.9441585156444603
  @DF-RHF Final Energy:  -345.01454548310443
    Total Energy =                       -345.0145454831044844
  @DF-RHF Final Energy:  -345.03355939495060
    Total Energy =                       -345.0335593949506006
  @DF-RHF Final Energy:  -345.03810317119706
    Total Energy =                       -345.0381031711969513
  @DF-RHF Final Energy:  -345.03904044839555
    Total Energy =                       -345.0390404483953262
  @DF-RHF Final Energy:  -345.03931956128031
    Total Energy =                       -345.0393195612803652
  @DF-RHF Final Energy:  -345.03939621699777
    Total Energy =                       -345.0393962169986253
  @DF-RHF Final Energy:  -345.03941979696617
    Total Energy =                       -345.0394197969656034
  @DF-RHF Final Energy:  -345.03942831823855
    Total Energy =                       -345.0394283182384925
  @DF-RHF Final Energy:  -345.03943217006378
    Total Energy =                       -345.0394321700637192
  @DF-RHF Final Energy:  -345.03321047679515
    Total Energy =                       -345.0332104767950341
  @DF-RHF Final Energy:  -345.00181576072492
    Total Energy =                       -345.0018157607251510
  @DF-RHF Final Energy:  -345.03268959426885
    Total Energy =                       -345.0326895942694136
  @DF-RHF Final Energy:  -345.03845048679597
    Total Energy =                       -345.0384504867955684
  @DF-RHF Final Energy:  -345.03923884735167
    Total Energy =                       -345.0392388473517826
  @DF-RHF Final Energy:  -345.03937261421925
    Total Energy =                       -345.0393726142194737
  Basis Set: CC-PVTZ
  Basis Set:
  @DF-RHF Final Energy:  -345.03940625862134
    Total Energy =                       -345.0394062586212272
  Basis Set: CC-PVTZ
  Basis Set:
  Basis Set: CC-PVTZ
  Basis Set:
  @DF-RHF Final Energy:  -345.03943127849402
    Total Energy =                       -345.0394312784939643
  Basis Set: CC-PVTZ
  Basis Set:
  Basis Set: CC-PVTZ
  Basis Set:
  @DF-RHF Final Energy:  -345.03943939481326
    Total Energy =                       -345.0394393948136553
  Basis Set: CC-PVTZ
  Basis Set:
  Charge       = 0
  Multiplicity = 1
  Basis Set: CC-PVTZ
  Basis Set:

    Orbital Energies (a.u.)
    -----------------------

    Doubly Occupied:

       1A    -20.590696     2A    -20.530895     3A    -11.366514
       4A    -11.292009     5A    -11.229933     6A    -11.217222
       7A    -11.211976     8A     -1.466778     9A     -1.364639
      10A     -1.080218    11A     -1.005142    12A     -0.947526
      13A     -0.854625    14A     -0.757761    15A     -0.694185
      16A     -0.679021    17A     -0.661008    18A     -0.616814
      19A     -0.586506    20A     -0.579194    21A     -0.554334
      22A     -0.550352    23A     -0.541832    24A     -0.520223
      25A     -0.502847    26A     -0.484800    27A     -0.451325
      28A     -0.435266

  @DF-RHF Final Energy:  -345.03944047023469

   => Energetics <=

    Nuclear Repulsion Energy =            324.4147972127424282
    One-Electron Energy =               -1113.3611928699201599
    Two-Electron Energy =                 443.9069551869429802
    DFT Exchange-Correlation Energy =       0.0000000000000000
    Empirical Dispersion Energy =           0.0000000000000000
    PCM Polarization Energy =               0.0000000000000000
    EFP Energy =                            0.0000000000000000
    Total Energy =                       -345.0394404702347515
    Molecular point group: c1
  Basis Set: CC-PVTZ
  Basis Set:

  -Total Gradient:
     Atom            X                  Y                   Z
    ------   -----------------  -----------------  -----------------
       1        0.000043661387     0.000017902130     0.000020290982
       2       -0.000518979759    -0.003279027592    -0.004620997665
       3       -0.000008435702     0.000006013567     0.000003620952
       4        0.001668771696     0.004140368121     0.007835956286
       5       -0.000004932164    -0.000001149366     0.000002052767
       6       -0.000001410079    -0.000003309416    -0.000000490024
       7       -0.000004722995    -0.000008425518     0.000004821581
       8       -0.004254000601     0.001984590374    -0.007543471975
       9       -0.000122785304    -0.000002592204    -0.000031357710
      10        0.000003798722     0.000100147290     0.000030672256
      11        0.003154726335    -0.002937365029     0.004286233562
      12        0.000081904476     0.000048692836     0.000006982948
      13        0.000035058638    -0.000074775675    -0.000014712380
      14       -0.000067604437     0.000013835644     0.000011801133
      15       -0.000005713492     0.000029754614     0.000056623492
      16       -0.000039304386    -0.000055093080    -0.000001196419
      17        0.000039967662     0.000020433307    -0.000046829788

  **** Optimization is complete! (in 32 steps) ****
    Final optimized geometry and variables:
    Molecular point group: c1

    Geometry (in Angstrom), charge = 0, multiplicity = 1:

    O           -1.302551358236     1.232604286837    -0.271816114156
    C           -1.155916348243     0.183030239400     0.255782447992
    C           -2.281797600113    -0.675118259540     0.762792597597
    O            0.015865023560    -0.373998640369     0.498182547555
    H           -2.289052097513    -1.614482684262     0.224390837888
    H           -3.219225716505    -0.162001335459     0.622174706582
    H           -2.129096975548    -0.898569047372     1.810391215004
    C            1.229930593017     0.158556599996    -0.045871734463
    C            1.190708814685     0.328512057461    -1.554507602251
    C            2.303646774525    -0.827783600609     0.381952123156
    H            1.426463594205     1.097664661519     0.455886530955
    H            0.511685069777     1.106024164223    -1.860414750831
    H            2.185640465938     0.579309593340    -1.903074516579
    H            0.896900039472    -0.602951777057    -2.026803829916
    H            3.281893363605    -0.456110792358     0.102465540173
    H            2.283785403517    -0.969404995348     1.454672382268
    H            2.152657531723    -1.790130260247    -0.092682157596

  Mulliken Charges: (a.u.)
   Center  Symbol    Alpha    Beta     Spin     Total
       1     O     4.19969  4.19969  0.00000 -0.39937
       2     C     2.80645  2.80645  0.00000  0.38709
       3     C     3.13796  3.13796  0.00000 -0.27592
       4     O     4.16083  4.16083  0.00000 -0.32165
       5     H     0.44734  0.44734  0.00000  0.10532
       6     H     0.43843  0.43843  0.00000  0.12315
       7     H     0.44491  0.44491  0.00000  0.11017
       8     C     2.92803  2.92803  0.00000  0.14394
       9     C     3.16422  3.16422  0.00000 -0.32844
      10     C     3.13893  3.13893  0.00000 -0.27786
      11     H     0.44832  0.44832  0.00000  0.10336
      12     H     0.42747  0.42747  0.00000  0.14506
      13     H     0.44931  0.44931  0.00000  0.10138
      14     H     0.45377  0.45377  0.00000  0.09245
      15     H     0.45498  0.45498  0.00000  0.09004
      16     H     0.44621  0.44621  0.00000  0.10758
      17     H     0.45315  0.45315  0.00000  0.09369

   Total alpha = 28.00000, Total beta = 28.00000, Total charge =  0.00000
