  ==> Input File <==

--------------------------------------------------------------------------
set {
	reference rhf
	basis 6-31G*
}

set_num_threads( 1 )
memory 2 gb

molecule MOL {
0 1

O	 1.846825	 1.296220	 0.000415
C	 1.705091	 0.115954	 0.001797
C	 0.381791	 -0.609817	 0.001258
O	 2.721346	 -0.737485	 -0.000216
C	 -0.823008	 0.326187	 0.001381
H	 0.371250	 -1.265087	 -0.865474
H	 0.370908	 -1.265746	 0.867490
C	 -1.671179	 0.180323	 1.265656
H	 -1.430705	 0.126915	 -0.875650
H	 -0.479515	 1.351257	 -0.096357
C	 -2.884679	 1.111456	 1.282072
H	 -2.009589	 -0.850501	 1.359877
H	 -1.055588	 0.379052	 2.141690
C	 -3.731080	 0.966127	 2.546088
H	 -3.502019	 0.912427	 0.408906
H	 -2.548203	 2.141622	 1.188911
H	 -4.111461	 -0.046226	 2.649366
H	 -4.582896	 1.638836	 2.528106
H	 -3.149876	 1.192314	 3.435667
C	 4.024888	 -0.184556	 -0.001949
H	 4.179030	 0.422472	 -0.882452
H	 4.701782	 -1.024608	 -0.003642
H	 4.181981	 0.421185	 0.878906

	symmetry c1
}
set optking {
	frozen_dihedral = ("
		15 11 8 12,
		9 5 8 12,
		1 2 3 6,
		1 2 4 20
	")
}

ee = energy('scf')
oeprop('DIPOLE', 'QUADRUPOLE', 'MULLIKEN_CHARGES')
f=open( 'psi4out.xyz', 'w' )
f.write( "23  " )
f.write( str(ee) + "\n" )
f.write( MOL.save_string_xyz() )
f.close()
--------------------------------------------------------------------------

    Molecular point group: c1

    Geometry (in Angstrom), charge = 0, multiplicity = 1:

       Center              X                  Y                   Z               Mass
    ------------   -----------------  -----------------  -----------------  -----------------
           O          1.631961877374     1.019729314955    -0.568333426323    15.994914619560
           C          1.490227877374    -0.160536685045    -0.566951426323    12.000000000000
           C          0.166927877374    -0.886307685045    -0.567490426323    12.000000000000
           O          2.506482877374    -1.013975685045    -0.568964426323    15.994914619560
           C         -1.037871122626     0.049696314955    -0.567367426323    12.000000000000
           H          0.156386877374    -1.541577685045    -1.434222426323     1.007825032070
           H          0.156044877374    -1.542236685045     0.298741573677     1.007825032070
           C         -1.886042122626    -0.096167685045     0.696907573677    12.000000000000
           H         -1.645568122626    -0.149575685045    -1.444398426323     1.007825032070
           H         -0.694378122626     1.074766314955    -0.665105426323     1.007825032070
           C         -3.099542122626     0.834965314955     0.713323573677    12.000000000000
           H         -2.224452122626    -1.126991685045     0.791128573677     1.007825032070
           H         -1.270451122626     0.102561314955     1.572941573677     1.007825032070
           C         -3.945943122626     0.689636314955     1.977339573677    12.000000000000
           H         -3.716882122626     0.635936314955    -0.159842426323     1.007825032070
           H         -2.763066122626     1.865131314955     0.620162573677     1.007825032070
           H         -4.326324122626    -0.322716685045     2.080617573677     1.007825032070
           H         -4.797759122626     1.362345314955     1.959357573677     1.007825032070
           H         -3.364739122626     0.915823314955     2.866918573677     1.007825032070
           C          3.810024877374    -0.461046685045    -0.570697426323    12.000000000000
           H          3.964166877374     0.145981314955    -1.451200426323     1.007825032070
           H          4.486918877374    -1.301098685045    -0.572390426323     1.007825032070
           H          3.967117877374     0.144694314955     0.310157573677     1.007825032070

  Charge       = 0
  Multiplicity = 1
  Basis Set: 6-31G*
  Basis Set:

    Orbital Energies (a.u.)
    -----------------------

    Doubly Occupied:

       1A    -20.604397     2A    -20.546464     3A    -11.373016
       4A    -11.281252     5A    -11.233992     6A    -11.215899
       7A    -11.214771     8A    -11.214149     9A    -11.207946
      10A     -1.470133    11A     -1.363966    12A     -1.091709
      13A     -1.042284    14A     -0.986479    15A     -0.930792
      16A     -0.843009    17A     -0.794710    18A     -0.766682
      19A     -0.703201    20A     -0.681200    21A     -0.672834
      22A     -0.642280    23A     -0.612774    24A     -0.599876
      25A     -0.569840    26A     -0.556525    27A     -0.554411
      28A     -0.529428    29A     -0.523473    30A     -0.500502
      31A     -0.485430    32A     -0.468366    33A     -0.461889
      34A     -0.457746    35A     -0.452665    36A     -0.439004

  @DF-RHF Final Energy:  -422.97148877806387

   => Energetics <=

    Nuclear Repulsion Energy =            456.3099438721933439
    One-Electron Energy =               -1480.3764458023956649
    Two-Electron Energy =                 601.0950131521381081
    DFT Exchange-Correlation Energy =       0.0000000000000000
    Empirical Dispersion Energy =           0.0000000000000000
    PCM Polarization Energy =               0.0000000000000000
    EFP Energy =                            0.0000000000000000
    Total Energy =                       -422.9714887780642130

  Mulliken Charges: (a.u.)
   Center  Symbol    Alpha    Beta     Spin     Total
       1     O     4.28474  4.28474  0.00000 -0.56948
       2     C     2.61091  2.61091  0.00000  0.77818
       3     C     3.21089  3.21089  0.00000 -0.42178
       4     O     4.30583  4.30583  0.00000 -0.61166
       5     C     3.16297  3.16297  0.00000 -0.32593
       6     H     0.39729  0.39729  0.00000  0.20542
       7     H     0.39761  0.39761  0.00000  0.20478
       8     C     3.15527  3.15527  0.00000 -0.31054
       9     H     0.41938  0.41938  0.00000  0.16125
      10     H     0.39264  0.39264  0.00000  0.21472
      11     C     3.15256  3.15256  0.00000 -0.30513
      12     H     0.42469  0.42469  0.00000  0.15062
      13     H     0.42142  0.42142  0.00000  0.15716
      14     C     3.23951  3.23951  0.00000 -0.47901
      15     H     0.42313  0.42313  0.00000  0.15374
      16     H     0.41971  0.41971  0.00000  0.16058
      17     H     0.42245  0.42245  0.00000  0.15510
      18     H     0.41899  0.41899  0.00000  0.16203
      19     H     0.42132  0.42132  0.00000  0.15736
      20     C     3.09226  3.09226  0.00000 -0.18452
      21     H     0.40897  0.40897  0.00000  0.18205
      22     H     0.40839  0.40839  0.00000  0.18323
      23     H     0.40909  0.40909  0.00000  0.18183

   Total alpha = 36.00000, Total beta = 36.00000, Total charge = -0.00000
