  ==> Input File <==

--------------------------------------------------------------------------
set {
	reference rhf
	basis 6-31G*
}

set_num_threads( 1 )
memory 2 gb

molecule MOL {
0 1

H	 -1.644252	 2.561401	 -2.164369
C	 -0.710466	 2.795994	 -1.638411
C	 -0.740047	 2.557400	 -0.150188
O	 0.227650	 3.206279	 -2.241201
C	 -1.220012	 1.144545	 0.209990
H	 0.248266	 2.756174	 0.247853
H	 -1.425394	 3.288269	 0.277346
C	 -0.252658	 0.041456	 -0.226725
H	 -1.363376	 1.093739	 1.285234
H	 -2.199001	 0.971378	 -0.234251
C	 1.180775	 0.282413	 0.250794
H	 -0.266029	 -0.034465	 -1.312038
H	 -0.597733	 -0.921000	 0.146291
C	 2.148627	 -0.814315	 -0.201312
H	 1.516199	 1.249228	 -0.115937
H	 1.192670	 0.346017	 1.338083
C	 3.580890	 -0.659131	 0.322722
H	 2.166869	 -0.852443	 -1.289387
H	 1.762857	 -1.776509	 0.128956
C	 4.324889	 0.564933	 -0.213704
H	 4.142010	 -1.551473	 0.056605
H	 3.564836	 -0.624694	 1.410140
H	 4.342616	 0.565491	 -1.300421
H	 3.866655	 1.493402	 0.110242
H	 5.353900	 0.572371	 0.132816

	symmetry c1
}
set optking {
	frozen_dihedral = ("
		6 3 5 8,
		6 3 2 4,
		12 8 11 14,
		8 11 14 18,
		20 17 14 18
	")
}

ee = energy('scf')
oeprop('DIPOLE', 'QUADRUPOLE', 'MULLIKEN_CHARGES')
f=open( 'psi4out.xyz', 'w' )
f.write( "25  " )
f.write( str(ee) + "\n" )
f.write( MOL.save_string_xyz() )
f.close()
--------------------------------------------------------------------------

    Molecular point group: c1

    Geometry (in Angstrom), charge = 0, multiplicity = 1:

       Center              X                  Y                   Z               Mass
    ------------   -----------------  -----------------  -----------------  -----------------
           H         -2.613717137460     1.535394419056    -1.720233418152     1.007825032070
           C         -1.679931137460     1.769987419056    -1.194275418152    12.000000000000
           C         -1.709512137460     1.531393419056     0.293947581848    12.000000000000
           O         -0.741815137460     2.180272419056    -1.797065418152    15.994914619560
           C         -2.189477137460     0.118538419056     0.654125581848    12.000000000000
           H         -0.721199137460     1.730167419056     0.691988581848     1.007825032070
           H         -2.394859137460     2.262262419056     0.721481581848     1.007825032070
           C         -1.222123137460    -0.984550580944     0.217410581848    12.000000000000
           H         -2.332841137460     0.067732419056     1.729369581848     1.007825032070
           H         -3.168466137460    -0.054628580944     0.209884581848     1.007825032070
           C          0.211309862540    -0.743593580944     0.694929581848    12.000000000000
           H         -1.235494137460    -1.060471580944    -0.867902418152     1.007825032070
           H         -1.567198137460    -1.947006580944     0.590426581848     1.007825032070
           C          1.179161862540    -1.840321580944     0.242823581848    12.000000000000
           H          0.546733862540     0.223221419056     0.328198581848     1.007825032070
           H          0.223204862540    -0.679989580944     1.782218581848     1.007825032070
           C          2.611424862540    -1.685137580944     0.766857581848    12.000000000000
           H          1.197403862540    -1.878449580944    -0.845251418152     1.007825032070
           H          0.793391862540    -2.802515580944     0.573091581848     1.007825032070
           C          3.355423862540    -0.461073580944     0.230431581848    12.000000000000
           H          3.172544862540    -2.577479580944     0.500740581848     1.007825032070
           H          2.595370862540    -1.650700580944     1.854275581848     1.007825032070
           H          3.373150862540    -0.460515580944    -0.856285418152     1.007825032070
           H          2.897189862540     0.467395419056     0.554377581848     1.007825032070
           H          4.384434862540    -0.453635580944     0.576951581848     1.007825032070

  Charge       = 0
  Multiplicity = 1
  Basis Set: 6-31G*
  Basis Set:

    Orbital Energies (a.u.)
    -----------------------

    Doubly Occupied:

       1A    -20.563236     2A    -11.326927     3A    -11.235056
       4A    -11.233893     5A    -11.223453     6A    -11.215843
       7A    -11.214500     8A    -11.213848     9A    -11.205246
      10A     -1.403160    11A     -1.105251    12A     -1.065822
      13A     -1.007660    14A     -0.942477    15A     -0.877667
      16A     -0.820826    17A     -0.787497    18A     -0.771290
      19A     -0.666367    20A     -0.657736    21A     -0.640360
      22A     -0.614970    23A     -0.607624    24A     -0.595776
      25A     -0.565905    26A     -0.547195    27A     -0.540542
      28A     -0.519441    29A     -0.514636    30A     -0.497466
      31A     -0.479340    32A     -0.476236    33A     -0.461035
      34A     -0.451905    35A     -0.442228    36A     -0.409656

  @DF-RHF Final Energy:  -387.11859268440912

   => Energetics <=

    Nuclear Repulsion Energy =            456.0244518042202344
    One-Electron Energy =               -1428.4820501855956536
    Two-Electron Energy =                 585.3390056969674333
    DFT Exchange-Correlation Energy =       0.0000000000000000
    Empirical Dispersion Energy =           0.0000000000000000
    PCM Polarization Energy =               0.0000000000000000
    EFP Energy =                            0.0000000000000000
    Total Energy =                       -387.1185926844079859

  Mulliken Charges: (a.u.)
   Center  Symbol    Alpha    Beta     Spin     Total
       1     H     0.43186  0.43186  0.00000  0.13628
       2     C     2.82984  2.82984  0.00000  0.34032
       3     C     3.21537  3.21537  0.00000 -0.43074
       4     O     4.23880  4.23880  0.00000 -0.47760
       5     C     3.16562  3.16562  0.00000 -0.33124
       6     H     0.39661  0.39661  0.00000  0.20679
       7     H     0.40546  0.40546  0.00000  0.18909
       8     C     3.15677  3.15677  0.00000 -0.31354
       9     H     0.41288  0.41288  0.00000  0.17424
      10     H     0.41749  0.41749  0.00000  0.16502
      11     C     3.16081  3.16081  0.00000 -0.32162
      12     H     0.42005  0.42005  0.00000  0.15990
      13     H     0.41739  0.41739  0.00000  0.16521
      14     C     3.15173  3.15173  0.00000 -0.30347
      15     H     0.41148  0.41148  0.00000  0.17704
      16     H     0.42476  0.42476  0.00000  0.15048
      17     C     3.15271  3.15271  0.00000 -0.30543
      18     H     0.42162  0.42162  0.00000  0.15677
      19     H     0.42352  0.42352  0.00000  0.15296
      20     C     3.24110  3.24110  0.00000 -0.48221
      21     H     0.42097  0.42097  0.00000  0.15806
      22     H     0.42425  0.42425  0.00000  0.15150
      23     H     0.41981  0.41981  0.00000  0.16039
      24     H     0.41930  0.41930  0.00000  0.16140
      25     H     0.41980  0.41980  0.00000  0.16040

   Total alpha = 36.00000, Total beta = 36.00000, Total charge =  0.00000
