  ==> Input File <==

--------------------------------------------------------------------------
set {
	reference rhf
	basis 6-31G*
}

set_num_threads( 1 )
memory 2 gb

molecule MOL {
0 1

H	 -3.261111	 -0.295142	 1.469456
C	 -3.306842	 -0.277400	 0.373456
C	 -2.660244	 0.921717	 -0.272021
O	 -3.838538	 -1.161155	 -0.216482
C	 -1.220012	 1.144545	 0.209990
H	 -2.705793	 0.797307	 -1.347733
H	 -3.263782	 1.790044	 -0.010477
C	 -0.252658	 0.041456	 -0.226725
H	 -0.873521	 2.100229	 -0.171974
H	 -1.211708	 1.231594	 1.295398
C	 1.180775	 0.282413	 0.250794
H	 -0.266029	 -0.034465	 -1.312038
H	 -0.597733	 -0.921000	 0.146291
C	 2.148627	 -0.814315	 -0.201312
H	 1.516199	 1.249228	 -0.115937
H	 1.192670	 0.346017	 1.338083
C	 3.580890	 -0.659131	 0.322722
H	 2.166869	 -0.852443	 -1.289387
H	 1.762857	 -1.776509	 0.128956
C	 3.694875	 0.099387	 1.646081
H	 4.166507	 -0.136356	 -0.429413
H	 4.033938	 -1.642633	 0.429459
H	 3.235118	 1.081555	 1.573711
H	 3.214924	 -0.431369	 2.461507
H	 4.735954	 0.242043	 1.919574

	symmetry c1
}
set optking {
	frozen_dihedral = ("
		6 3 5 8,
		6 3 2 4,
		3 5 8 12,
		12 8 11 14,
		8 11 14 18
	")
}

ee = energy('scf')
oeprop('DIPOLE', 'QUADRUPOLE', 'MULLIKEN_CHARGES')
f=open( 'psi4out.xyz', 'w' )
f.write( "25  " )
f.write( str(ee) + "\n" )
f.write( MOL.save_string_xyz() )
f.close()
--------------------------------------------------------------------------

    Molecular point group: c1

    Geometry (in Angstrom), charge = 0, multiplicity = 1:

       Center              X                  Y                   Z               Mass
    ------------   -----------------  -----------------  -----------------  -----------------
           H         -3.187286088229    -0.240982611310     1.251642396654     1.007825032070
           C         -3.233017088229    -0.223240611310     0.155642396654    12.000000000000
           C         -2.586419088229     0.975876388690    -0.489834603346    12.000000000000
           O         -3.764713088229    -1.106995611310    -0.434295603346    15.994914619560
           C         -1.146187088229     1.198704388690    -0.007823603346    12.000000000000
           H         -2.631968088229     0.851466388690    -1.565546603346     1.007825032070
           H         -3.189957088229     1.844203388690    -0.228290603346     1.007825032070
           C         -0.178833088229     0.095615388690    -0.444538603346    12.000000000000
           H         -0.799696088229     2.154388388690    -0.389787603346     1.007825032070
           H         -1.137883088229     1.285753388690     1.077584396654     1.007825032070
           C          1.254599911771     0.336572388690     0.032980396654    12.000000000000
           H         -0.192204088229     0.019694388690    -1.529851603346     1.007825032070
           H         -0.523908088229    -0.866840611310    -0.071522603346     1.007825032070
           C          2.222451911771    -0.760155611310    -0.419125603346    12.000000000000
           H          1.590023911771     1.303387388690    -0.333750603346     1.007825032070
           H          1.266494911771     0.400176388690     1.120269396654     1.007825032070
           C          3.654714911771    -0.604971611310     0.104908396654    12.000000000000
           H          2.240693911771    -0.798283611310    -1.507200603346     1.007825032070
           H          1.836681911771    -1.722349611310    -0.088857603346     1.007825032070
           C          3.768699911771     0.153546388690     1.428267396654    12.000000000000
           H          4.240331911771    -0.082196611310    -0.647226603346     1.007825032070
           H          4.107762911771    -1.588473611310     0.211645396654     1.007825032070
           H          3.308942911771     1.135714388690     1.355897396654     1.007825032070
           H          3.288748911771    -0.377209611310     2.243693396654     1.007825032070
           H          4.809778911771     0.296202388690     1.701760396654     1.007825032070

  Charge       = 0
  Multiplicity = 1
  Basis Set: 6-31G*
  Basis Set:

    Orbital Energies (a.u.)
    -----------------------

    Doubly Occupied:

       1A    -20.561900     2A    -11.326042     3A    -11.235145
       4A    -11.234483     5A    -11.223382     6A    -11.219404
       7A    -11.217230     8A    -11.216216     9A    -11.210461
      10A     -1.401878    11A     -1.104368    12A     -1.070580
      13A     -1.011492    14A     -0.941011    15A     -0.879985
      16A     -0.823590    17A     -0.787790    18A     -0.773343
      19A     -0.664042    20A     -0.663948    21A     -0.637188
      22A     -0.624061    23A     -0.608233    24A     -0.587326
      25A     -0.569519    26A     -0.561066    27A     -0.529241
      28A     -0.522805    29A     -0.514872    30A     -0.495457
      31A     -0.490497    32A     -0.480145    33A     -0.461596
      34A     -0.452525    35A     -0.442763    36A     -0.409432

  @DF-RHF Final Energy:  -387.11555817576590

   => Energetics <=

    Nuclear Repulsion Energy =            442.0702756477716662
    One-Electron Energy =               -1400.4656298658601372
    Two-Electron Energy =                 571.2797960423231416
    DFT Exchange-Correlation Energy =       0.0000000000000000
    Empirical Dispersion Energy =           0.0000000000000000
    PCM Polarization Energy =               0.0000000000000000
    EFP Energy =                            0.0000000000000000
    Total Energy =                       -387.1155581757652726

  Mulliken Charges: (a.u.)
   Center  Symbol    Alpha    Beta     Spin     Total
       1     H     0.43264  0.43264  0.00000  0.13472
       2     C     2.83083  2.83083  0.00000  0.33835
       3     C     3.20809  3.20809  0.00000 -0.41618
       4     O     4.23777  4.23777  0.00000 -0.47555
       5     C     3.16656  3.16656  0.00000 -0.33311
       6     H     0.39969  0.39969  0.00000  0.20062
       7     H     0.40674  0.40674  0.00000  0.18651
       8     C     3.15384  3.15384  0.00000 -0.30767
       9     H     0.41302  0.41302  0.00000  0.17397
      10     H     0.41973  0.41973  0.00000  0.16054
      11     C     3.15861  3.15861  0.00000 -0.31721
      12     H     0.41841  0.41841  0.00000  0.16318
      13     H     0.41845  0.41845  0.00000  0.16310
      14     C     3.15385  3.15385  0.00000 -0.30770
      15     H     0.42283  0.42283  0.00000  0.15433
      16     H     0.41891  0.41891  0.00000  0.16218
      17     C     3.15280  3.15280  0.00000 -0.30559
      18     H     0.41997  0.41997  0.00000  0.16007
      19     H     0.42182  0.42182  0.00000  0.15635
      20     C     3.24556  3.24556  0.00000 -0.49111
      21     H     0.42203  0.42203  0.00000  0.15594
      22     H     0.41923  0.41923  0.00000  0.16154
      23     H     0.41882  0.41882  0.00000  0.16237
      24     H     0.42162  0.42162  0.00000  0.15675
      25     H     0.41821  0.41821  0.00000  0.16359

   Total alpha = 36.00000, Total beta = 36.00000, Total charge =  0.00000
