  ==> Input File <==

--------------------------------------------------------------------------
set {
	reference rhf
	basis 6-31G*
}

set_num_threads( 1 )
memory 2 gb

molecule MOL {
0 1

H	 -2.800472	 -0.846503	 -0.064366
N	 -1.865166	 -0.699063	 0.261885
C	 -1.341901	 0.563708	 -0.228735
H	 -1.304650	 -1.451649	 -0.088179
C	 0.084854	 0.750415	 0.243120
H	 -1.359028	 0.653275	 -1.315789
H	 -1.947211	 1.370033	 0.174032
O	 0.874168	 -0.245412	 -0.342030
H	 0.450886	 1.735661	 -0.044886
H	 0.124298	 0.674515	 1.327518
C	 2.202317	 -0.244239	 0.074611
H	 2.711377	 -1.041390	 -0.449894
H	 2.692099	 0.699270	 -0.159667
H	 2.283185	 -0.418429	 1.145558

	symmetry c1
}
set optking {
	frozen_dihedral = ("
		8 5 3 6,
		6 3 2 4,
		11 8 5 3
	")
}

ee = energy('scf')
oeprop('DIPOLE', 'QUADRUPOLE', 'MULLIKEN_CHARGES')
f=open( 'psi4out.xyz', 'w' )
f.write( "14  " )
f.write( str(ee) + "\n" )
f.write( MOL.save_string_xyz() )
f.close()
--------------------------------------------------------------------------

    Molecular point group: c1

    Geometry (in Angstrom), charge = 0, multiplicity = 1:

       Center              X                  Y                   Z               Mass
    ------------   -----------------  -----------------  -----------------  -----------------
           H         -2.801332069571    -0.853293789693    -0.061606334181     1.007825032070
           N         -1.866026069571    -0.705853789693     0.264644665819    14.003074004780
           C         -1.342761069571     0.556917210307    -0.225975334181    12.000000000000
           H         -1.305510069571    -1.458439789693    -0.085419334181     1.007825032070
           C          0.083993930429     0.743624210307     0.245879665819    12.000000000000
           H         -1.359888069571     0.646484210307    -1.313029334181     1.007825032070
           H         -1.948071069571     1.363242210307     0.176791665819     1.007825032070
           O          0.873307930429    -0.252202789693    -0.339270334181    15.994914619560
           H          0.450025930429     1.728870210307    -0.042126334181     1.007825032070
           H          0.123437930429     0.667724210307     1.330277665819     1.007825032070
           C          2.201456930429    -0.251029789693     0.077370665819    12.000000000000
           H          2.710516930429    -1.048180789693    -0.447134334181     1.007825032070
           H          2.691238930429     0.692479210307    -0.156907334181     1.007825032070
           H          2.282324930429    -0.425219789693     1.148317665819     1.007825032070

  Charge       = 0
  Multiplicity = 1
  Basis Set: 6-31G*
  Basis Set:

    Orbital Energies (a.u.)
    -----------------------

    Doubly Occupied:

       1A    -20.557518     2A    -15.528467     3A    -11.266256
       4A    -11.265651     5A    -11.240831     6A     -1.381501
       7A     -1.173665     8A     -0.999043     9A     -0.907208
      10A     -0.815210    11A     -0.683861    12A     -0.674036
      13A     -0.645387    14A     -0.610104    15A     -0.605279
      16A     -0.540716    17A     -0.530104    18A     -0.496948
      19A     -0.472740    20A     -0.417644    21A     -0.380130

  @DF-RHF Final Energy:  -248.12526984421424

   => Energetics <=

    Nuclear Repulsion Energy =            194.6754625630921396
    One-Electron Energy =                -723.2168220474873124
    Two-Electron Energy =                 280.4160896401804735
    DFT Exchange-Correlation Energy =       0.0000000000000000
    Empirical Dispersion Energy =           0.0000000000000000
    PCM Polarization Energy =               0.0000000000000000
    EFP Energy =                            0.0000000000000000
    Total Energy =                       -248.1252698442146425

  Mulliken Charges: (a.u.)
   Center  Symbol    Alpha    Beta     Spin     Total
       1     H     0.33283  0.33283  0.00000  0.33435
       2     N     3.92525  3.92525  0.00000 -0.85049
       3     C     3.06895  3.06895  0.00000 -0.13790
       4     H     0.32373  0.32373  0.00000  0.35254
       5     C     2.99014  2.99014  0.00000  0.01972
       6     H     0.42660  0.42660  0.00000  0.14681
       7     H     0.42043  0.42043  0.00000  0.15913
       8     O     4.30967  4.30967  0.00000 -0.61934
       9     H     0.43097  0.43097  0.00000  0.13806
      10     H     0.42255  0.42255  0.00000  0.15490
      11     C     3.07904  3.07904  0.00000 -0.15808
      12     H     0.41250  0.41250  0.00000  0.17499
      13     H     0.42996  0.42996  0.00000  0.14009
      14     H     0.42738  0.42738  0.00000  0.14524

   Total alpha = 21.00000, Total beta = 21.00000, Total charge = -0.00000
