  ==> Input File <==

--------------------------------------------------------------------------
set {
	reference rhf
	basis 6-31G*
}

set_num_threads( 4 )
memory 2 gb

molecule MOL {
0 1

H	 -2.499100	 -0.730091	 -0.745082
O	 -2.347518	 -0.290803	 0.079804
C	 -1.184022	 0.487508	 -0.006784
C	 0.062599	 -0.378592	 0.031606
H	 -1.176523	 1.099369	 -0.904519
H	 -1.187323	 1.153111	 0.844927
O	 1.053234	 0.323262	 0.714120
H	 0.388280	 -0.611591	 -0.984083
H	 -0.162876	 -1.321691	 0.525882
C	 2.254507	 -0.366275	 0.857725
H	 2.691982	 -0.608958	 -0.108893
H	 2.936144	 0.274347	 1.399829
H	 2.117966	 -1.289842	 1.416449

	symmetry c1
}
set optking {
	frozen_dihedral = ("
		8 4 3 5
	")
}

ee = optimize('scf')
oeprop('DIPOLE', 'QUADRUPOLE', 'MULLIKEN_CHARGES')
f=open( 'psi4out.xyz', 'w' )
f.write( "13  " )
f.write( str(ee) + "\n" )
f.write( MOL.save_string_xyz() )
f.close()
--------------------------------------------------------------------------

    Molecular point group: c1
  Charge       = 0
  Multiplicity = 1
  Basis Set: 6-31G*
  Basis Set:
  @DF-RHF Final Energy:  -267.94604746347335
    Total Energy =                       -267.9460474634735192
    Molecular point group: c1
  Basis Set: 6-31G*
  Basis Set:
  Basis Set: 6-31G*
  Basis Set:
  @DF-RHF Final Energy:  -267.94657900363666
    Total Energy =                       -267.9465790036369981
  Basis Set: 6-31G*
  Basis Set:
  Basis Set: 6-31G*
  Basis Set:
  @DF-RHF Final Energy:  -267.94671989242022
    Total Energy =                       -267.9467198924199920
  Basis Set: 6-31G*
  Basis Set:
  Basis Set: 6-31G*
  Basis Set:
  @DF-RHF Final Energy:  -267.94672321782548
    Total Energy =                       -267.9467232178258200
  Basis Set: 6-31G*
  Basis Set:
  Charge       = 0
  Multiplicity = 1
  Basis Set: 6-31G*
  Basis Set:

    Orbital Energies (a.u.)
    -----------------------

    Doubly Occupied:

       1A    -20.560086     2A    -20.557837     3A    -11.270178
       4A    -11.269224     5A    -11.268607     6A     -1.385893
       7A     -1.362301     8A     -1.016318     9A     -0.911651
      10A     -0.841698    11A     -0.707603    12A     -0.668106
      13A     -0.662320    14A     -0.641427    15A     -0.581481
      16A     -0.572397    17A     -0.547249    18A     -0.488416
      19A     -0.480882    20A     -0.437489    21A     -0.420249

  @DF-RHF Final Energy:  -267.94672361977928

   => Energetics <=

    Nuclear Repulsion Energy =            190.0376305410713371
    One-Electron Energy =                -742.6658854863039778
    Two-Electron Energy =                 284.6815313254535340
    DFT Exchange-Correlation Energy =       0.0000000000000000
    Empirical Dispersion Energy =           0.0000000000000000
    PCM Polarization Energy =               0.0000000000000000
    EFP Energy =                            0.0000000000000000
    Total Energy =                       -267.9467236197790498
    Molecular point group: c1
  Basis Set: 6-31G*
  Basis Set:

  -Total Gradient:
     Atom            X                  Y                   Z
    ------   -----------------  -----------------  -----------------
       1        0.000005788633    -0.000009374476    -0.000009880330
       2        0.000000359947     0.000017780501     0.000016167536
       3        0.003980406412     0.005920139366     0.003307136055
       4       -0.004498141667    -0.006415047815    -0.000725152604
       5       -0.002563629282    -0.003831000478    -0.002626358341
       6       -0.000011373540    -0.000005514854    -0.000004642175
       7        0.000006857548     0.000024419475     0.000018669682
       8        0.003073810134     0.004308043453     0.000046625502
       9        0.000013685468     0.000008693803    -0.000012199006
      10        0.000000436275    -0.000028128937    -0.000018502414
      11        0.000005005938     0.000000498754     0.000000911532
      12       -0.000020585588     0.000008813054     0.000001023831
      13        0.000007379726     0.000000678155     0.000006200732

  **** Optimization is complete! (in 5 steps) ****
    Final optimized geometry and variables:
    Molecular point group: c1

    Geometry (in Angstrom), charge = 0, multiplicity = 1:

    H           -2.456301753946    -0.612402402039    -1.146238598766
    O           -2.315203207184    -0.212489415748    -0.300011966044
    C           -1.130148813378     0.545175355504    -0.322378709813
    C            0.109913829009    -0.342011393403    -0.248893981494
    H           -1.109849115097     1.156937453963    -1.219536609992
    H           -1.150080192331     1.187436870239     0.544785220799
    O            1.109928587622     0.376422410248     0.412798102903
    H            0.469106881299    -0.597486350174    -1.246189097489
    H           -0.132765269295    -1.255551062877     0.287763536453
    C            2.325130585747    -0.294384918930     0.515826597837
    H            2.740926048323    -0.519521238784    -0.464820299041
    H            3.010834662284     0.351429255255     1.046730865313
    H            2.219543221728    -1.226425806220     1.067694280002

  Mulliken Charges: (a.u.)
   Center  Symbol    Alpha    Beta     Spin     Total
       1     H     0.28220  0.28220  0.00000  0.43559
       2     O     4.37132  4.37132  0.00000 -0.74265
       3     C     3.00742  3.00742  0.00000 -0.01483
       4     C     3.00086  3.00086  0.00000 -0.00171
       5     H     0.42549  0.42549  0.00000  0.14901
       6     H     0.40131  0.40131  0.00000  0.19738
       7     O     4.30801  4.30801  0.00000 -0.61601
       8     H     0.43448  0.43448  0.00000  0.13105
       9     H     0.41942  0.41942  0.00000  0.16115
      10     C     3.08013  3.08013  0.00000 -0.16026
      11     H     0.43025  0.43025  0.00000  0.13950
      12     H     0.41088  0.41088  0.00000  0.17824
      13     H     0.42823  0.42823  0.00000  0.14353

   Total alpha = 21.00000, Total beta = 21.00000, Total charge =  0.00000
