  ==> Input File <==

--------------------------------------------------------------------------
set {
	reference rhf
	basis cc-pvtz
}

set_num_threads( 4 )
memory 2 gb

molecule MOL {
0 1

H	 3.721907	 -0.933076	 -0.066039
O	 2.824271	 -1.154299	 0.131461
C	 2.076458	 -0.067370	 -0.038225
C	 0.626018	 -0.337582	 0.258241
O	 2.538288	 0.965419	 -0.381593
C	 -0.267326	 0.883135	 0.076490
H	 0.325620	 -1.161483	 -0.378003
H	 0.574537	 -0.713685	 1.275261
C	 -1.726822	 0.642622	 0.463839
H	 -0.210803	 1.217591	 -0.953497
H	 0.129920	 1.693110	 0.675679
C	 -2.480891	 -0.340606	 -0.429852
H	 -2.243098	 1.597649	 0.438609
H	 -1.776542	 0.301208	 1.495542
C	 -2.364842	 0.002153	 -1.911582
H	 -2.096127	 -1.342845	 -0.261010
H	 -3.530939	 -0.366096	 -0.156531
H	 -2.905895	 -0.710715	 -2.522944
H	 -1.329220	 -0.003478	 -2.234311
H	 -2.768590	 0.987891	 -2.117649

	symmetry c1
}
set optking {
	frozen_dihedral = ("
		16 12 9 6
	")
}

ee = optimize('scf')
oeprop('DIPOLE', 'QUADRUPOLE', 'MULLIKEN_CHARGES')
f=open( 'psi4out.xyz', 'w' )
f.write( "20  " )
f.write( str(ee) + "\n" )
f.write( MOL.save_string_xyz() )
f.close()
--------------------------------------------------------------------------

    Molecular point group: c1
  Charge       = 0
  Multiplicity = 1
  Basis Set: CC-PVTZ
  Basis Set:
  @DF-RHF Final Energy:  -384.09189670544617
    Total Energy =                       -384.0918967054457198
    Molecular point group: c1
  Basis Set: CC-PVTZ
  Basis Set:
  Basis Set: CC-PVTZ
  Basis Set:
  @DF-RHF Final Energy:  -384.09286635596374
    Total Energy =                       -384.0928663559635652
  Basis Set: CC-PVTZ
  Basis Set:
  Basis Set: CC-PVTZ
  Basis Set:
  @DF-RHF Final Energy:  -384.09320039809870
    Total Energy =                       -384.0932003980992704
  Basis Set: CC-PVTZ
  Basis Set:
  Basis Set: CC-PVTZ
  Basis Set:
  @DF-RHF Final Energy:  -384.09304623418132
    Total Energy =                       -384.0930462341815428
  Basis Set: CC-PVTZ
  Basis Set:
  Basis Set: CC-PVTZ
  Basis Set:
  @DF-RHF Final Energy:  -384.09322655205858
    Total Energy =                       -384.0932265520583542
  Basis Set: CC-PVTZ
  Basis Set:
  Basis Set: CC-PVTZ
  Basis Set:
  @DF-RHF Final Energy:  -384.09323117280644
    Total Energy =                       -384.0932311728064406
  Basis Set: CC-PVTZ
  Basis Set:
  Charge       = 0
  Multiplicity = 1
  Basis Set: CC-PVTZ
  Basis Set:

    Orbital Energies (a.u.)
    -----------------------

    Doubly Occupied:

       1A    -20.603861     2A    -20.540501     3A    -11.373407
       4A    -11.238614     5A    -11.220156     6A    -11.219057
       7A    -11.218456     8A    -11.210956     9A     -1.477439
      10A     -1.368948    11A     -1.097556    12A     -1.039660
      13A     -0.961335    14A     -0.881274    15A     -0.817290
      16A     -0.766024    17A     -0.703496    18A     -0.693775
      19A     -0.669581    20A     -0.626970    21A     -0.625717
      22A     -0.583933    23A     -0.572786    24A     -0.569979
      25A     -0.532060    26A     -0.514334    27A     -0.506527
      28A     -0.484449    29A     -0.466725    30A     -0.464247
      31A     -0.458752    32A     -0.446247

  @DF-RHF Final Energy:  -384.09323130348338

   => Energetics <=

    Nuclear Repulsion Energy =            383.2356179656248401
    One-Electron Energy =               -1282.7494731670581132
    Two-Electron Energy =                 515.4206238979502359
    DFT Exchange-Correlation Energy =       0.0000000000000000
    Empirical Dispersion Energy =           0.0000000000000000
    PCM Polarization Energy =               0.0000000000000000
    EFP Energy =                            0.0000000000000000
    Total Energy =                       -384.0932313034829804
    Molecular point group: c1
  Basis Set: CC-PVTZ
  Basis Set:

  -Total Gradient:
     Atom            X                  Y                   Z
    ------   -----------------  -----------------  -----------------
       1       -0.000004786517     0.000004708155     0.000002877777
       2       -0.000008503340    -0.000013011849    -0.000004072344
       3        0.000009015816     0.000005346254    -0.000006811497
       4       -0.000007900110    -0.000011476072    -0.000032636216
       5       -0.000004987945     0.000008138953     0.000011528076
       6       -0.000374029096     0.001044665506    -0.000847223032
       7        0.000002732713    -0.000005059804     0.000012957127
       8        0.000004840996     0.000005521037     0.000011462721
       9        0.000222818798    -0.001567337292     0.001565132416
      10       -0.000001159542     0.000001467720    -0.000003233828
      11       -0.000008572184     0.000001759186    -0.000001069401
      12        0.001446941569     0.000754041104    -0.002063854849
      13        0.000004502178     0.000001587409     0.000000510215
      14        0.000001076529    -0.000002879643    -0.000002024452
      15        0.000011086306     0.000000269379     0.000000300333
      16       -0.001295300088    -0.000229987786     0.001346352432
      17        0.000002919375     0.000004117047     0.000010007607
      18       -0.000003362496     0.000000320099     0.000004900275
      19        0.000002105083    -0.000000818752    -0.000008218014
      20        0.000000561954    -0.000001370653     0.000003114653

  **** Optimization is complete! (in 7 steps) ****
    Final optimized geometry and variables:
    Molecular point group: c1

    Geometry (in Angstrom), charge = 0, multiplicity = 1:

    H            3.519248556566    -1.000384486330     0.192071887504
    O            2.615877389122    -1.221179347567     0.362048944030
    C            1.880613271595    -0.121659506751     0.220689703996
    C            0.421912251032    -0.390624497841     0.474559176768
    O            2.357599998610     0.920020248902    -0.071518062198
    C           -0.456789392637     0.846095283737     0.336385584006
    H            0.125707794780    -1.178527244568    -0.208464279075
    H            0.345100411671    -0.818332731805     1.469263038805
    C           -1.926852650433     0.592097356059     0.676232732406
    H           -0.362344930688     1.243099269996    -0.666163903562
    H           -0.076298572952     1.616903629139     0.995381954595
    C           -2.673302995323    -0.407689955513    -0.213277362159
    H           -2.445063393706     1.545597733821     0.629015939558
    H           -2.002100772294     0.260360027292     1.708345357138
    C           -2.632139705342    -0.098027840508    -1.706901359119
    H           -2.307603755216    -1.414435237534    -0.033591283007
    H           -3.710024907188    -0.420431209688     0.109312402244
    H           -3.264492828627    -0.785204357172    -2.256857749268
    H           -1.631738786703    -0.180316086464    -2.114835752125
    H           -2.986246282252     0.908143798285    -1.906456595496

  Mulliken Charges: (a.u.)
   Center  Symbol    Alpha    Beta     Spin     Total
       1     H     0.38238  0.38238  0.00000  0.23524
       2     O     4.16026  4.16026  0.00000 -0.32052
       3     C     2.80370  2.80370  0.00000  0.39261
       4     C     3.11229  3.11229  0.00000 -0.22457
       5     O     4.19101  4.19101  0.00000 -0.38201
       6     C     3.10090  3.10090  0.00000 -0.20180
       7     H     0.43714  0.43714  0.00000  0.12572
       8     H     0.43654  0.43654  0.00000  0.12692
       9     C     3.10494  3.10494  0.00000 -0.20988
      10     H     0.44232  0.44232  0.00000  0.11537
      11     H     0.43582  0.43582  0.00000  0.12837
      12     C     3.09975  3.09975  0.00000 -0.19951
      13     H     0.44470  0.44470  0.00000  0.11059
      14     H     0.44833  0.44833  0.00000  0.10334
      15     C     3.15322  3.15322  0.00000 -0.30644
      16     H     0.45185  0.45185  0.00000  0.09629
      17     H     0.44411  0.44411  0.00000  0.11177
      18     H     0.44484  0.44484  0.00000  0.11032
      19     H     0.45411  0.45411  0.00000  0.09179
      20     H     0.45180  0.45180  0.00000  0.09640

   Total alpha = 32.00000, Total beta = 32.00000, Total charge = -0.00000
