                              Psi4 1.0.54 Driver

  ==> Input File <==

--------------------------------------------------------------------------
set {
	reference rhf
	basis cc-pvtz
}

set_num_threads( 4 )
memory 2 gb

molecule MOL {
0 1

O	 0.750285	 1.304156	 -0.059971
C	 0.576499	 0.134701	 -0.003900
C	 -0.765656	 -0.550508	 -0.002152
O	 1.563719	 -0.742269	 0.075430
C	 -1.945526	 0.411052	 0.000603
H	 -0.794329	 -1.203792	 -0.868145
H	 -0.791555	 -1.205429	 0.862701
C	 -3.282915	 -0.321280	 0.002596
H	 -1.880300	 1.059126	 -0.864925
H	 -1.877207	 1.057892	 0.866807
H	 -3.388495	 -0.952755	 -0.873419
H	 -4.107811	 0.380864	 0.004116
H	 -3.385717	 -0.953283	 0.878571
C	 2.882978	 -0.234918	 0.088105
H	 3.087813	 0.316614	 -0.817383
H	 3.530777	 -1.093683	 0.155693
H	 3.033667	 0.413909	 0.938022

	symmetry c1
}
set optking {
	frozen_dihedral = ("
		1 2 3 6
	")
}

ee,wfn = optimize('scf', return_wfn=True)
oeprop( wfn, 'DIPOLE', 'QUADRUPOLE', 'MULLIKEN_CHARGES')
f=open( 'psi4out.xyz', 'w' )
f.write( "17  " )
f.write( str(ee) + "\n" )
f.write( MOL.save_string_xyz() )
f.close()
--------------------------------------------------------------------------

    Molecular point group: c1
  Charge       = 0
  Multiplicity = 1
  Basis Set: CC-PVTZ
  Basis Set:
  @DF-RHF Final Energy:  -345.03539484367286
    Total Energy =                       -345.0353948436725204
    Molecular point group: c1
  Basis Set: CC-PVTZ
  Basis Set:
  Basis Set: CC-PVTZ
  Basis Set:
  @DF-RHF Final Energy:  -345.03506512708594
    Total Energy =                       -345.0350651270860567
  Basis Set: CC-PVTZ
  Basis Set:
  Basis Set: CC-PVTZ
  Basis Set:
  @DF-RHF Final Energy:  -345.03540608113303
    Total Energy =                       -345.0354060811327486
  Basis Set: CC-PVTZ
  Basis Set:
  Charge       = 0
  Multiplicity = 1
  Basis Set: CC-PVTZ
  Basis Set:

    Orbital Energies (a.u.)
    -----------------------

    Doubly Occupied:

       1A    -20.596686     2A    -20.534558     3A    -11.364970
       4A    -11.278721     5A    -11.234360     6A    -11.220118
       7A    -11.212745     8A     -1.472595     9A     -1.366244
      10A     -1.081798    11A     -1.002540    12A     -0.940347
      13A     -0.827857    14A     -0.769353    15A     -0.702679
      16A     -0.686730    17A     -0.676304    18A     -0.637805
      19A     -0.596842    20A     -0.575619    21A     -0.569737
      22A     -0.528784    23A     -0.523292    24A     -0.500477
      25A     -0.487754    26A     -0.479782    27A     -0.460116
      28A     -0.441524

  @DF-RHF Final Energy:  -345.03540916977977

   => Energetics <=

    Nuclear Repulsion Energy =            313.0328976116395552
    One-Electron Energy =               -1090.5959455950296615
    Two-Electron Energy =                 432.5276388136099399
    DFT Exchange-Correlation Energy =       0.0000000000000000
    Empirical Dispersion Energy =           0.0000000000000000
    PCM Polarization Energy =               0.0000000000000000
    EFP Energy =                            0.0000000000000000
    Total Energy =                       -345.0354091697801664
    Molecular point group: c1
  Basis Set: CC-PVTZ
  Basis Set:

  -Total Gradient:
     Atom            X                  Y                   Z
    ------   -----------------  -----------------  -----------------
       1        0.000006019045    -0.000077966097    -0.000155147380
       2       -0.000103240986     0.000260200139     0.000209951439
       3        0.000098231514    -0.000184203865     0.000007118579
       4        0.000063734819    -0.000218478204    -0.000014417187
       5        0.000012858851     0.000037707025     0.000006657478
       6       -0.000045125491     0.000111308075    -0.000069846156
       7       -0.000003318703     0.000005921821     0.000003322258
       8        0.000020391705    -0.000029309577     0.000000026613
       9        0.000008277059    -0.000006253617    -0.000000958608
      10        0.000003642878     0.000002928007     0.000004287411
      11       -0.000001387152     0.000001676105     0.000000541498
      12        0.000014404174     0.000004258103    -0.000001690196
      13       -0.000005048456     0.000001458852    -0.000000373192
      14       -0.000035992387     0.000126651187     0.000029221771
      15        0.000003806292    -0.000013244277    -0.000003749699
      16       -0.000053987212    -0.000008322900    -0.000005362703
      17        0.000016734048    -0.000014330770    -0.000009581926

  **** Optimization is complete! (in 4 steps) ****
    Final optimized geometry and variables:
    Molecular point group: c1

    Geometry (in Angstrom), charge = 0, multiplicity = 1:

    O            0.750652680903     1.303742265919    -0.059792806563
    C            0.576364111856     0.133938611421    -0.014325389571
    C           -0.766180478197    -0.550665556721    -0.003168718436
    O            1.564516822594    -0.744913086914     0.027146644368
    C           -1.944957341404     0.412078980783     0.017302897657
    H           -0.802973180505    -1.193640369448    -0.876995256770
    H           -0.785420143160    -1.214968629372     0.854254374013
    C           -3.283039712242    -0.318899825499     0.021798272395
    H           -1.884960465375     1.068569751800    -0.842084334134
    H           -1.870159142436     1.050411576649     0.889618001564
    H           -3.395793213175    -0.941093016770    -0.860014767592
    H           -4.107132031261     0.384088101774     0.036703484986
    H           -3.380143377280    -0.959968530081     0.891861554086
    C            2.883756800684    -0.238231742909     0.011901985737
    H            3.065175835752     0.326086184605    -0.890794414522
    H            3.532787767446    -1.097948689527     0.049994237834
    H            3.057775893209     0.398451673744     0.866588914013

  Mulliken Charges: (a.u.)
   Center  Symbol    Alpha    Beta     Spin     Total
       1     O     4.19661  4.19661  0.00000 -0.39322
       2     C     2.80672  2.80672  0.00000  0.38656
       3     C     3.09563  3.09563  0.00000 -0.19125
       4     O     4.14692  4.14692  0.00000 -0.29384
       5     C     3.07859  3.07859  0.00000 -0.15719
       6     H     0.44140  0.44140  0.00000  0.11720
       7     H     0.44059  0.44059  0.00000  0.11883
       8     C     3.15134  3.15134  0.00000 -0.30267
       9     H     0.44614  0.44614  0.00000  0.10771
      10     H     0.44742  0.44742  0.00000  0.10516
      11     H     0.45579  0.45579  0.00000  0.08841
      12     H     0.44558  0.44558  0.00000  0.10883
      13     H     0.45589  0.45589  0.00000  0.08823
      14     C     3.03743  3.03743  0.00000 -0.07486
      15     H     0.45434  0.45434  0.00000  0.09131
      16     H     0.44529  0.44529  0.00000  0.10942
      17     H     0.45432  0.45432  0.00000  0.09137

   Total alpha = 28.00000, Total beta = 28.00000, Total charge = -0.00000

*** Psi4 exiting successfully. Buy a developer a beer!
