  ==> Input File <==

--------------------------------------------------------------------------
set {
	reference rhf
	basis 6-31G*
}

set_num_threads( 4 )
memory 2 gb

molecule MOL {
0 1

O	 -0.183992	 1.059677	 1.087924
C	 -0.392074	 0.005054	 0.582110
C	 -1.733199	 -0.672246	 0.509906
O	 0.550821	 -0.724572	 0.000672
H	 -2.001678	 -0.843119	 -0.526147
H	 -2.477468	 -0.053266	 0.988256
H	 -1.682159	 -1.637788	 0.999502
C	 1.863949	 -0.193559	 -0.000319
H	 2.028859	 0.409284	 -0.881648
H	 2.526261	 -1.045082	 -0.000003
H	 2.029520	 0.410555	 0.880008

	symmetry c1
}
set optking {
	frozen_dihedral = ("
		2 4 8 9
	")
}

ee = optimize('scf')
oeprop('DIPOLE', 'QUADRUPOLE', 'MULLIKEN_CHARGES')
f=open( 'psi4out.xyz', 'w' )
f.write( "11  " )
f.write( str(ee) + "\n" )
f.write( MOL.save_string_xyz() )
f.close()
--------------------------------------------------------------------------

    Molecular point group: c1
  Charge       = 0
  Multiplicity = 1
  Basis Set: 6-31G*
  Basis Set:
  @DF-RHF Final Energy:  -266.83508566677494
    Total Energy =                       -266.8350856667750577
    Molecular point group: c1
  Basis Set: 6-31G*
  Basis Set:
  Basis Set: 6-31G*
  Basis Set:
  @DF-RHF Final Energy:  -266.83520429157164
    Total Energy =                       -266.8352042915714719
  Basis Set: 6-31G*
  Basis Set:
  Basis Set: 6-31G*
  Basis Set:
  @DF-RHF Final Energy:  -266.83527707850368
    Total Energy =                       -266.8352770785038501
  Basis Set: 6-31G*
  Basis Set:
  Basis Set: 6-31G*
  Basis Set:
  @DF-RHF Final Energy:  -266.83533483275585
    Total Energy =                       -266.8353348327560184
  Basis Set: 6-31G*
  Basis Set:
  Basis Set: 6-31G*
  Basis Set:
  @DF-RHF Final Energy:  -266.83534230689736
    Total Energy =                       -266.8353423068974735
  Basis Set: 6-31G*
  Basis Set:
  Charge       = 0
  Multiplicity = 1
  Basis Set: 6-31G*
  Basis Set:

    Orbital Energies (a.u.)
    -----------------------

    Doubly Occupied:

       1A    -20.605398     2A    -20.546060     3A    -11.377117
       4A    -11.281515     5A    -11.234364     6A     -1.469753
       7A     -1.364753     8A     -1.035958     9A     -0.953351
      10A     -0.777642    11A     -0.696337    12A     -0.679884
      13A     -0.677082    14A     -0.596443    15A     -0.591458
      16A     -0.560651    17A     -0.526978    18A     -0.521191
      19A     -0.456286    20A     -0.442118

  @DF-RHF Final Energy:  -266.83534320424911

   => Energetics <=

    Nuclear Repulsion Energy =            183.0582307681863767
    One-Electron Energy =                -726.9984684874361847
    Two-Electron Energy =                 277.1048945150005807
    DFT Exchange-Correlation Energy =       0.0000000000000000
    Empirical Dispersion Energy =           0.0000000000000000
    PCM Polarization Energy =               0.0000000000000000
    EFP Energy =                            0.0000000000000000
    Total Energy =                       -266.8353432042492273
    Molecular point group: c1
  Basis Set: 6-31G*
  Basis Set:

  -Total Gradient:
     Atom            X                  Y                   Z
    ------   -----------------  -----------------  -----------------
       1        0.000042865292    -0.000024173190    -0.000011348148
       2        0.000198649836    -0.000668322203     0.001254861001
       3       -0.000020941339    -0.000010953516     0.000015218375
       4       -0.000202135265     0.000721247875    -0.002019866183
       5       -0.000022093544    -0.000011958080    -0.000013150232
       6        0.000002481544    -0.000005561753    -0.000004181709
       7        0.000004899912     0.000010664665    -0.000006627579
       8       -0.000507739431     0.001337827438     0.001636301148
       9        0.000480290787    -0.001365021673    -0.000841269211
      10        0.000033641742     0.000014079119    -0.000015911489
      11       -0.000009919535     0.000002171318     0.000005974025

  **** Optimization is complete! (in 6 steps) ****
    Final optimized geometry and variables:
    Molecular point group: c1

    Geometry (in Angstrom), charge = 0, multiplicity = 1:

    O           -0.249409644672     1.177321071610     0.647845805131
    C           -0.438135933978     0.116539572883     0.147694028121
    C           -1.769044456398    -0.581685487950     0.080130247174
    O            0.511864939591    -0.607951639544    -0.430066593249
    H           -2.035777205135    -0.760630833243    -0.955065393044
    H           -2.522187942885     0.027951921164     0.556394026053
    H           -1.702732739528    -1.544502049062     0.573252472913
    C            1.836386906205    -0.103793147641    -0.423678562996
    H            2.000192102640     0.499820027113    -1.306415806558
    H            2.486706973160    -0.964987868129    -0.454932090638
    H            2.023417315326     0.480302685184     0.462456110853

  Mulliken Charges: (a.u.)
   Center  Symbol    Alpha    Beta     Spin     Total
       1     O     4.28188  4.28188  0.00000 -0.56376
       2     C     2.62229  2.62229  0.00000  0.75543
       3     C     3.28189  3.28189  0.00000 -0.56379
       4     O     4.30047  4.30047  0.00000 -0.60095
       5     H     0.39987  0.39987  0.00000  0.20026
       6     H     0.39669  0.39669  0.00000  0.20661
       7     H     0.40014  0.40014  0.00000  0.19971
       8     C     3.09503  3.09503  0.00000 -0.19005
       9     H     0.41264  0.41264  0.00000  0.17473
      10     H     0.40962  0.40962  0.00000  0.18075
      11     H     0.39947  0.39947  0.00000  0.20106

   Total alpha = 20.00000, Total beta = 20.00000, Total charge = -0.00000
