                              Psi4 1.0.54 Driver

  ==> Input File <==

--------------------------------------------------------------------------
set {
	reference rhf
	basis cc-pvtz
}

set_num_threads( 4 )
memory 2 gb

molecule MOL {
0 1

H	 -0.939693	 0.000281	 1.681345
O	 -0.046262	 -0.000157	 1.387678
C	 -0.000837	 0.000006	 -0.025491
C	 0.508338	 1.352324	 -0.520591
C	 0.906718	 -1.129866	 -0.508065
C	 -1.436591	 -0.232684	 -0.475663
H	 0.520024	 1.395341	 -1.603554
H	 1.520217	 1.534016	 -0.171079
H	 -0.124090	 2.149611	 -0.150684
H	 0.932935	 -1.177748	 -1.590566
H	 1.924103	 -0.982320	 -0.158448
H	 0.554997	 -2.081335	 -0.129297
H	 -1.504735	 -0.249115	 -1.557039
H	 -2.078873	 0.554267	 -0.100972
H	 -1.800996	 -1.177330	 -0.092169

	symmetry c1
}
set optking {
	frozen_dihedral = ("
		4 3 2 1
	")
}

ee,wfn = optimize('scf', return_wfn=True)
oeprop( wfn, 'DIPOLE', 'QUADRUPOLE', 'MULLIKEN_CHARGES')
f=open( 'psi4out.xyz', 'w' )
f.write( "15  " )
f.write( str(ee) + "\n" )
f.write( MOL.save_string_xyz() )
f.close()
--------------------------------------------------------------------------

    Molecular point group: c1
  Charge       = 0
  Multiplicity = 1
  Basis Set: CC-PVTZ
  Basis Set:
  @DF-RHF Final Energy:  -232.24290538589176
    Total Energy =                       -232.2429053858917314
    Molecular point group: c1
  Basis Set: CC-PVTZ
  Basis Set:
  Basis Set: CC-PVTZ
  Basis Set:
  @DF-RHF Final Energy:  -232.22724924012545
    Total Energy =                       -232.2272492401256727
  Basis Set: CC-PVTZ
  Basis Set:
  Basis Set: CC-PVTZ
  Basis Set:
  @DF-RHF Final Energy:  -232.24449219325365
    Total Energy =                       -232.2444921932539046
  Basis Set: CC-PVTZ
  Basis Set:
  Basis Set: CC-PVTZ
  Basis Set:
  @DF-RHF Final Energy:  -232.24486764288085
    Total Energy =                       -232.2448676428808767
  Basis Set: CC-PVTZ
  Basis Set:
  Basis Set: CC-PVTZ
  Basis Set:
  @DF-RHF Final Energy:  -232.24485626101401
    Total Energy =                       -232.2448562610141494
  Basis Set: CC-PVTZ
  Basis Set:
  Basis Set: CC-PVTZ
  Basis Set:
  @DF-RHF Final Energy:  -232.24488419845858
    Total Energy =                       -232.2448841984586920
  Basis Set: CC-PVTZ
  Basis Set:
  Charge       = 0
  Multiplicity = 1
  Basis Set: CC-PVTZ
  Basis Set:

    Orbital Energies (a.u.)
    -----------------------

    Doubly Occupied:

       1A    -20.540397     2A    -11.281109     3A    -11.216139
       4A    -11.203656     5A    -11.203199     6A     -1.362909
       7A     -1.065745     8A     -0.946371     9A     -0.936556
      10A     -0.778607    11A     -0.671960    12A     -0.624545
      13A     -0.622768    14A     -0.576447    15A     -0.557351
      16A     -0.534737    17A     -0.517039    18A     -0.511367
      19A     -0.503153    20A     -0.458479    21A     -0.426498

  @DF-RHF Final Energy:  -232.24488454202444

   => Energetics <=

    Nuclear Repulsion Energy =            200.5798722687654561
    One-Electron Energy =                -712.5714478418915405
    Two-Electron Energy =                 279.7466910311014203
    DFT Exchange-Correlation Energy =       0.0000000000000000
    Empirical Dispersion Energy =           0.0000000000000000
    PCM Polarization Energy =               0.0000000000000000
    EFP Energy =                            0.0000000000000000
    Total Energy =                       -232.2448845420246357
    Molecular point group: c1
  Basis Set: CC-PVTZ
  Basis Set:

  -Total Gradient:
     Atom            X                  Y                   Z
    ------   -----------------  -----------------  -----------------
       1       -0.000118394965    -0.000990524336    -0.000282542075
       2        0.000327334211     0.001125384568     0.000309369147
       3       -0.000741530098     0.000121451613     0.000114501840
       4        0.000538924112    -0.000258393882    -0.000110327232
       5       -0.000019574137    -0.000009674518    -0.000014596388
       6        0.000001281517     0.000000218102    -0.000037121453
       7        0.000001962167     0.000011035430     0.000014172553
       8       -0.000022176400    -0.000007155642    -0.000008970695
       9        0.000014703067     0.000006983199    -0.000000931570
      10        0.000002087937    -0.000007687016     0.000021064895
      11       -0.000016598275     0.000000335325    -0.000007107799
      12        0.000012121161     0.000005733339    -0.000004461277
      13       -0.000004602225     0.000001097711     0.000002254175
      14        0.000013208171    -0.000003483723     0.000001564707
      15        0.000011253758     0.000004679830     0.000003131171

  **** Optimization is complete! (in 7 steps) ****
    Final optimized geometry and variables:
    Molecular point group: c1

    Geometry (in Angstrom), charge = 0, multiplicity = 1:

    H           -0.864229743144    -0.380406651138     1.690566851817
    O            0.004881397593    -0.389617234470     1.337019814838
    C            0.000960321837     0.008773519817    -0.023553284511
    C            0.660867860940     1.382235154417    -0.113766309254
    C            0.818930998892    -1.027380024602    -0.787204359842
    C           -1.430141763937     0.059150219979    -0.549907461437
    H            0.731560426558     1.719025332979    -1.142057304407
    H            1.658785252076     1.341257040482     0.304084879549
    H            0.092284166743     2.114431595025     0.447863509677
    H            0.909184001404    -0.761295146416    -1.834291801794
    H            1.813238412947    -1.099091565247    -0.364565691222
    H            0.353335470999    -2.002820534453    -0.716996684650
    H           -1.450625920399     0.349060826012    -1.593060343386
    H           -2.019458842840     0.781699935245     0.006285818933
    H           -1.904237467832    -0.912308154742    -0.461501682585

  Mulliken Charges: (a.u.)
   Center  Symbol    Alpha    Beta     Spin     Total
       1     H     0.39204  0.39204  0.00000  0.21592
       2     O     4.21510  4.21510  0.00000 -0.43019
       3     C     2.88017  2.88017  0.00000  0.23966
       4     C     3.14057  3.14057  0.00000 -0.28113
       5     C     3.13963  3.13963  0.00000 -0.27926
       6     C     3.16261  3.16261  0.00000 -0.32522
       7     H     0.45925  0.45925  0.00000  0.08150
       8     H     0.44818  0.44818  0.00000  0.10365
       9     H     0.45433  0.45433  0.00000  0.09134
      10     H     0.45962  0.45962  0.00000  0.08076
      11     H     0.44763  0.44763  0.00000  0.10474
      12     H     0.45281  0.45281  0.00000  0.09437
      13     H     0.45050  0.45050  0.00000  0.09899
      14     H     0.45068  0.45068  0.00000  0.09864
      15     H     0.44688  0.44688  0.00000  0.10624

   Total alpha = 21.00000, Total beta = 21.00000, Total charge =  0.00000

*** Psi4 exiting successfully. Buy a developer a beer!
