                              Psi4 1.0.54 Driver

  ==> Input File <==

--------------------------------------------------------------------------
set {
	reference rhf
	basis cc-pvtz
}

set_num_threads( 4 )
memory 2 gb

molecule MOL {
0 1

H	 -2.498963	 -0.741158	 -0.729149
O	 -2.346257	 -0.289210	 0.080372
C	 -1.183935	 0.486039	 -0.009831
C	 0.062853	 -0.375310	 0.027457
H	 -1.178881	 1.094526	 -0.908634
H	 -1.184406	 1.155156	 0.838676
O	 1.172093	 0.457955	 -0.054438
H	 0.052476	 -1.081302	 -0.804627
H	 0.076323	 -0.955658	 0.947560
C	 1.520421	 1.077877	 1.139540
H	 1.767983	 0.349132	 1.908253
H	 2.387584	 1.693956	 0.952026
H	 0.715317	 1.708337	 1.509471

	symmetry c1
}
set optking {
	frozen_dihedral = ("
		10 7 4 8
	")
}

ee,wfn = optimize('scf', return_wfn=True)
oeprop( wfn, 'DIPOLE', 'QUADRUPOLE', 'MULLIKEN_CHARGES')
f=open( 'psi4out.xyz', 'w' )
f.write( "13  " )
f.write( str(ee) + "\n" )
f.write( MOL.save_string_xyz() )
f.close()
--------------------------------------------------------------------------

    Molecular point group: c1
  Charge       = 0
  Multiplicity = 1
  Basis Set: CC-PVTZ
  Basis Set:
  @DF-RHF Final Energy:  -268.05718592076880
    Total Energy =                       -268.0571859207689727
    Molecular point group: c1
  Basis Set: CC-PVTZ
  Basis Set:
  Basis Set: CC-PVTZ
  Basis Set:
  @DF-RHF Final Energy:  -268.04763767494154
    Total Energy =                       -268.0476376749415977
  Basis Set: CC-PVTZ
  Basis Set:
  Basis Set: CC-PVTZ
  Basis Set:
  @DF-RHF Final Energy:  -268.05905420171797
    Total Energy =                       -268.0590542017179132
  Basis Set: CC-PVTZ
  Basis Set:
  Basis Set: CC-PVTZ
  Basis Set:
  @DF-RHF Final Energy:  -268.05933500515516
    Total Energy =                       -268.0593350051550487
  Basis Set: CC-PVTZ
  Basis Set:
  Basis Set: CC-PVTZ
  Basis Set:
  @DF-RHF Final Energy:  -268.05934646267644
    Total Energy =                       -268.0593464626765581
  Basis Set: CC-PVTZ
  Basis Set:
  Basis Set: CC-PVTZ
  Basis Set:
  @DF-RHF Final Energy:  -268.05934831184851
    Total Energy =                       -268.0593483118485665
  Basis Set: CC-PVTZ
  Basis Set:
  Charge       = 0
  Multiplicity = 1
  Basis Set: CC-PVTZ
  Basis Set:

    Orbital Energies (a.u.)
    -----------------------

    Doubly Occupied:

       1A    -20.554943     2A    -20.554798     3A    -11.269773
       4A    -11.269062     5A    -11.267370     6A     -1.388868
       7A     -1.370604     8A     -1.014919     9A     -0.928371
      10A     -0.836525    11A     -0.712902    12A     -0.675543
      13A     -0.659143    14A     -0.644460    15A     -0.597148
      16A     -0.571630    17A     -0.533452    18A     -0.517406
      19A     -0.467339    20A     -0.465941    21A     -0.409325

  @DF-RHF Final Energy:  -268.05934850663823

   => Energetics <=

    Nuclear Repulsion Energy =            192.1556584947914246
    One-Electron Energy =                -747.0109686387465899
    Two-Electron Energy =                 286.7959616373170775
    DFT Exchange-Correlation Energy =       0.0000000000000000
    Empirical Dispersion Energy =           0.0000000000000000
    PCM Polarization Energy =               0.0000000000000000
    EFP Energy =                            0.0000000000000000
    Total Energy =                       -268.0593485066381163
    Molecular point group: c1
  Basis Set: CC-PVTZ
  Basis Set:

  -Total Gradient:
     Atom            X                  Y                   Z
    ------   -----------------  -----------------  -----------------
       1        0.000010105585     0.000010121862     0.000004910792
       2       -0.000003526541    -0.000015727753     0.000015434211
       3        0.000011588689     0.000013042495    -0.000026199582
       4        0.000246281963    -0.000476478798     0.000213998847
       5       -0.000005051596     0.000005036853     0.000005579144
       6       -0.000008082373    -0.000001211576     0.000000809223
       7        0.000327403426    -0.000579260795    -0.000109662540
       8       -0.000310593056     0.000564290883    -0.000166431959
       9        0.000007917463    -0.000000130187     0.000004176660
      10       -0.000282053011     0.000475237769     0.000040654954
      11        0.000002942712    -0.000002248198     0.000004111944
      12        0.000001919146     0.000005154513     0.000009803955
      13        0.000001147591     0.000002172931     0.000002814352

  **** Optimization is complete! (in 7 steps) ****
    Final optimized geometry and variables:
    Molecular point group: c1

    Geometry (in Angstrom), charge = 0, multiplicity = 1:

    H           -2.391729473950    -0.548932602774    -1.140132061805
    O           -2.235449280826    -0.374394576857    -0.229876830650
    C           -1.048826013829     0.352769624280    -0.074324227883
    C            0.167382062801    -0.508574460767    -0.385106931123
    H           -1.035469733065     1.235639182168    -0.706698504299
    H           -1.032126897205     0.686648391098     0.953522317666
    O            1.366706139710     0.194377178185    -0.292520919525
    H            0.094438092536    -0.859831601710    -1.408294088814
    H            0.171708002510    -1.380798983151     0.264115508073
    C            1.879184473491     0.364197360010     0.991237838270
    H            2.019029283030    -0.592138759196     1.489192709039
    H            2.839766123074     0.848740077497     0.894698271059
    H            1.242043212202     0.986386971851     1.612296216240

  Mulliken Charges: (a.u.)
   Center  Symbol    Alpha    Beta     Spin     Total
       1     H     0.39334  0.39334  0.00000  0.21332
       2     O     4.20297  4.20297  0.00000 -0.40593
       3     C     2.97351  2.97351  0.00000  0.05298
       4     C     2.98486  2.98486  0.00000  0.03029
       5     H     0.46538  0.46538  0.00000  0.06924
       6     H     0.45908  0.45908  0.00000  0.08184
       7     O     4.17921  4.17921  0.00000 -0.35842
       8     H     0.45783  0.45783  0.00000  0.08434
       9     H     0.46670  0.46670  0.00000  0.06660
      10     C     3.03188  3.03188  0.00000 -0.06376
      11     H     0.46936  0.46936  0.00000  0.06128
      12     H     0.44515  0.44515  0.00000  0.10971
      13     H     0.47074  0.47074  0.00000  0.05852

   Total alpha = 21.00000, Total beta = 21.00000, Total charge =  0.00000

*** Psi4 exiting successfully. Buy a developer a beer!
