                              Psi4 1.0.54 Driver

  ==> Input File <==

--------------------------------------------------------------------------
set {
	reference rhf
	basis cc-pvtz
}

set_num_threads( 4 )
memory 2 gb

molecule MOL {
0 1

H	 3.459101	 0.139266	 -0.762951
C	 2.749156	 -0.051729	 0.031265
C	 1.322304	 0.099773	 -0.484271
H	 2.929445	 -1.053887	 0.403481
H	 2.954281	 0.646699	 0.834672
C	 0.308557	 -0.162619	 0.622645
H	 1.143368	 -0.594400	 -1.295960
H	 1.169532	 1.100095	 -0.870217
N	 -1.069352	 -0.004081	 0.085342
H	 0.371632	 -1.172932	 0.991288
H	 0.400391	 0.548875	 1.426218
O	 -1.420223	 1.093266	 -0.192676
O	 -1.733916	 -0.981718	 -0.001389

	symmetry c1
}
set optking {
	frozen_dihedral = ("
		12 9 6 3
	")
}

ee,wfn = optimize('scf', return_wfn=True)
oeprop( wfn, 'DIPOLE', 'QUADRUPOLE', 'MULLIKEN_CHARGES')
f=open( 'psi4out.xyz', 'w' )
f.write( "13  " )
f.write( str(ee) + "\n" )
f.write( MOL.save_string_xyz() )
f.close()
--------------------------------------------------------------------------

    Molecular point group: c1
  Charge       = 0
  Multiplicity = 1
  Basis Set: CC-PVTZ
  Basis Set:
  @DF-RHF Final Energy:  -321.86120914249045
    Total Energy =                       -321.8612091424902246
    Molecular point group: c1
  Basis Set: CC-PVTZ
  Basis Set:
  Basis Set: CC-PVTZ
  Basis Set:
  @DF-RHF Final Energy:  -321.85611885236142
    Total Energy =                       -321.8561188523613055
  Basis Set: CC-PVTZ
  Basis Set:
  Basis Set: CC-PVTZ
  Basis Set:
  @DF-RHF Final Energy:  -321.86057108579325
    Total Energy =                       -321.8605710857930262
  Basis Set: CC-PVTZ
  Basis Set:
  Basis Set: CC-PVTZ
  Basis Set:
  @DF-RHF Final Energy:  -321.86139444153048
    Total Energy =                       -321.8613944415304786
  Basis Set: CC-PVTZ
  Basis Set:
  Basis Set: CC-PVTZ
  Basis Set:
  @DF-RHF Final Energy:  -321.86140227357816
    Total Energy =                       -321.8614022735779372
  Basis Set: CC-PVTZ
  Basis Set:
  Basis Set: CC-PVTZ
  Basis Set:
  @DF-RHF Final Energy:  -321.86141396658081
    Total Energy =                       -321.8614139665809830
  Basis Set: CC-PVTZ
  Basis Set:
  Charge       = 0
  Multiplicity = 1
  Basis Set: CC-PVTZ
  Basis Set:

    Orbital Energies (a.u.)
    -----------------------

    Doubly Occupied:

       1A    -20.592138     2A    -20.589006     3A    -15.837144
       4A    -11.297464     5A    -11.253207     6A    -11.236877
       7A     -1.636197     8A     -1.420474     9A     -1.133853
      10A     -1.027762    11A     -0.884191    12A     -0.833504
      13A     -0.762101    14A     -0.739743    15A     -0.728166
      16A     -0.671862    17A     -0.604379    18A     -0.587215
      19A     -0.551335    20A     -0.521247    21A     -0.513347
      22A     -0.487367    23A     -0.474934    24A     -0.453310

  @DF-RHF Final Energy:  -321.86141400782071

   => Energetics <=

    Nuclear Repulsion Energy =            247.9413171961111857
    One-Electron Energy =                -929.9318129803965576
    Two-Electron Energy =                 360.1290817764646590
    DFT Exchange-Correlation Energy =       0.0000000000000000
    Empirical Dispersion Energy =           0.0000000000000000
    PCM Polarization Energy =               0.0000000000000000
    EFP Energy =                            0.0000000000000000
    Total Energy =                       -321.8614140078207129
    Molecular point group: c1
  Basis Set: CC-PVTZ
  Basis Set:

  -Total Gradient:
     Atom            X                  Y                   Z
    ------   -----------------  -----------------  -----------------
       1        0.000001004434     0.000001828425     0.000001288194
       2       -0.000003536455     0.000001239920    -0.000000952840
       3        0.000013576536     0.000286111482     0.000058713018
       4        0.000002059721    -0.000001384610    -0.000001356866
       5       -0.000000350690    -0.000001849189     0.000000501255
       6        0.000027034103    -0.000413153483    -0.000204576852
       7       -0.000001054017     0.000000111199     0.000008067019
       8        0.000002437361     0.000001126461    -0.000013061306
       9       -0.000187705580     0.000200499328     0.000481965627
      10       -0.000007159990    -0.000000436832     0.000005763701
      11       -0.000006204051     0.000000936725    -0.000008576362
      12        0.000146020202    -0.000061811397    -0.000336028700
      13        0.000013878425    -0.000013218027     0.000008254113

  **** Optimization is complete! (in 7 steps) ****
    Final optimized geometry and variables:
    Molecular point group: c1

    Geometry (in Angstrom), charge = 0, multiplicity = 1:

    H            3.469504042605     0.065375582157    -0.760472738174
    C            2.752030220628    -0.107380254007     0.031137778509
    C            1.331384624226     0.082052769579    -0.489491111014
    H            2.906188578985    -1.113365518961     0.404726664626
    H            2.972092650334     0.586169337722     0.835013966513
    C            0.309320717196    -0.158785097830     0.613184104812
    H            1.140488398446    -0.607440670223    -1.304038616357
    H            1.202990991415     1.084097391940    -0.875385640152
    N           -1.070972739524     0.014955759878     0.083796338167
    H            0.355654807223    -1.161089141988     1.002590431679
    H            0.410058281083     0.563869527237     1.408142655914
    O           -1.404760036056     1.117941915776    -0.195729177955
    O           -1.738137029175    -0.956211447195    -0.038564826809

  Mulliken Charges: (a.u.)
   Center  Symbol    Alpha    Beta     Spin     Total
       1     H     0.44163  0.44163  0.00000  0.11674
       2     C     3.15116  3.15116  0.00000 -0.30232
       3     C     3.09625  3.09625  0.00000 -0.19250
       4     H     0.45174  0.45174  0.00000  0.09651
       5     H     0.45182  0.45182  0.00000  0.09637
       6     C     3.03959  3.03959  0.00000 -0.07917
       7     H     0.44148  0.44148  0.00000  0.11705
       8     H     0.43469  0.43469  0.00000  0.13061
       9     N     3.27654  3.27654  0.00000  0.44691
      10     H     0.43336  0.43336  0.00000  0.13328
      11     H     0.43627  0.43627  0.00000  0.12746
      12     O     4.17527  4.17527  0.00000 -0.35054
      13     O     4.17020  4.17020  0.00000 -0.34041

   Total alpha = 24.00000, Total beta = 24.00000, Total charge =  0.00000

*** Psi4 exiting successfully. Buy a developer a beer!
