                              Psi4 1.0.54 Driver

  ==> Input File <==

--------------------------------------------------------------------------
set {
	reference rhf
	basis cc-pvtz
}

set_num_threads( 4 )
memory 2 gb

molecule MOL {
0 1

H	 -0.982588	 -1.226315	 0.250411
N	 -1.173824	 -0.310545	 -0.096857
C	 -0.022588	 0.563366	 0.065815
H	 -1.415410	 -0.405236	 -1.061368
C	 1.270420	 -0.230572	 -0.014245
H	 -0.045354	 1.293678	 -0.735129
H	 -0.043155	 1.123061	 1.001180
H	 1.336273	 -0.754933	 -0.959364
H	 2.130728	 0.422015	 0.082222
H	 1.323344	 -0.967006	 0.781773

	symmetry c1
}
set optking {
	frozen_dihedral = ("
		1 2 3 6
	")
}

ee,wfn = optimize('scf', return_wfn=True)
oeprop( wfn, 'DIPOLE', 'QUADRUPOLE', 'MULLIKEN_CHARGES')
f=open( 'psi4out.xyz', 'w' )
f.write( "10  " )
f.write( str(ee) + "\n" )
f.write( MOL.save_string_xyz() )
f.close()
--------------------------------------------------------------------------

    Molecular point group: c1
  Charge       = 0
  Multiplicity = 1
  Basis Set: CC-PVTZ
  Basis Set:
  @DF-RHF Final Energy:  -134.30131264909761
    Total Energy =                       -134.3013126490976106
    Molecular point group: c1
  Basis Set: CC-PVTZ
  Basis Set:
  Basis Set: CC-PVTZ
  Basis Set:
  @DF-RHF Final Energy:  -134.30245874196430
    Total Energy =                       -134.3024587419643012
  Basis Set: CC-PVTZ
  Basis Set:
  Basis Set: CC-PVTZ
  Basis Set:
  @DF-RHF Final Energy:  -134.30263525670381
    Total Energy =                       -134.3026352567038089
  Basis Set: CC-PVTZ
  Basis Set:
  Basis Set: CC-PVTZ
  Basis Set:
  @DF-RHF Final Energy:  -134.30263691512428
    Total Energy =                       -134.3026369151243102
  Basis Set: CC-PVTZ
  Basis Set:
  Charge       = 0
  Multiplicity = 1
  Basis Set: CC-PVTZ
  Basis Set:

    Orbital Energies (a.u.)
    -----------------------

    Doubly Occupied:

       1A    -15.526669     2A    -11.241498     3A    -11.209812
       4A     -1.177714     5A     -0.989408     6A     -0.832168
       7A     -0.671618     8A     -0.601108     9A     -0.587689
      10A     -0.548502    11A     -0.507021    12A     -0.485545
      13A     -0.384079

  @DF-RHF Final Energy:  -134.30263702644794

   => Energetics <=

    Nuclear Repulsion Energy =             83.3278834138965152
    One-Electron Energy =                -345.7353795976947595
    Two-Electron Energy =                 128.1048591573503472
    DFT Exchange-Correlation Energy =       0.0000000000000000
    Empirical Dispersion Energy =           0.0000000000000000
    PCM Polarization Energy =               0.0000000000000000
    EFP Energy =                            0.0000000000000000
    Total Energy =                       -134.3026370264478828
    Molecular point group: c1
  Basis Set: CC-PVTZ
  Basis Set:

  -Total Gradient:
     Atom            X                  Y                   Z
    ------   -----------------  -----------------  -----------------
       1        0.000940531301    -0.000912441978    -0.002902934103
       2       -0.000809000669     0.000721646536     0.003242894439
       3       -0.001588175463     0.002002407009     0.001343898200
       4        0.000009546313     0.000009812536     0.000008790718
       5       -0.000014526282    -0.000009855517     0.000011697187
       6        0.001456848932    -0.001808864742    -0.001711131600
       7       -0.000002037896    -0.000008829028     0.000005560968
       8       -0.000002556126     0.000003074397     0.000008385269
       9        0.000003359331     0.000008677621     0.000001217956
      10        0.000006010561    -0.000005626835    -0.000008379033

  **** Optimization is complete! (in 5 steps) ****
    Final optimized geometry and variables:
    Molecular point group: c1

    Geometry (in Angstrom), charge = 0, multiplicity = 1:

    H           -1.059273716992    -1.195813863233     0.289288451073
    N           -1.226156857781    -0.271907486684    -0.051023889888
    C           -0.034360853477     0.558099745271     0.080172604573
    H           -1.480180379940    -0.371895244742    -1.010695229538
    C            1.282129232756    -0.208415222813     0.014676570276
    H           -0.047461232766     1.292929995702    -0.716369250295
    H           -0.085495689601     1.103174539565     1.016160216175
    H            1.385713221988    -0.724271859565    -0.934317384970
    H            2.128671247393     0.460110463102     0.129707535569
    H            1.337715086836    -0.949889872512     0.805816584437

  Mulliken Charges: (a.u.)
   Center  Symbol    Alpha    Beta     Spin     Total
       1     H     0.43098  0.43098  0.00000  0.13803
       2     N     3.68856  3.68856  0.00000 -0.37711
       3     C     3.02104  3.02104  0.00000 -0.04208
       4     H     0.43026  0.43026  0.00000  0.13949
       5     C     3.14121  3.14121  0.00000 -0.28242
       6     H     0.45848  0.45848  0.00000  0.08303
       7     H     0.45788  0.45788  0.00000  0.08424
       8     H     0.45818  0.45818  0.00000  0.08364
       9     H     0.45522  0.45522  0.00000  0.08956
      10     H     0.45819  0.45819  0.00000  0.08362

   Total alpha = 13.00000, Total beta = 13.00000, Total charge = -0.00000

*** Psi4 exiting successfully. Buy a developer a beer!
