  ==> Input File <==

--------------------------------------------------------------------------
set {
	reference rhf
	basis 6-31G*
}

set_num_threads( 1 )
memory 2 gb

molecule MOL {
0 1

H	 -3.420663	 1.227371	 -1.044276
O	 -3.452007	 0.283848	 -0.965577
C	 -3.181085	 -0.079926	 0.364119
C	 -1.765924	 0.277073	 0.805136
H	 -3.327791	 -1.152017	 0.410903
H	 -3.905698	 0.375695	 1.036898
C	 -0.938333	 -0.933192	 1.239725
H	 -1.260056	 0.794384	 -0.010614
H	 -1.832550	 0.993051	 1.622546
C	 0.486904	 -0.566720	 1.658742
H	 -0.907981	 -1.654187	 0.428580
H	 -1.442137	 -1.427661	 2.068626
C	 1.307263	 -1.782495	 2.098048
H	 0.981033	 -0.064790	 0.830296
H	 0.450481	 0.154232	 2.474527
C	 2.714253	 -1.455538	 2.611501
H	 1.382490	 -2.484203	 1.268807
H	 0.764964	 -2.301910	 2.885409
C	 3.660416	 -0.884371	 1.553697
H	 3.152782	 -2.364477	 3.016237
H	 2.640315	 -0.758562	 3.443944
H	 3.744197	 -1.554958	 0.702560
H	 4.656563	 -0.744976	 1.962471
H	 3.323497	 0.078551	 1.184334

	symmetry c1
}
set optking {
	frozen_dihedral = ("
		20 16 13 17,
		17 13 10 7,
		13 10 7 11,
		11 7 4 3,
		1 2 3 5
	")
}

ee = energy('scf')
oeprop('DIPOLE', 'QUADRUPOLE', 'MULLIKEN_CHARGES')
f=open( 'psi4out.xyz', 'w' )
f.write( "24  " )
f.write( str(ee) + "\n" )
f.write( MOL.save_string_xyz() )
f.close()
--------------------------------------------------------------------------

    Molecular point group: c1

    Geometry (in Angstrom), charge = 0, multiplicity = 1:

       Center              X                  Y                   Z               Mass
    ------------   -----------------  -----------------  -----------------  -----------------
           H         -3.224537958444     1.843384268833    -2.172270866840     1.007825032070
           O         -3.255881958444     0.899861268833    -2.093571866840    15.994914619560
           C         -2.984959958444     0.536087268833    -0.763875866840    12.000000000000
           C         -1.569798958444     0.893086268833    -0.322858866840    12.000000000000
           H         -3.131665958444    -0.536003731167    -0.717091866840     1.007825032070
           H         -3.709572958444     0.991708268833    -0.091096866840     1.007825032070
           C         -0.742207958444    -0.317178731167     0.111730133160    12.000000000000
           H         -1.063930958444     1.410397268833    -1.138608866840     1.007825032070
           H         -1.636424958444     1.609064268833     0.494551133160     1.007825032070
           C          0.683029041556     0.049293268833     0.530747133160    12.000000000000
           H         -0.711855958444    -1.038173731167    -0.699414866840     1.007825032070
           H         -1.246011958444    -0.811647731167     0.940631133160     1.007825032070
           C          1.503388041556    -1.166481731167     0.970053133160    12.000000000000
           H          1.177158041556     0.551223268833    -0.297698866840     1.007825032070
           H          0.646606041556     0.770245268833     1.346532133160     1.007825032070
           C          2.910378041556    -0.839524731167     1.483506133160    12.000000000000
           H          1.578615041556    -1.868189731167     0.140812133160     1.007825032070
           H          0.961089041556    -1.685896731167     1.757414133160     1.007825032070
           C          3.856541041556    -0.268357731167     0.425702133160    12.000000000000
           H          3.348907041556    -1.748463731167     1.888242133160     1.007825032070
           H          2.836440041556    -0.142548731167     2.315949133160     1.007825032070
           H          3.940322041556    -0.938944731167    -0.425434866840     1.007825032070
           H          4.852688041556    -0.128962731167     0.834476133160     1.007825032070
           H          3.519622041556     0.694564268833     0.056339133160     1.007825032070

  Charge       = 0
  Multiplicity = 1
  Basis Set: 6-31G*
  Basis Set:

    Orbital Energies (a.u.)
    -----------------------

    Doubly Occupied:

       1A    -20.550908     2A    -11.265423     3A    -11.217104
       4A    -11.215319     5A    -11.214571     6A    -11.214326
       7A    -11.213411     8A    -11.208057     9A     -1.357834
      10A     -1.091078    11A     -1.050102    12A     -0.985710
      13A     -0.914007    14A     -0.849931    15A     -0.805778
      16A     -0.777891    17A     -0.687277    18A     -0.646338
      19A     -0.624948    20A     -0.616260    21A     -0.597551
      22A     -0.585186    23A     -0.565186    24A     -0.532264
      25A     -0.520439    26A     -0.517061    27A     -0.489310
      28A     -0.479850    29A     -0.464192    30A     -0.461352
      31A     -0.458032    32A     -0.453802    33A     -0.416385

  @DF-RHF Final Energy:  -349.24094118861012

   => Energetics <=

    Nuclear Repulsion Energy =            381.0335036867709277
    One-Electron Energy =               -1228.4559455063679252
    Two-Electron Energy =                 498.1815006309872160
    DFT Exchange-Correlation Energy =       0.0000000000000000
    Empirical Dispersion Energy =           0.0000000000000000
    PCM Polarization Energy =               0.0000000000000000
    EFP Energy =                            0.0000000000000000
    Total Energy =                       -349.2409411886097814

  Mulliken Charges: (a.u.)
   Center  Symbol    Alpha    Beta     Spin     Total
       1     H     0.28373  0.28373  0.00000  0.43253
       2     O     4.36977  4.36977  0.00000 -0.73954
       3     C     2.99605  2.99605  0.00000  0.00790
       4     C     3.17151  3.17151  0.00000 -0.34301
       5     H     0.41347  0.41347  0.00000  0.17305
       6     H     0.42978  0.42978  0.00000  0.14044
       7     C     3.15843  3.15843  0.00000 -0.31686
       8     H     0.41606  0.41606  0.00000  0.16789
       9     H     0.42288  0.42288  0.00000  0.15423
      10     C     3.15438  3.15438  0.00000 -0.30876
      11     H     0.41709  0.41709  0.00000  0.16582
      12     H     0.42334  0.42334  0.00000  0.15333
      13     C     3.15267  3.15267  0.00000 -0.30535
      14     H     0.42060  0.42060  0.00000  0.15880
      15     H     0.42450  0.42450  0.00000  0.15100
      16     C     3.15233  3.15233  0.00000 -0.30466
      17     H     0.42347  0.42347  0.00000  0.15307
      18     H     0.42259  0.42259  0.00000  0.15481
      19     C     3.24116  3.24116  0.00000 -0.48232
      20     H     0.42094  0.42094  0.00000  0.15812
      21     H     0.42370  0.42370  0.00000  0.15259
      22     H     0.42190  0.42190  0.00000  0.15620
      23     H     0.41935  0.41935  0.00000  0.16129
      24     H     0.42028  0.42028  0.00000  0.15943

   Total alpha = 33.00000, Total beta = 33.00000, Total charge = -0.00000
