  ==> Input File <==

--------------------------------------------------------------------------
set {
	reference rhf
	basis 6-31G*
}

set_num_threads( 4 )
memory 2 gb

molecule MOL {
0 1

H	 -3.010134	 -2.305157	 2.533271
C	 -2.761338	 -1.643718	 1.726265
C	 -1.552160	 -1.661468	 1.214822
H	 -3.518275	 -0.978292	 1.355907
O	 -1.180634	 -0.819263	 0.215062
H	 -0.782075	 -2.325126	 1.566565
C	 0.051604	 -1.018856	 -0.387932
C	 1.043764	 0.054862	 -0.001873
H	 -0.017620	 -1.041351	 -1.469781
H	 0.437898	 -1.966374	 -0.042284
F	 2.212596	 -0.199467	 -0.571921
F	 0.652529	 1.252447	 -0.405055
F	 1.230877	 0.110694	 1.300533

	symmetry c1
}
set optking {
	frozen_dihedral = ("
		3 5 7 9
	")
}

ee = optimize('scf')
oeprop('DIPOLE', 'QUADRUPOLE', 'MULLIKEN_CHARGES')
f=open( 'psi4out.xyz', 'w' )
f.write( "13  " )
f.write( str(ee) + "\n" )
f.write( MOL.save_string_xyz() )
f.close()
--------------------------------------------------------------------------

    Molecular point group: c1
  Charge       = 0
  Multiplicity = 1
  Basis Set: 6-31G*
  Basis Set:
  @DF-RHF Final Energy:  -527.53349410492990
    Total Energy =                       -527.5334941049297868
    Molecular point group: c1
  Basis Set: 6-31G*
  Basis Set:
  Basis Set: 6-31G*
  Basis Set:
  @DF-RHF Final Energy:  -527.53467711640110
    Total Energy =                       -527.5346771164012125
  Basis Set: 6-31G*
  Basis Set:
  Basis Set: 6-31G*
  Basis Set:
  @DF-RHF Final Energy:  -527.53491239662026
    Total Energy =                       -527.5349123966203706
  Basis Set: 6-31G*
  Basis Set:
  Basis Set: 6-31G*
  Basis Set:
  @DF-RHF Final Energy:  -527.53492155888421
    Total Energy =                       -527.5349215588845482
  Basis Set: 6-31G*
  Basis Set:
  @DF-RHF Final Energy:  -527.53492629729544
    Total Energy =                       -527.5349262972955557
  Basis Set: 6-31G*
  Basis Set:
  @DF-RHF Final Energy:  -527.53492980992996
    Total Energy =                       -527.5349298099299631
  Basis Set: 6-31G*
  Basis Set:
  Basis Set: 6-31G*
  Basis Set:
  @DF-RHF Final Energy:  -527.53493373398237
    Total Energy =                       -527.5349337339821432
  Basis Set: 6-31G*
  Basis Set:
  Basis Set: 6-31G*
  Basis Set:
  @DF-RHF Final Energy:  -527.53493799899911
    Total Energy =                       -527.5349379989988847
  Basis Set: 6-31G*
  Basis Set:
  Charge       = 0
  Multiplicity = 1
  Basis Set: 6-31G*
  Basis Set:

    Orbital Energies (a.u.)
    -----------------------

    Doubly Occupied:

       1A    -26.343581     2A    -26.341368     3A    -26.339319
       4A    -20.607389     5A    -11.502251     6A    -11.318581
       7A    -11.301066     8A    -11.217642     9A     -1.740337
      10A     -1.638503    11A     -1.636809    12A     -1.437727
      13A     -1.085859    14A     -1.015842    15A     -0.924199
      16A     -0.836307    17A     -0.830067    18A     -0.815291
      19A     -0.795479    20A     -0.723948    21A     -0.710941
      22A     -0.698648    23A     -0.675945    24A     -0.657921
      25A     -0.653395    26A     -0.641630    27A     -0.627838
      28A     -0.589216    29A     -0.563502    30A     -0.528800
      31A     -0.507798    32A     -0.353498

  @DF-RHF Final Energy:  -527.53493853954274

   => Energetics <=

    Nuclear Repulsion Energy =            410.0085015194890161
    One-Electron Energy =               -1543.7654839833307960
    Two-Electron Energy =                 606.2220439242985321
    DFT Exchange-Correlation Energy =       0.0000000000000000
    Empirical Dispersion Energy =           0.0000000000000000
    PCM Polarization Energy =               0.0000000000000000
    EFP Energy =                            0.0000000000000000
    Total Energy =                       -527.5349385395431909
    Molecular point group: c1
  Basis Set: 6-31G*
  Basis Set:

  -Total Gradient:
     Atom            X                  Y                   Z
    ------   -----------------  -----------------  -----------------
       1       -0.000002057811    -0.000002766561     0.000001626191
       2       -0.000004369178    -0.000000972492    -0.000005051913
       3       -0.000601053125    -0.000744877304    -0.000892956534
       4        0.000000422430     0.000001191331     0.000005905627
       5        0.000840720315     0.000743660438     0.001302177636
       6       -0.000002441499     0.000001337660     0.000000709197
       7        0.000091314485     0.001573562619    -0.000425681918
       8        0.000059153662    -0.000072644771    -0.000002652988
       9       -0.000317073844    -0.001547789096     0.000032997376
      10        0.000029187295    -0.000009652547    -0.000021533613
      11       -0.000061159250     0.000017814162     0.000041074799
      12       -0.000013076191     0.000074474100    -0.000034057326
      13       -0.000019567284    -0.000033337539    -0.000002556534

  **** Optimization is complete! (in 9 steps) ****
    Final optimized geometry and variables:
    Molecular point group: c1

    Geometry (in Angstrom), charge = 0, multiplicity = 1:

    H           -3.159815769231    -1.908624998353     2.147842179537
    C           -2.898222839473    -1.254936606484     1.338458361594
    C           -1.658298542895    -1.210199477126     0.908180662138
    H           -3.664789180746    -0.638255203944     0.908175265537
    O           -1.269986566139    -0.373019496567    -0.086989107250
    H           -0.874949275845    -1.814854190109     1.330977010741
    C           -0.063192864835    -0.620434148584    -0.727583980827
    C            0.938773237308     0.449127122488    -0.366216849727
    H           -0.218414213523    -0.609620350435    -1.797622880530
    H            0.361524324165    -1.578414383915    -0.453307782178
    F            2.083662603215     0.215231012151    -0.991202435051
    F            0.528739343262     1.652585087107    -0.709899919421
    F            1.182663959576     0.458945422461     0.932856025369

  Mulliken Charges: (a.u.)
   Center  Symbol    Alpha    Beta     Spin     Total
       1     H     0.40702  0.40702  0.00000  0.18595
       2     C     3.23443  3.23443  0.00000 -0.46887
       3     C     2.89741  2.89741  0.00000  0.20518
       4     H     0.40152  0.40152  0.00000  0.19696
       5     O     4.30288  4.30288  0.00000 -0.60576
       6     H     0.40629  0.40629  0.00000  0.18741
       7     C     3.05996  3.05996  0.00000 -0.11992
       8     C     2.45295  2.45295  0.00000  1.09409
       9     H     0.39324  0.39324  0.00000  0.21352
      10     H     0.40594  0.40594  0.00000  0.18811
      11     F     4.68338  4.68338  0.00000 -0.36676
      12     F     4.67506  4.67506  0.00000 -0.35013
      13     F     4.67989  4.67989  0.00000 -0.35978

   Total alpha = 32.00000, Total beta = 32.00000, Total charge =  0.00000
