                              Psi4 1.0.54 Driver

  ==> Input File <==

--------------------------------------------------------------------------
set {
	reference rhf
	basis cc-pvtz
}

set_num_threads( 4 )
memory 2 gb

molecule MOL {
0 1

H	 -2.498963	 -0.741158	 -0.729149
O	 -2.346257	 -0.289210	 0.080372
C	 -1.183935	 0.486039	 -0.009831
C	 0.062853	 -0.375310	 0.027457
H	 -1.178881	 1.094526	 -0.908634
H	 -1.184406	 1.155156	 0.838676
O	 0.928086	 0.065260	 -0.966887
H	 -0.202731	 -1.421615	 -0.132565
H	 0.525589	 -0.302676	 1.009380
C	 2.135550	 -0.619820	 -1.029487
H	 1.982405	 -1.677280	 -1.233446
H	 2.717989	 -0.191518	 -1.831988
H	 2.694288	 -0.525715	 -0.101330

	symmetry c1
}
set optking {
	frozen_dihedral = ("
		8 4 3 5
	")
}

ee,wfn = optimize('scf', return_wfn=True)
oeprop( wfn, 'DIPOLE', 'QUADRUPOLE', 'MULLIKEN_CHARGES')
f=open( 'psi4out.xyz', 'w' )
f.write( "13  " )
f.write( str(ee) + "\n" )
f.write( MOL.save_string_xyz() )
f.close()
--------------------------------------------------------------------------

    Molecular point group: c1
  Charge       = 0
  Multiplicity = 1
  Basis Set: CC-PVTZ
  Basis Set:
  @DF-RHF Final Energy:  -268.05695279931194
    Total Energy =                       -268.0569527993120573
    Molecular point group: c1
  Basis Set: CC-PVTZ
  Basis Set:
  Basis Set: CC-PVTZ
  Basis Set:
  @DF-RHF Final Energy:  -268.05744890180517
    Total Energy =                       -268.0574489018052873
  Basis Set: CC-PVTZ
  Basis Set:
  Basis Set: CC-PVTZ
  Basis Set:
  @DF-RHF Final Energy:  -268.05763404882197
    Total Energy =                       -268.0576340488219671
  Basis Set: CC-PVTZ
  Basis Set:
  Basis Set: CC-PVTZ
  Basis Set:
  @DF-RHF Final Energy:  -268.05763728697616
    Total Energy =                       -268.0576372869761030
  Basis Set: CC-PVTZ
  Basis Set:
  Charge       = 0
  Multiplicity = 1
  Basis Set: CC-PVTZ
  Basis Set:

    Orbital Energies (a.u.)
    -----------------------

    Doubly Occupied:

       1A    -20.556556     2A    -20.550903     3A    -11.269869
       4A    -11.267995     5A    -11.267577     6A     -1.391804
       7A     -1.367528     8A     -1.017056     9A     -0.915395
      10A     -0.843589    11A     -0.708327    12A     -0.680281
      13A     -0.660322    14A     -0.631767    15A     -0.609964
      16A     -0.567009    17A     -0.540078    18A     -0.493569
      19A     -0.485360    20A     -0.440798    21A     -0.422472

  @DF-RHF Final Energy:  -268.05763771700163

   => Energetics <=

    Nuclear Repulsion Energy =            190.3816349766216263
    One-Electron Energy =                -743.5021113858206263
    Two-Electron Energy =                 285.0628386921973174
    DFT Exchange-Correlation Energy =       0.0000000000000000
    Empirical Dispersion Energy =           0.0000000000000000
    PCM Polarization Energy =               0.0000000000000000
    EFP Energy =                            0.0000000000000000
    Total Energy =                       -268.0576377170016826
    Molecular point group: c1
  Basis Set: CC-PVTZ
  Basis Set:

  -Total Gradient:
     Atom            X                  Y                   Z
    ------   -----------------  -----------------  -----------------
       1       -0.000002500719     0.000018279961     0.000023765062
       2       -0.000007782599    -0.000039764333    -0.000036511728
       3       -0.001565027269    -0.002225019633    -0.000838445245
       4        0.000516179226     0.000715974311    -0.002751998921
       5        0.001257414899     0.001785091397     0.001172928108
       6        0.000006951211    -0.000009035368     0.000000737910
       7        0.000003423224    -0.000008656768     0.000007270733
       8       -0.000242511310    -0.000245314688     0.002458943283
       9        0.000003089434     0.000014232885    -0.000022066991
      10        0.000014457485    -0.000003689930    -0.000008757293
      11        0.000005105438     0.000002039067    -0.000003889174
      12        0.000006375076    -0.000005285214    -0.000000742637
      13        0.000004825896     0.000001148315    -0.000001233107

  **** Optimization is complete! (in 5 steps) ****
    Final optimized geometry and variables:
    Molecular point group: c1

    Geometry (in Angstrom), charge = 0, multiplicity = 1:

    H           -2.437911716362    -0.551567506053    -0.276403106103
    O           -2.275013346413    -0.045878805375     0.499014177307
    C           -1.080800027465     0.670558022195     0.359954539674
    C            0.161719927682    -0.221710546190     0.393980179704
    H           -1.057644251608     1.249711216151    -0.556220660705
    H           -1.061322942389     1.372982940383     1.180940268427
    O            1.044550258784     0.181873007189    -0.604171651960
    H           -0.138338368990    -1.259430594837     0.258318865101
    H            0.648493219115    -0.164235443288     1.365629525841
    C            2.249373449609    -0.510340117289    -0.619823240911
    H            2.094483147513    -1.575278761513    -0.778883916712
    H            2.844753317752    -0.120020089438    -1.432210618493
    H            2.796254705251    -0.378306087672     0.310912677666

  Mulliken Charges: (a.u.)
   Center  Symbol    Alpha    Beta     Spin     Total
       1     H     0.39316  0.39316  0.00000  0.21369
       2     O     4.20274  4.20274  0.00000 -0.40548
       3     C     2.97121  2.97121  0.00000  0.05758
       4     C     2.97088  2.97088  0.00000  0.05825
       5     H     0.46326  0.46326  0.00000  0.07349
       6     H     0.45731  0.45731  0.00000  0.08537
       7     O     4.17391  4.17391  0.00000 -0.34783
       8     H     0.47550  0.47550  0.00000  0.04900
       9     H     0.47470  0.47470  0.00000  0.05059
      10     C     3.02932  3.02932  0.00000 -0.05863
      11     H     0.47147  0.47147  0.00000  0.05706
      12     H     0.44624  0.44624  0.00000  0.10752
      13     H     0.47031  0.47031  0.00000  0.05938

   Total alpha = 21.00000, Total beta = 21.00000, Total charge = -0.00000

*** Psi4 exiting successfully. Buy a developer a beer!
