  ==> Input File <==

--------------------------------------------------------------------------
set {
	reference rhf
	basis cc-pvtz
}

set_num_threads( 4 )
memory 2 gb

molecule MOL {
0 1

H	 3.376683	 0.968751	 1.307350
N	 2.547978	 0.413183	 1.292887
C	 1.860978	 0.530248	 0.016256
H	 1.967205	 0.731119	 2.040528
C	 0.644130	 -0.381765	 -0.031064
H	 2.557300	 0.238250	 -0.762705
H	 1.552202	 1.552346	 -0.207189
C	 -0.678115	 0.376691	 0.025731
H	 0.693998	 -0.977147	 -0.936845
H	 0.693309	 -1.082142	 0.800523
C	 -1.900706	 -0.535531	 -0.022488
H	 -0.725296	 1.079516	 -0.802982
H	 -0.715474	 0.974884	 0.933278
C	 -3.220513	 0.226854	 0.028039
H	 -1.865036	 -1.134397	 -0.928236
H	 -1.857948	 -1.236381	 0.806820
H	 -3.309098	 0.911849	 -0.808725
H	 -4.066838	 -0.449485	 -0.008086
H	 -3.301685	 0.809374	 0.939860

	symmetry c1
}
set optking {
	frozen_dihedral = ("
		6 3 5 9
	")
}

ee = optimize('scf')
oeprop('DIPOLE', 'QUADRUPOLE', 'MULLIKEN_CHARGES')
f=open( 'psi4out.xyz', 'w' )
f.write( "19  " )
f.write( str(ee) + "\n" )
f.write( MOL.save_string_xyz() )
f.close()
--------------------------------------------------------------------------

    Molecular point group: c1
  Charge       = 0
  Multiplicity = 1
  Basis Set: CC-PVTZ
  Basis Set:
  @DF-RHF Final Energy:  -251.44214185895240
    Total Energy =                       -251.4421418589522546
    Molecular point group: c1
  Basis Set: CC-PVTZ
  Basis Set:
  Basis Set: CC-PVTZ
  Basis Set:
  @DF-RHF Final Energy:  -251.44255664759311
    Total Energy =                       -251.4425566475930509
  Basis Set: CC-PVTZ
  Basis Set:
  Basis Set: CC-PVTZ
  Basis Set:
  @DF-RHF Final Energy:  -251.44266076428775
    Total Energy =                       -251.4426607642875524
  Basis Set: CC-PVTZ
  Basis Set:
  Basis Set: CC-PVTZ
  Basis Set:
  @DF-RHF Final Energy:  -251.44266282403564
    Total Energy =                       -251.4426628240356649
  Basis Set: CC-PVTZ
  Basis Set:
  Charge       = 0
  Multiplicity = 1
  Basis Set: CC-PVTZ
  Basis Set:

    Orbital Energies (a.u.)
    -----------------------

    Doubly Occupied:

       1A    -15.526990     2A    -11.238005     3A    -11.212421
       4A    -11.211637     5A    -11.207511     6A    -11.206264
       7A     -1.177504     8A     -1.073905     9A     -0.998026
      10A     -0.903203    11A     -0.815228    12A     -0.788338
      13A     -0.667825    14A     -0.639918    15A     -0.618756
      16A     -0.586695    17A     -0.564431    18A     -0.549638
      19A     -0.532912    20A     -0.501815    21A     -0.485180
      22A     -0.465762    23A     -0.461540    24A     -0.445213
      25A     -0.382589

  @DF-RHF Final Energy:  -251.44266309417395

   => Energetics <=

    Nuclear Repulsion Energy =            247.3013527627588246
    One-Electron Energy =                -828.9654244293549255
    Two-Electron Energy =                 330.2214085724222059
    DFT Exchange-Correlation Energy =       0.0000000000000000
    Empirical Dispersion Energy =           0.0000000000000000
    PCM Polarization Energy =               0.0000000000000000
    EFP Energy =                            0.0000000000000000
    Total Energy =                       -251.4426630941738949
    Molecular point group: c1
  Basis Set: CC-PVTZ
  Basis Set:

  -Total Gradient:
     Atom            X                  Y                   Z
    ------   -----------------  -----------------  -----------------
       1        0.000042730088     0.000015876497     0.000030959759
       2        0.000000356209    -0.000007933491    -0.000054109412
       3        0.001790871228    -0.002838189684     0.002619794353
       4       -0.000013975877     0.000011809807    -0.000008250804
       5       -0.002065541390     0.003046111133    -0.002204788417
       6       -0.001208124274     0.001854450593    -0.001825320244
       7        0.000007236128     0.000026964565     0.000005827712
       8        0.000047922944    -0.000030028035     0.000004023278
       9        0.001409551148    -0.002067421020     0.001407533334
      10       -0.000003174386    -0.000008134350     0.000014613259
      11        0.000001729991     0.000005995996     0.000026134340
      12        0.000015248755     0.000005174162     0.000004847273
      13        0.000001597495    -0.000017179195    -0.000005814128
      14       -0.000022427418    -0.000010546600    -0.000017909872
      15        0.000003407317     0.000003582036     0.000006330517
      16        0.000001234022     0.000006558846    -0.000000868861
      17       -0.000001132845     0.000004237611     0.000001605460
      18       -0.000010588312     0.000005522250    -0.000005000776
      19        0.000003079173    -0.000006851120     0.000000393228

  **** Optimization is complete! (in 5 steps) ****
    Final optimized geometry and variables:
    Molecular point group: c1

    Geometry (in Angstrom), charge = 0, multiplicity = 1:

    H            3.447077426344     0.878653601846     1.119237199471
    N            2.641768618086     0.289975318697     1.077700477366
    C            1.986925728509     0.397485369151    -0.218683041532
    H            2.028575851204     0.584483749454     1.809475691867
    C            0.743741814708    -0.501786020985    -0.301873969573
    H            2.701072694804     0.112949669363    -0.981499869554
    H            1.698155458975     1.422676638120    -0.453350958846
    C           -0.579678592945     0.255455749387    -0.234073750671
    H            0.780430171593    -1.098017368876    -1.207938848598
    H            0.795088993723    -1.215980412762     0.513520027352
    C           -1.801413708928    -0.658033187753    -0.251463246450
    H           -0.640605787139     0.950605488788    -1.067943849742
    H           -0.601867704686     0.864290210942     0.667982754223
    C           -3.121828870305     0.102876738568    -0.192934708106
    H           -1.777633708779    -1.269210154249    -1.149631774046
    H           -1.745088430335    -1.347716647072     0.586135879409
    H           -3.223328755093     0.776559171039    -1.037382666786
    H           -3.967403282379    -0.575190699409    -0.208108841048
    H           -3.191382408015     0.697252987534     0.712186851612

  Mulliken Charges: (a.u.)
   Center  Symbol    Alpha    Beta     Spin     Total
       1     H     0.43011  0.43011  0.00000  0.13977
       2     N     3.68624  3.68624  0.00000 -0.37249
       3     C     3.03469  3.03469  0.00000 -0.06939
       4     H     0.43128  0.43128  0.00000  0.13743
       5     C     3.09906  3.09906  0.00000 -0.19811
       6     H     0.45311  0.45311  0.00000  0.09378
       7     H     0.46783  0.46783  0.00000  0.06433
       8     C     3.08477  3.08477  0.00000 -0.16954
       9     H     0.44937  0.44937  0.00000  0.10126
      10     H     0.44806  0.44806  0.00000  0.10389
      11     C     3.08534  3.08534  0.00000 -0.17068
      12     H     0.45509  0.45509  0.00000  0.08981
      13     H     0.45779  0.45779  0.00000  0.08442
      14     C     3.14971  3.14971  0.00000 -0.29943
      15     H     0.45440  0.45440  0.00000  0.09120
      16     H     0.45368  0.45368  0.00000  0.09265
      17     H     0.45541  0.45541  0.00000  0.08918
      18     H     0.44836  0.44836  0.00000  0.10328
      19     H     0.45569  0.45569  0.00000  0.08863

   Total alpha = 25.00000, Total beta = 25.00000, Total charge = -0.00000
