  ==> Input File <==

--------------------------------------------------------------------------
set {
	reference rhf
	basis 6-31G*
}

set_num_threads( 4 )
memory 2 gb

molecule MOL {
0 1

H	 -2.301168	 -0.437071	 -1.638369
O	 -2.295932	 -0.261795	 -0.707972
C	 -1.162850	 0.495433	 -0.376731
C	 0.094020	 -0.356391	 -0.395123
H	 -1.038814	 1.344439	 -1.043187
H	 -1.323089	 0.880674	 0.620446
O	 1.171513	 0.459272	 -0.058250
H	 0.237366	 -0.791239	 -1.386254
H	 -0.011944	 -1.179160	 0.309438
C	 2.397842	 -0.198080	 -0.002151
H	 2.508049	 -0.905315	 -0.822092
H	 3.173794	 0.550865	 -0.078850
H	 2.517602	 -0.735921	 0.936026

	symmetry c1
}
set optking {
	frozen_dihedral = ("
		4 7 10 13
	")
}

ee = optimize('scf')
oeprop('DIPOLE', 'QUADRUPOLE', 'MULLIKEN_CHARGES')
f=open( 'psi4out.xyz', 'w' )
f.write( "13  " )
f.write( str(ee) + "\n" )
f.write( MOL.save_string_xyz() )
f.close()
--------------------------------------------------------------------------

    Molecular point group: c1
  Charge       = 0
  Multiplicity = 1
  Basis Set: 6-31G*
  Basis Set:
  @DF-RHF Final Energy:  -267.94968070695757
    Total Energy =                       -267.9496807069574515
    Molecular point group: c1
  Basis Set: 6-31G*
  Basis Set:
  Basis Set: 6-31G*
  Basis Set:
  @DF-RHF Final Energy:  -267.94972333949056
    Total Energy =                       -267.9497233394903901
  Basis Set: 6-31G*
  Basis Set:
  Basis Set: 6-31G*
  Basis Set:
  @DF-RHF Final Energy:  -267.94972846613518
    Total Energy =                       -267.9497284661351273
  Basis Set: 6-31G*
  Basis Set:
  Charge       = 0
  Multiplicity = 1
  Basis Set: 6-31G*
  Basis Set:

    Orbital Energies (a.u.)
    -----------------------

    Doubly Occupied:

       1A    -20.561601     2A    -20.560092     3A    -11.270977
       4A    -11.270124     5A    -11.268863     6A     -1.387666
       7A     -1.364974     8A     -1.018536     9A     -0.913439
      10A     -0.841754    11A     -0.709117    12A     -0.673706
      13A     -0.660376    14A     -0.636026    15A     -0.596941
      16A     -0.568342    17A     -0.546964    18A     -0.488822
      19A     -0.482068    20A     -0.438355    21A     -0.420875

  @DF-RHF Final Energy:  -267.94972861544693

   => Energetics <=

    Nuclear Repulsion Energy =            190.1399241196447463
    One-Electron Energy =                -742.8200651084979427
    Two-Electron Energy =                 284.7304123734064660
    DFT Exchange-Correlation Energy =       0.0000000000000000
    Empirical Dispersion Energy =           0.0000000000000000
    PCM Polarization Energy =               0.0000000000000000
    EFP Energy =                            0.0000000000000000
    Total Energy =                       -267.9497286154467020
    Molecular point group: c1
  Basis Set: 6-31G*
  Basis Set:

  -Total Gradient:
     Atom            X                  Y                   Z
    ------   -----------------  -----------------  -----------------
       1       -0.000015271555    -0.000009967315    -0.000006143797
       2       -0.000012168860     0.000000203290    -0.000034282135
       3        0.000003470859    -0.000007005242     0.000027436358
       4        0.000318908982     0.000410162392    -0.001962655004
       5       -0.000009754133     0.000003986833    -0.000002558455
       6        0.000022370754     0.000002346564    -0.000000869006
       7       -0.000111334439    -0.000006984399     0.003122254558
       8        0.000006863579     0.000007319868     0.000001752593
       9       -0.000005490788     0.000000543277    -0.000003581279
      10       -0.001256069731    -0.002520687954    -0.002188949641
      11       -0.000010857807     0.000008738221     0.000000555260
      12        0.000012832541     0.000006153963     0.000001302598
      13        0.001056500598     0.002105190503     0.001045737950

  **** Optimization is complete! (in 4 steps) ****
    Final optimized geometry and variables:
    Molecular point group: c1

    Geometry (in Angstrom), charge = 0, multiplicity = 1:

    H           -2.328141299985    -0.445292697072    -1.313284838865
    O           -2.321933837036    -0.271356443842    -0.382646138206
    C           -1.185719324357     0.481004723775    -0.050303311822
    C            0.067959516785    -0.375509903579    -0.068485851860
    H           -1.057420877450     1.329261848512    -0.716867689834
    H           -1.344928386071     0.867236477031     0.946616273021
    O            1.149108443854     0.439211337376     0.261614292925
    H            0.208909971923    -0.813055740316    -1.058265053581
    H           -0.041606770247    -1.195650227327     0.638631733753
    C            2.379321181823    -0.213770769074     0.320923466794
    H            2.503795990743    -0.913658989907    -0.501633973754
    H            3.152608549018     0.540258789608     0.255888933986
    H            2.499177753124    -0.743855256348     1.262999312286

  Mulliken Charges: (a.u.)
   Center  Symbol    Alpha    Beta     Spin     Total
       1     H     0.28127  0.28127  0.00000  0.43745
       2     O     4.37089  4.37089  0.00000 -0.74178
       3     C     3.00477  3.00477  0.00000 -0.00953
       4     C     2.99659  2.99659  0.00000  0.00681
       5     H     0.42229  0.42229  0.00000  0.15541
       6     H     0.40844  0.40844  0.00000  0.18312
       7     O     4.30859  4.30859  0.00000 -0.61718
       8     H     0.43710  0.43710  0.00000  0.12581
       9     H     0.42358  0.42358  0.00000  0.15284
      10     C     3.07911  3.07911  0.00000 -0.15822
      11     H     0.42962  0.42962  0.00000  0.14076
      12     H     0.41223  0.41223  0.00000  0.17554
      13     H     0.42551  0.42551  0.00000  0.14897

   Total alpha = 21.00000, Total beta = 21.00000, Total charge =  0.00000
