  ==> Input File <==

--------------------------------------------------------------------------
set {
	reference rhf
	basis 6-31G*
}

set_num_threads( 4 )
memory 2 gb

molecule MOL {
0 1

O	 1.542718	 0.226467	 0.159035
C	 2.701189	 0.057885	 -0.047330
C	 3.625805	 1.037999	 -0.727954
O	 3.347903	 -1.046386	 0.304773
C	 2.928785	 2.332332	 -1.141451
H	 4.452283	 1.220002	 -0.048984
H	 4.055054	 0.532463	 -1.589276
C	 3.827651	 3.293763	 -1.926424
H	 2.542020	 2.829703	 -0.257056
H	 2.063859	 2.081340	 -1.745875
C	 4.996079	 3.880806	 -1.129387
H	 3.209675	 4.111426	 -2.290094
H	 4.211818	 2.789499	 -2.811943
C	 5.796517	 4.916059	 -1.922198
H	 4.613050	 4.341893	 -0.220263
H	 5.667831	 3.087324	 -0.809845
C	 6.969834	 5.505653	 -1.137445
H	 5.133536	 5.721096	 -2.234617
H	 6.170799	 4.458542	 -2.836687
C	 7.761671	 6.541393	 -1.934903
H	 6.597709	 5.962368	 -0.222800
H	 7.635932	 4.702934	 -0.828030
H	 8.586159	 6.940655	 -1.352310
H	 7.130771	 7.375237	 -2.229629
H	 8.176423	 6.106162	 -2.839794
C	 4.728119	 -1.109107	 -0.004993
H	 4.882018	 -1.033965	 -1.071845
H	 5.068212	 -2.067527	 0.355250
H	 5.265056	 -0.311663	 0.488280

	symmetry c1
}
set optking {
	frozen_dihedral = ("
		1 2 4 26
	")
}

ee = optimize('scf')
oeprop('DIPOLE', 'QUADRUPOLE', 'MULLIKEN_CHARGES')
f=open( 'psi4out.xyz', 'w' )
f.write( "29  " )
f.write( str(ee) + "\n" )
f.write( MOL.save_string_xyz() )
f.close()
--------------------------------------------------------------------------

    Molecular point group: c1
  Charge       = 0
  Multiplicity = 1
  Basis Set: 6-31G*
  Basis Set:
  @DF-RHF Final Energy:  -501.01573438926960
    Total Energy =                       -501.0157343892692552
    Molecular point group: c1
  Basis Set: 6-31G*
  Basis Set:
  Basis Set: 6-31G*
  Basis Set:
  @DF-RHF Final Energy:  -501.01332139988085
    Total Energy =                       -501.0133213998815336
  Basis Set: 6-31G*
  Basis Set:
  Basis Set: 6-31G*
  Basis Set:
  @DF-RHF Final Energy:  -501.02452225536535
    Total Energy =                       -501.0245222553656959
  Basis Set: 6-31G*
  Basis Set:
  Basis Set: 6-31G*
  Basis Set:
  @DF-RHF Final Energy:  -501.02774387382567
    Total Energy =                       -501.0277438738257842
  Basis Set: 6-31G*
  Basis Set:
  @DF-RHF Final Energy:  -501.02797008382743
    Total Energy =                       -501.0279700838270855
  @DF-RHF Final Energy:  -501.02874544715485
    Total Energy =                       -501.0287454471545061
  Basis Set: 6-31G*
  Basis Set:
  @DF-RHF Final Energy:  -501.02885724601879
    Total Energy =                       -501.0288572460186742
  Basis Set: 6-31G*
  Basis Set:
  Basis Set: 6-31G*
  Basis Set:
  @DF-RHF Final Energy:  -501.02866345049620
    Total Energy =                       -501.0286634504959693
  Basis Set: 6-31G*
  Basis Set:
  Basis Set: 6-31G*
  Basis Set:
  @DF-RHF Final Energy:  -501.02889069304297
    Total Energy =                       -501.0288906930429675
  Basis Set: 6-31G*
  Basis Set:
  Charge       = 0
  Multiplicity = 1
  Basis Set: 6-31G*
  Basis Set:

    Orbital Energies (a.u.)
    -----------------------

    Doubly Occupied:

       1A    -20.602016     2A    -20.538116     3A    -11.373384
       4A    -11.296409     5A    -11.244953     6A    -11.223271
       7A    -11.221696     8A    -11.220521     9A    -11.219307
      10A    -11.218165    11A    -11.211888    12A     -1.462630
      13A     -1.363974    14A     -1.101937    15A     -1.068847
      16A     -1.014766    17A     -0.986449    18A     -0.945724
      19A     -0.870375    20A     -0.806116    21A     -0.795258
      22A     -0.762911    23A     -0.704928    24A     -0.688424
      25A     -0.672429    26A     -0.654799    27A     -0.632891
      28A     -0.608164    29A     -0.597609    30A     -0.588173
      31A     -0.571145    32A     -0.555259    33A     -0.542942
      34A     -0.540492    35A     -0.522192    36A     -0.510453
      37A     -0.501084    38A     -0.481594    39A     -0.473976
      40A     -0.466146    41A     -0.462488    42A     -0.446053
      43A     -0.442846    44A     -0.430088

  @DF-RHF Final Energy:  -501.02888974617679

   => Energetics <=

    Nuclear Repulsion Energy =            615.2968097989891021
    One-Electron Energy =               -1901.3656210277158607
    Two-Electron Energy =                 785.0399214825501986
    DFT Exchange-Correlation Energy =       0.0000000000000000
    Empirical Dispersion Energy =           0.0000000000000000
    PCM Polarization Energy =               0.0000000000000000
    EFP Energy =                            0.0000000000000000
    Total Energy =                       -501.0288897461764464
    Molecular point group: c1
  Basis Set: 6-31G*
  Basis Set:

  -Total Gradient:
     Atom            X                  Y                   Z
    ------   -----------------  -----------------  -----------------
       1       -0.000045108667     0.000157298772     0.000047888487
       2       -0.000066249702    -0.000189291865    -0.000189493044
       3        0.000042848658     0.000096850000     0.000135959411
       4        0.000068846777     0.000095798076    -0.000021499522
       5       -0.000028527296    -0.000054041017    -0.000044584829
       6        0.000052223067     0.000059510459    -0.000029530219
       7       -0.000038390982    -0.000042385836     0.000014023405
       8       -0.000036391738     0.000038473648    -0.000003816066
       9       -0.000034547251     0.000017950234    -0.000015143049
      10        0.000016867004    -0.000037833648     0.000001662914
      11       -0.000005339729    -0.000021838977     0.000027847007
      12        0.000010637743     0.000015919593     0.000031556967
      13       -0.000028888149     0.000039656851    -0.000032140193
      14        0.000023314155    -0.000020234614    -0.000008570356
      15        0.000001068478     0.000016204105    -0.000024904729
      16       -0.000009878512    -0.000060231234     0.000047833232
      17        0.000008652156    -0.000010338969    -0.000002319274
      18       -0.000002790139    -0.000004688439     0.000009401639
      19        0.000000688586     0.000004186501    -0.000008809872
      20       -0.000000287783    -0.000001195601    -0.000001229328
      21       -0.000002135069    -0.000000691692    -0.000001544089
      22       -0.000000160999     0.000002039913     0.000001341034
      23       -0.000000387534    -0.000000180112     0.000000227395
      24       -0.000000323243     0.000000639845    -0.000000259574
      25        0.000000458779     0.000000123023    -0.000000041287
      26       -0.000002157272    -0.000074826522     0.000103970819
      27       -0.000004818657     0.000021295065    -0.000005244736
      28        0.000071169415    -0.000014908795    -0.000012828734
      29        0.000009607919    -0.000033258761    -0.000019753416

  **** Optimization is complete! (in 10 steps) ****
    Final optimized geometry and variables:
    Molecular point group: c1

    Geometry (in Angstrom), charge = 0, multiplicity = 1:

    O           -2.769403197864    -2.013390797476     1.004850009032
    C           -1.625386580330    -2.228706464596     0.787872892744
    C           -0.708205569297    -1.237394160128     0.097534351643
    O           -1.106882239363    -3.399125479594     1.169920679911
    C           -1.433276183216     0.049560547723    -0.294380761599
    H            0.126863948628    -1.028459487537     0.758698527671
    H           -0.283442511630    -1.712148812829    -0.783660977127
    C           -0.558555309661     1.034142062795    -1.077775292574
    H           -1.818998481837     0.527669819594     0.600023784608
    H           -2.299496408892    -0.211892191096    -0.891097921387
    C            0.614482011770     1.626210885307    -0.291050857903
    H           -1.193765439781     1.848472775718    -1.418039881692
    H           -0.182273905148     0.550425637252    -1.978205292014
    C            1.387395646902     2.684172230956    -1.081240934285
    H            0.240121228897     2.068189352564     0.630936969998
    H            1.303467250539     0.838239529090     0.005900091296
    C            2.566647928957     3.277077485071    -0.307975710242
    H            0.708313255921     3.484853869530    -1.368814765486
    H            1.751057107834     2.246253287173    -2.009529508589
    C            3.330260686744     4.335841506352    -1.102687713134
    H            2.204923686518     3.714196087449     0.620254069123
    H            3.248945318846     2.478698801585    -0.023238410117
    H            4.159736955999     4.736762885163    -0.528464922020
    H            2.683218283106     5.165661306404    -1.372466372921
    H            3.734263818516     3.920735652768    -2.021781429668
    C            0.238546907954    -3.755266673190     0.960816239100
    H            0.487126581601    -3.783358458481    -0.092605549436
    H            0.345854567644    -4.746681529488     1.372616636198
    H            0.915793734637    -3.085651030833     1.475817246576

  Mulliken Charges: (a.u.)
   Center  Symbol    Alpha    Beta     Spin     Total
       1     O     4.26804  4.26804  0.00000 -0.53607
       2     C     2.59661  2.59661  0.00000  0.80678
       3     C     3.23630  3.23630  0.00000 -0.47260
       4     O     4.30357  4.30357  0.00000 -0.60714
       5     C     3.15005  3.15005  0.00000 -0.30011
       6     H     0.40221  0.40221  0.00000  0.19559
       7     H     0.40509  0.40509  0.00000  0.18982
       8     C     3.15743  3.15743  0.00000 -0.31486
       9     H     0.40985  0.40985  0.00000  0.18029
      10     H     0.40593  0.40593  0.00000  0.18813
      11     C     3.15489  3.15489  0.00000 -0.30978
      12     H     0.41671  0.41671  0.00000  0.16659
      13     H     0.42462  0.42462  0.00000  0.15076
      14     C     3.15028  3.15028  0.00000 -0.30056
      15     H     0.42149  0.42149  0.00000  0.15703
      16     H     0.42652  0.42652  0.00000  0.14697
      17     C     3.15149  3.15149  0.00000 -0.30298
      18     H     0.42240  0.42240  0.00000  0.15521
      19     H     0.42414  0.42414  0.00000  0.15173
      20     C     3.23943  3.23943  0.00000 -0.47887
      21     H     0.42227  0.42227  0.00000  0.15546
      22     H     0.42428  0.42428  0.00000  0.15144
      23     H     0.41887  0.41887  0.00000  0.16226
      24     H     0.42101  0.42101  0.00000  0.15798
      25     H     0.42184  0.42184  0.00000  0.15632
      26     C     3.09312  3.09312  0.00000 -0.18623
      27     H     0.41688  0.41688  0.00000  0.16624
      28     H     0.39776  0.39776  0.00000  0.20448
      29     H     0.41693  0.41693  0.00000  0.16613

   Total alpha = 44.00000, Total beta = 44.00000, Total charge = -0.00000
