  ==> Input File <==

--------------------------------------------------------------------------
set {
	reference rhf
	basis 6-31G*
}

set_num_threads( 1 )
memory 2 gb

molecule MOL {
0 1

H	 -3.161837	 0.500524	 -0.000234
C	 -2.367097	 -0.232926	 -0.000000
O	 -1.158440	 0.455814	 -0.000122
H	 -2.468853	 -0.861886	 -0.882833
H	 -2.468942	 -0.861421	 0.883154
C	 -0.029776	 -0.365156	 0.000148
C	 1.212217	 0.508981	 0.000007
H	 -0.036772	 -1.013236	 -0.877259
H	 -0.036869	 -1.012778	 0.877897
C	 2.496848	 -0.300895	 -0.169415
H	 1.120208	 1.237645	 -0.799521
H	 1.240541	 1.067095	 0.930816
H	 2.499307	 -0.848692	 -1.107678
H	 3.366641	 0.347403	 -0.165484
H	 2.620193	 -1.021060	 0.634670

	symmetry c1
}
set optking {
	frozen_dihedral = ("
		6 3 2 4,
		8 6 3 2
	")
}

ee = energy('scf')
oeprop('DIPOLE', 'QUADRUPOLE', 'MULLIKEN_CHARGES')
f=open( 'psi4out.xyz', 'w' )
f.write( "15  " )
f.write( str(ee) + "\n" )
f.write( MOL.save_string_xyz() )
f.close()
--------------------------------------------------------------------------

    Molecular point group: c1

    Geometry (in Angstrom), charge = 0, multiplicity = 1:

       Center              X                  Y                   Z               Mass
    ------------   -----------------  -----------------  -----------------  -----------------
           H         -3.160644844201     0.498835827145     0.034103759717     1.007825032070
           C         -2.365904844201    -0.234614172855     0.034337759717    12.000000000000
           O         -1.157247844201     0.454125827145     0.034215759717    15.994914619560
           H         -2.467660844201    -0.863574172855    -0.848495240283     1.007825032070
           H         -2.467749844201    -0.863109172855     0.917491759717     1.007825032070
           C         -0.028583844201    -0.366844172855     0.034485759717    12.000000000000
           C          1.213409155799     0.507292827145     0.034344759717    12.000000000000
           H         -0.035579844201    -1.014924172855    -0.842921240283     1.007825032070
           H         -0.035676844201    -1.014466172855     0.912234759717     1.007825032070
           C          2.498040155799    -0.302583172855    -0.135077240283    12.000000000000
           H          1.121400155799     1.235956827145    -0.765183240283     1.007825032070
           H          1.241733155799     1.065406827145     0.965153759717     1.007825032070
           H          2.500499155799    -0.850380172855    -1.073340240283     1.007825032070
           H          3.367833155799     0.345714827145    -0.131146240283     1.007825032070
           H          2.621385155799    -1.022748172855     0.669007759717     1.007825032070

  Charge       = 0
  Multiplicity = 1
  Basis Set: 6-31G*
  Basis Set:

    Orbital Energies (a.u.)
    -----------------------

    Doubly Occupied:

       1A    -20.553477     2A    -11.266219     3A    -11.263997
       4A    -11.214204     5A    -11.212897     6A     -1.378404
       7A     -1.057268     8A     -0.955314     9A     -0.877296
      10A     -0.809092    11A     -0.674836    12A     -0.654123
      13A     -0.630312    14A     -0.607372    15A     -0.565634
      16A     -0.541310    17A     -0.502595    18A     -0.489075
      19A     -0.478040    20A     -0.461470    21A     -0.413787

  @DF-RHF Final Energy:  -232.13925269795112

   => Energetics <=

    Nuclear Repulsion Energy =            189.7446377571629341
    One-Electron Energy =                -690.5543639670000857
    Two-Electron Energy =                 268.6704735118864278
    DFT Exchange-Correlation Energy =       0.0000000000000000
    Empirical Dispersion Energy =           0.0000000000000000
    PCM Polarization Energy =               0.0000000000000000
    EFP Energy =                            0.0000000000000000
    Total Energy =                       -232.1392526979507238

  Mulliken Charges: (a.u.)
   Center  Symbol    Alpha    Beta     Spin     Total
       1     H     0.41216  0.41216  0.00000  0.17568
       2     C     3.07934  3.07934  0.00000 -0.15868
       3     O     4.30577  4.30577  0.00000 -0.61153
       4     H     0.43040  0.43040  0.00000  0.13921
       5     H     0.43044  0.43044  0.00000  0.13912
       6     C     2.98162  2.98162  0.00000  0.03676
       7     C     3.16005  3.16005  0.00000 -0.32009
       8     H     0.43361  0.43361  0.00000  0.13278
       9     H     0.43313  0.43313  0.00000  0.13375
      10     C     3.24788  3.24788  0.00000 -0.49575
      11     H     0.41308  0.41308  0.00000  0.17384
      12     H     0.41537  0.41537  0.00000  0.16926
      13     H     0.42049  0.42049  0.00000  0.15903
      14     H     0.41549  0.41549  0.00000  0.16903
      15     H     0.42119  0.42119  0.00000  0.15761

   Total alpha = 21.00000, Total beta = 21.00000, Total charge = -0.00000
