  ==> Input File <==

--------------------------------------------------------------------------
set {
	reference rhf
	basis cc-pvtz
}

set_num_threads( 4 )
memory 2 gb

molecule MOL {
0 1

H	 2.828711	 -0.346904	 0.001083
C	 1.876752	 0.015931	 -0.363450
C	 0.776285	 -0.474665	 0.563092
H	 1.728113	 -0.357244	 -1.367440
H	 1.906171	 1.096574	 -0.386153
N	 -0.540022	 0.017605	 0.071630
H	 0.707111	 -1.548969	 0.573035
H	 0.886169	 -0.084184	 1.560432
O	 -1.500206	 -0.286315	 0.696029
O	 -0.541091	 0.656183	 -0.926675

	symmetry c1
}
set optking {
	frozen_dihedral = ("
		9 6 3 2
	")
}

ee = optimize('scf')
oeprop('DIPOLE', 'QUADRUPOLE', 'MULLIKEN_CHARGES')
f=open( 'psi4out.xyz', 'w' )
f.write( "10  " )
f.write( str(ee) + "\n" )
f.write( MOL.save_string_xyz() )
f.close()
--------------------------------------------------------------------------

    Molecular point group: c1
  Charge       = 0
  Multiplicity = 1
  Basis Set: CC-PVTZ
  Basis Set:
  @DF-RHF Final Energy:  -282.81096937921706
    Total Energy =                       -282.8109693792171129
    Molecular point group: c1
  Basis Set: CC-PVTZ
  Basis Set:
  Basis Set: CC-PVTZ
  Basis Set:
  @DF-RHF Final Energy:  -282.81128446111882
    Total Energy =                       -282.8112844611187597
  Basis Set: CC-PVTZ
  Basis Set:
  Basis Set: CC-PVTZ
  Basis Set:
  @DF-RHF Final Energy:  -282.80641094975817
    Total Energy =                       -282.8064109497582308
  Basis Set: CC-PVTZ
  Basis Set:
  Basis Set: CC-PVTZ
  Basis Set:
  @DF-RHF Final Energy:  -282.81252613300285
    Total Energy =                       -282.8125261330029616
  Basis Set: CC-PVTZ
  Basis Set:
  Basis Set: CC-PVTZ
  Basis Set:
  @DF-RHF Final Energy:  -282.81275065802799
    Total Energy =                       -282.8127506580280510
  Basis Set: CC-PVTZ
  Basis Set:
  Basis Set: CC-PVTZ
  Basis Set:
  @DF-RHF Final Energy:  -282.81286856698995
    Total Energy =                       -282.8128685669900619
  Basis Set: CC-PVTZ
  Basis Set:
  Basis Set: CC-PVTZ
  Basis Set:
  @DF-RHF Final Energy:  -282.81287712720479
    Total Energy =                       -282.8128771272050130
  Basis Set: CC-PVTZ
  Basis Set:
  Charge       = 0
  Multiplicity = 1
  Basis Set: CC-PVTZ
  Basis Set:

    Orbital Energies (a.u.)
    -----------------------

    Doubly Occupied:

       1A    -20.595287     2A    -20.588414     3A    -15.839689
       4A    -11.303323     5A    -11.243441     6A     -1.638660
       7A     -1.422936     8A     -1.123864     9A     -0.966887
      10A     -0.834726    11A     -0.762129    12A     -0.754669
      13A     -0.732233    14A     -0.637629    15A     -0.595330
      16A     -0.564060    17A     -0.538766    18A     -0.490492
      19A     -0.479949    20A     -0.455065

  @DF-RHF Final Energy:  -282.81287766138291

   => Energetics <=

    Nuclear Repulsion Energy =            186.5772848361910974
    One-Electron Energy =                -755.6452317750442944
    Two-Electron Energy =                 286.2550692774702270
    DFT Exchange-Correlation Energy =       0.0000000000000000
    Empirical Dispersion Energy =           0.0000000000000000
    PCM Polarization Energy =               0.0000000000000000
    EFP Energy =                            0.0000000000000000
    Total Energy =                       -282.8128776613829700
    Molecular point group: c1
  Basis Set: CC-PVTZ
  Basis Set:

  -Total Gradient:
     Atom            X                  Y                   Z
    ------   -----------------  -----------------  -----------------
       1       -0.000008745170    -0.000000286637     0.000002261345
       2       -0.000018091894    -0.000006307864    -0.000001327958
       3        0.000006322260    -0.000030994782     0.000010432029
       4        0.000004905166    -0.000000622337     0.000003832953
       5       -0.000002276080     0.000013976062    -0.000000868770
       6        0.000029378785     0.000001519834    -0.000006039860
       7        0.000000235618     0.000005909501     0.000004532370
       8        0.000008586188     0.000000892235     0.000003161944
       9        0.000011246240     0.000015370801    -0.000022910764
      10       -0.000031561118     0.000000543189     0.000006926707

  **** Optimization is complete! (in 8 steps) ****
    Final optimized geometry and variables:
    Molecular point group: c1

    Geometry (in Angstrom), charge = 0, multiplicity = 1:

    H            2.856937347354    -0.366632119223     0.032949834866
    C            1.930007178224     0.018098226115    -0.374839184681
    C            0.798673855290    -0.441432169035     0.514533106973
    H            1.816054532558    -0.353186392031    -1.382653610850
    H            1.990421316692     1.095846620768    -0.412010081675
    N           -0.548401580463     0.024418178440     0.062397475038
    H            0.709740556607    -1.515978648552     0.558964229159
    H            0.884033922054    -0.073827122018     1.525547978802
    O           -1.464267993724    -0.315259838112     0.734138120359
    O           -0.623061992984     0.687962875749    -0.913908244446

  Mulliken Charges: (a.u.)
   Center  Symbol    Alpha    Beta     Spin     Total
       1     H     0.44932  0.44932  0.00000  0.10136
       2     C     3.13815  3.13815  0.00000 -0.27630
       3     C     3.04398  3.04398  0.00000 -0.08796
       4     H     0.44171  0.44171  0.00000  0.11658
       5     H     0.44170  0.44170  0.00000  0.11659
       6     N     3.27611  3.27611  0.00000  0.44779
       7     H     0.43306  0.43306  0.00000  0.13389
       8     H     0.43307  0.43307  0.00000  0.13387
       9     O     4.17376  4.17376  0.00000 -0.34751
      10     O     4.16915  4.16915  0.00000 -0.33830

   Total alpha = 20.00000, Total beta = 20.00000, Total charge = -0.00000
