  ==> Input File <==

--------------------------------------------------------------------------
set {
	reference rhf
	basis 6-31G*
}

set_num_threads( 4 )
memory 2 gb

molecule MOL {
0 1

H	 0.096467	 1.946948	 -1.477955
C	 0.450463	 1.950655	 -0.439940
C	 0.692068	 0.589600	 0.160137
O	 0.617107	 2.979958	 0.130055
C	 -0.558097	 -0.297372	 0.091132
H	 1.025961	 0.723344	 1.182443
H	 1.499631	 0.118716	 -0.399275
C	 -1.850991	 0.512573	 -0.019058
H	 -0.476753	 -0.965681	 -0.762987
H	 -0.604799	 -0.930658	 0.975228
C	 -3.096943	 -0.368295	 -0.099594
H	 -1.800724	 1.150330	 -0.898172
H	 -1.931651	 1.177355	 0.838044
H	 -3.060452	 -1.020287	 -0.967456
H	 -3.996858	 0.233488	 -0.175704
H	 -3.191959	 -0.995686	 0.782074

	symmetry c1
}
set optking {
	frozen_dihedral = ("
		6 3 5 9
	")
}

ee = optimize('scf')
oeprop('DIPOLE', 'QUADRUPOLE', 'MULLIKEN_CHARGES')
f=open( 'psi4out.xyz', 'w' )
f.write( "16  " )
f.write( str(ee) + "\n" )
f.write( MOL.save_string_xyz() )
f.close()
--------------------------------------------------------------------------

    Molecular point group: c1
  Charge       = 0
  Multiplicity = 1
  Basis Set: 6-31G*
  Basis Set:
  @DF-RHF Final Energy:  -270.01121148473760
    Total Energy =                       -270.0112114847374869
    Molecular point group: c1
  Basis Set: 6-31G*
  Basis Set:
  Basis Set: 6-31G*
  Basis Set:
  @DF-RHF Final Energy:  -270.01381705891492
    Total Energy =                       -270.0138170589147535
  Basis Set: 6-31G*
  Basis Set:
  Basis Set: 6-31G*
  Basis Set:
  @DF-RHF Final Energy:  -270.01376245050051
    Total Energy =                       -270.0137624505008489
  Basis Set: 6-31G*
  Basis Set:
  Basis Set: 6-31G*
  Basis Set:
  @DF-RHF Final Energy:  -270.01320685655202
    Total Energy =                       -270.0132068565520740
  Basis Set: 6-31G*
  Basis Set:
  @DF-RHF Final Energy:  -270.01412379822125
    Total Energy =                       -270.0141237982214193
  @DF-RHF Final Energy:  -270.01413434399194
    Total Energy =                       -270.0141343439919410
  @DF-RHF Final Energy:  -270.01417217849121
    Total Energy =                       -270.0141721784909805
  Basis Set: 6-31G*
  Basis Set:
  @DF-RHF Final Energy:  -270.01417783219625
    Total Energy =                       -270.0141778321963102
  Basis Set: 6-31G*
  Basis Set:
  Basis Set: 6-31G*
  Basis Set:
  @DF-RHF Final Energy:  -270.01418240422271
    Total Energy =                       -270.0141824042224812
  Basis Set: 6-31G*
  Basis Set:
  Basis Set: 6-31G*
  Basis Set:
  @DF-RHF Final Energy:  -270.01418440069233
    Total Energy =                       -270.0141844006922724
  Basis Set: 6-31G*
  Basis Set:
  Charge       = 0
  Multiplicity = 1
  Basis Set: 6-31G*
  Basis Set:

    Orbital Energies (a.u.)
    -----------------------

    Doubly Occupied:

       1A    -20.561582     2A    -11.326370     3A    -11.236064
       4A    -11.235041     5A    -11.228655     6A    -11.218118
       7A     -1.401496     8A     -1.093507     9A     -1.016284
      10A     -0.905682    11A     -0.830345    12A     -0.778147
      13A     -0.669761    14A     -0.647676    15A     -0.625017
      16A     -0.604563    17A     -0.586220    18A     -0.556109
      19A     -0.522223    20A     -0.511190    21A     -0.493664
      22A     -0.476138    23A     -0.468048    24A     -0.409118

  @DF-RHF Final Energy:  -270.01418462177946

   => Energetics <=

    Nuclear Repulsion Energy =            233.7709556863020737
    One-Electron Energy =                -828.7682451168226407
    Two-Electron Energy =                 324.9831048087410181
    DFT Exchange-Correlation Energy =       0.0000000000000000
    Empirical Dispersion Energy =           0.0000000000000000
    PCM Polarization Energy =               0.0000000000000000
    EFP Energy =                            0.0000000000000000
    Total Energy =                       -270.0141846217795774
    Molecular point group: c1
  Basis Set: 6-31G*
  Basis Set:

  -Total Gradient:
     Atom            X                  Y                   Z
    ------   -----------------  -----------------  -----------------
       1       -0.000003892463     0.000001875791     0.000001430297
       2       -0.000020508965    -0.000000121792     0.000002155728
       3       -0.003587316889     0.005000197167     0.001287763399
       4       -0.000007171810    -0.000012457041    -0.000005698054
       5       -0.002105003811     0.003805409471    -0.004246927751
       6        0.003328302091    -0.004792920529    -0.000406138848
       7        0.000013807154     0.000025364340    -0.000006841232
       8        0.000017565755     0.000027140790     0.000008076181
       9        0.002394232569    -0.004052850233     0.003370277696
      10       -0.000028765957    -0.000005112383     0.000000637404
      11        0.000001668802     0.000002727606    -0.000007675504
      12       -0.000001907754    -0.000006745516     0.000003889176
      13       -0.000003795086     0.000007712084     0.000001498293
      14       -0.000002986851    -0.000003411722    -0.000001939588
      15        0.000003242868     0.000000454941     0.000000038837
      16        0.000002530343     0.000002737019    -0.000000546031

  **** Optimization is complete! (in 11 steps) ****
    Final optimized geometry and variables:
    Molecular point group: c1

    Geometry (in Angstrom), charge = 0, multiplicity = 1:

    H            0.995444155898     1.078700787375    -1.494204151758
    C            1.206594180848     1.071194829671    -0.418851933940
    C            1.291033665921    -0.293369494938     0.212577277853
    O            1.369705093678     2.094449166908     0.163349238085
    C            0.023581031789    -1.167238443750     0.049307464205
    H            1.566850060973    -0.190375656782     1.254807206888
    H            2.124701665585    -0.804269235504    -0.268049715969
    C           -1.302929149294    -0.404290183037    -0.003137338451
    H            0.129840013565    -1.821179348518    -0.811853213268
    H           -0.005614604087    -1.842756798182     0.900112117257
    C           -2.510376535303    -1.340452785562    -0.015127135074
    H           -1.338489034528     0.229544241999    -0.885635948296
    H           -1.367324385873     0.262239705245     0.853460435767
    H           -2.483593113193    -2.004253061043    -0.874622755915
    H           -3.438460012727    -0.779915300375    -0.058546224014
    H           -2.536793240516    -1.957132716931     0.878514721246

  Mulliken Charges: (a.u.)
   Center  Symbol    Alpha    Beta     Spin     Total
       1     H     0.43122  0.43122  0.00000  0.13756
       2     C     2.83187  2.83187  0.00000  0.33627
       3     C     3.21119  3.21119  0.00000 -0.42239
       4     O     4.23786  4.23786  0.00000 -0.47572
       5     C     3.16061  3.16061  0.00000 -0.32121
       6     H     0.39864  0.39864  0.00000  0.20272
       7     H     0.40839  0.40839  0.00000  0.18323
       8     C     3.16177  3.16177  0.00000 -0.32354
       9     H     0.41692  0.41692  0.00000  0.16616
      10     H     0.41288  0.41288  0.00000  0.17423
      11     C     3.24011  3.24011  0.00000 -0.48022
      12     H     0.42034  0.42034  0.00000  0.15932
      13     H     0.41256  0.41256  0.00000  0.17488
      14     H     0.42062  0.42062  0.00000  0.15876
      15     H     0.41543  0.41543  0.00000  0.16914
      16     H     0.41959  0.41959  0.00000  0.16082

   Total alpha = 24.00000, Total beta = 24.00000, Total charge = -0.00000
