  ==> Input File <==

--------------------------------------------------------------------------
set {
	reference rhf
	basis cc-pvtz
}

set_num_threads( 4 )
memory 2 gb

molecule MOL {
0 1

H	 -1.914444	 -0.587164	 0.871802
O	 -2.041679	 -0.058866	 0.103463
C	 -0.959304	 0.780994	 -0.094939
C	 0.354905	 0.037902	 -0.006215
H	 -0.985899	 1.279578	 -1.057596
H	 -0.969809	 1.529522	 0.682889
F	 0.412060	 -0.931028	 -0.902708
F	 1.359641	 0.856111	 -0.239961
F	 0.545380	 -0.506387	 1.171682

	symmetry c1
}
set optking {
	frozen_dihedral = ("
		1 2 3 5
	")
}

ee = optimize('scf')
oeprop('DIPOLE', 'QUADRUPOLE', 'MULLIKEN_CHARGES')
f=open( 'psi4out.xyz', 'w' )
f.write( "9  " )
f.write( str(ee) + "\n" )
f.write( MOL.save_string_xyz() )
f.close()
--------------------------------------------------------------------------

    Molecular point group: c1
  Charge       = 0
  Multiplicity = 1
  Basis Set: CC-PVTZ
  Basis Set:
  @DF-RHF Final Energy:  -450.84468494657369
    Total Energy =                       -450.8446849465736932
    Molecular point group: c1
  Basis Set: CC-PVTZ
  Basis Set:
  Basis Set: CC-PVTZ
  Basis Set:
  @DF-RHF Final Energy:  -450.84645810977486
    Total Energy =                       -450.8464581097746873
  Basis Set: CC-PVTZ
  Basis Set:
  Basis Set: CC-PVTZ
  Basis Set:
  @DF-RHF Final Energy:  -450.84679965807339
    Total Energy =                       -450.8467996580732802
  Basis Set: CC-PVTZ
  Basis Set:
  Basis Set: CC-PVTZ
  Basis Set:
  @DF-RHF Final Energy:  -450.84681089312392
    Total Energy =                       -450.8468108931240295
  Basis Set: CC-PVTZ
  Basis Set:
  Charge       = 0
  Multiplicity = 1
  Basis Set: CC-PVTZ
  Basis Set:

    Orbital Energies (a.u.)
    -----------------------

    Doubly Occupied:

       1A    -26.342884     2A    -26.341882     3A    -26.338036
       4A    -20.583093     5A    -11.496406     6A    -11.310054
       7A     -1.750477     8A     -1.647836     9A     -1.645218
      10A     -1.406731    11A     -1.051522    12A     -0.931702
      13A     -0.840360    14A     -0.838693    15A     -0.816131
      16A     -0.729681    17A     -0.721467    18A     -0.700657
      19A     -0.674018    20A     -0.668923    21A     -0.651911
      22A     -0.634542    23A     -0.624878    24A     -0.532135
      25A     -0.484360

  @DF-RHF Final Energy:  -450.84681281945109

   => Energetics <=

    Nuclear Repulsion Energy =            277.9185679391420081
    One-Electron Energy =               -1178.0035650798845381
    Two-Electron Energy =                 449.2381843212913282
    DFT Exchange-Correlation Energy =       0.0000000000000000
    Empirical Dispersion Energy =           0.0000000000000000
    PCM Polarization Energy =               0.0000000000000000
    EFP Energy =                            0.0000000000000000
    Total Energy =                       -450.8468128194512019
    Molecular point group: c1
  Basis Set: CC-PVTZ
  Basis Set:

  -Total Gradient:
     Atom            X                  Y                   Z
    ------   -----------------  -----------------  -----------------
       1        0.000917123691    -0.001322357926    -0.001036171251
       2       -0.000841812042     0.001403392388     0.001079607545
       3       -0.000972803701     0.001234518528     0.000579048094
       4       -0.000067152565    -0.000073859054     0.000201388793
       5        0.000862176538    -0.001280323923    -0.000611460789
       6        0.000016127858    -0.000034055607    -0.000014397179
       7        0.000057790398     0.000057282739     0.000008284304
       8        0.000086714757     0.000014786003    -0.000115594576
       9       -0.000058164936     0.000000616852    -0.000090704943

  **** Optimization is complete! (in 5 steps) ****
    Final optimized geometry and variables:
    Molecular point group: c1

    Geometry (in Angstrom), charge = 0, multiplicity = 1:

    H           -1.930618142067    -0.561386990136     0.897295759662
    O           -2.044495735222    -0.062708548923     0.106929466825
    C           -0.963964101470     0.777533484273    -0.101982844075
    C            0.352912839191     0.036656726792    -0.038545253648
    H           -1.050830831253     1.192261496347    -1.094984792795
    H           -0.917421197361     1.585835780046     0.619408750125
    F            0.460088591098    -0.877928373032    -0.973268875292
    F            1.358528755271     0.873463214759    -0.175667570654
    F            0.495447067821    -0.574600389103     1.125302343568

  Mulliken Charges: (a.u.)
   Center  Symbol    Alpha    Beta     Spin     Total
       1     H     0.38659  0.38659  0.00000  0.22682
       2     O     4.19315  4.19315  0.00000 -0.38629
       3     C     2.98394  2.98394  0.00000  0.03211
       4     C     2.68637  2.68637  0.00000  0.62725
       5     H     0.44988  0.44988  0.00000  0.10024
       6     H     0.46353  0.46353  0.00000  0.07294
       7     F     4.60761  4.60761  0.00000 -0.21523
       8     F     4.61069  4.61069  0.00000 -0.22139
       9     F     4.61823  4.61823  0.00000 -0.23647

   Total alpha = 25.00000, Total beta = 25.00000, Total charge =  0.00000
