  ==> Input File <==

--------------------------------------------------------------------------
set {
	reference rhf
	basis cc-pvtz
}

set_num_threads( 4 )
memory 2 gb

molecule MOL {
0 1

O	 0.749630	 1.305591	 -0.000460
C	 0.576499	 0.134701	 -0.003900
C	 -0.765656	 -0.550508	 -0.002152
O	 1.564816	 -0.744612	 -0.000631
C	 -1.945526	 0.411052	 0.000603
H	 -0.794329	 -1.203792	 -0.868145
H	 -0.791555	 -1.205429	 0.862701
C	 -3.107886	 -0.104095	 -0.841102
H	 -1.620793	 1.376130	 -0.368946
H	 -2.271589	 0.573529	 1.020732
H	 -2.813909	 -0.244844	 -1.876031
H	 -3.935491	 0.594685	 -0.825665
H	 -3.472711	 -1.056164	 -0.469895
C	 2.884339	 -0.237801	 0.002883
H	 3.064150	 0.362814	 -0.876312
H	 3.533055	 -1.098529	 0.004958
H	 3.059365	 0.363432	 0.882614

	symmetry c1
}
set optking {
	frozen_dihedral = ("
		9 5 3 6
	")
}

ee = optimize('scf')
oeprop('DIPOLE', 'QUADRUPOLE', 'MULLIKEN_CHARGES')
f=open( 'psi4out.xyz', 'w' )
f.write( "17  " )
f.write( str(ee) + "\n" )
f.write( MOL.save_string_xyz() )
f.close()
--------------------------------------------------------------------------

    Molecular point group: c1
  Charge       = 0
  Multiplicity = 1
  Basis Set: CC-PVTZ
  Basis Set:
  @DF-RHF Final Energy:  -345.03188106310944
    Total Energy =                       -345.0318810631090969
    Molecular point group: c1
  Basis Set: CC-PVTZ
  Basis Set:
  Basis Set: CC-PVTZ
  Basis Set:
  @DF-RHF Final Energy:  -345.03193293638378
    Total Energy =                       -345.0319329363838960
  Basis Set: CC-PVTZ
  Basis Set:
  Basis Set: CC-PVTZ
  Basis Set:
  @DF-RHF Final Energy:  -345.03045649600585
    Total Energy =                       -345.0304564960053995
  Basis Set: CC-PVTZ
  Basis Set:
  Basis Set: CC-PVTZ
  Basis Set:
  @DF-RHF Final Energy:  -345.03222320768316
    Total Energy =                       -345.0322232076836144
  Basis Set: CC-PVTZ
  Basis Set:
  Basis Set: CC-PVTZ
  Basis Set:
  @DF-RHF Final Energy:  -345.03224216870819
    Total Energy =                       -345.0322421687078531
  Basis Set: CC-PVTZ
  Basis Set:
  Basis Set: CC-PVTZ
  Basis Set:
  @DF-RHF Final Energy:  -345.03224591362255
    Total Energy =                       -345.0322459136227167
  Basis Set: CC-PVTZ
  Basis Set:
  Charge       = 0
  Multiplicity = 1
  Basis Set: CC-PVTZ
  Basis Set:

    Orbital Energies (a.u.)
    -----------------------

    Doubly Occupied:

       1A    -20.596894     2A    -20.535167     3A    -11.365875
       4A    -11.278940     5A    -11.234160     6A    -11.218928
       7A    -11.212662     8A     -1.473130     9A     -1.366684
      10A     -1.079687    11A     -1.002885    12A     -0.940210
      13A     -0.828897    14A     -0.769470    15A     -0.704503
      16A     -0.685648    17A     -0.676833    18A     -0.632467
      19A     -0.599795    20A     -0.574172    21A     -0.570372
      22A     -0.531162    23A     -0.524939    24A     -0.496395
      25A     -0.487575    26A     -0.474291    27A     -0.461065
      28A     -0.443316

  @DF-RHF Final Energy:  -345.03224619665400

   => Energetics <=

    Nuclear Repulsion Energy =            313.0022655576872239
    One-Electron Energy =               -1090.5367795252013821
    Two-Electron Energy =                 432.5022677708607262
    DFT Exchange-Correlation Energy =       0.0000000000000000
    Empirical Dispersion Energy =           0.0000000000000000
    PCM Polarization Energy =               0.0000000000000000
    EFP Energy =                            0.0000000000000000
    Total Energy =                       -345.0322461966534320
    Molecular point group: c1
  Basis Set: CC-PVTZ
  Basis Set:

  -Total Gradient:
     Atom            X                  Y                   Z
    ------   -----------------  -----------------  -----------------
       1        0.000012140685     0.000008964375    -0.000006997890
       2        0.000000129097    -0.000005043752    -0.000002534502
       3        0.002638413514     0.003364060773    -0.001613443359
       4        0.000003067711     0.000004698678     0.000006284185
       5       -0.001556115635    -0.001927249313    -0.003691242314
       6       -0.001947825093    -0.002472527272     0.001921738752
       7       -0.000004748288     0.000000764157    -0.000011373766
       8       -0.000004232069    -0.000004358239    -0.000003280048
       9        0.000854825374     0.001036750576     0.003398921963
      10        0.000000078301    -0.000004810271     0.000003255011
      11        0.000000058284    -0.000001084065     0.000000900679
      12        0.000002686729     0.000000396110    -0.000000482092
      13       -0.000003453071    -0.000000463281    -0.000000556075
      14        0.000007958329     0.000001984793    -0.000000456477
      15       -0.000000584579    -0.000000406561    -0.000000079414
      16       -0.000001603159    -0.000000605350    -0.000000072455
      17       -0.000000796124    -0.000001071358    -0.000000582199

  **** Optimization is complete! (in 7 steps) ****
    Final optimized geometry and variables:
    Molecular point group: c1

    Geometry (in Angstrom), charge = 0, multiplicity = 1:

    O            0.749635069515     1.280456318362     0.133728857370
    C            0.561765148142     0.112020173939     0.116262615808
    C           -0.784758715855    -0.564876740975     0.085595191671
    O            1.540512650935    -0.777865403075     0.124359839199
    C           -1.983930135102     0.385623126938     0.094068005582
    H           -0.805253347478    -1.223363102394    -0.776270927119
    H           -0.813337186083    -1.235805038861     0.937702061396
    C           -3.172246613280    -0.153409934583    -0.693284383170
    H           -1.677496370390     1.352791085066    -0.279300694018
    H           -2.285358776970     0.560306353312     1.121516494406
    H           -2.921878260364    -0.280473938042    -1.741191764974
    H           -4.015233711831     0.524538455791    -0.633955564971
    H           -3.496010979206    -1.116528422196    -0.311992169691
    C            2.865074810868    -0.285845313447     0.154063471398
    H            3.065421591340     0.322881724997    -0.715136102698
    H            3.504659404602    -1.153472427583     0.156091184301
    H            3.033085868776     0.303316802825     1.043355638385

  Mulliken Charges: (a.u.)
   Center  Symbol    Alpha    Beta     Spin     Total
       1     O     4.19599  4.19599  0.00000 -0.39197
       2     C     2.80236  2.80236  0.00000  0.39529
       3     C     3.10206  3.10206  0.00000 -0.20413
       4     O     4.14740  4.14740  0.00000 -0.29481
       5     C     3.08511  3.08511  0.00000 -0.17023
       6     H     0.44051  0.44051  0.00000  0.11897
       7     H     0.43816  0.43816  0.00000  0.12367
       8     C     3.14937  3.14937  0.00000 -0.29874
       9     H     0.43762  0.43762  0.00000  0.12476
      10     H     0.45320  0.45320  0.00000  0.09360
      11     H     0.45495  0.45495  0.00000  0.09010
      12     H     0.44694  0.44694  0.00000  0.10613
      13     H     0.45562  0.45562  0.00000  0.08875
      14     C     3.03663  3.03663  0.00000 -0.07327
      15     H     0.45434  0.45434  0.00000  0.09132
      16     H     0.44538  0.44538  0.00000  0.10924
      17     H     0.45435  0.45435  0.00000  0.09131

   Total alpha = 28.00000, Total beta = 28.00000, Total charge = -0.00000
