  ==> Input File <==

--------------------------------------------------------------------------
set {
	reference rhf
	basis 6-31G*
}

set_num_threads( 1 )
memory 2 gb

molecule MOL {
0 1

H	 -2.657337	 -0.498583	 -0.790384
O	 -2.347518	 -0.290803	 0.079804
C	 -1.184022	 0.487508	 -0.006784
C	 0.062599	 -0.378592	 0.031606
H	 -1.176523	 1.099369	 -0.904519
H	 -1.187323	 1.153111	 0.844927
O	 1.171513	 0.459272	 -0.058250
H	 0.050699	 -1.089204	 -0.797170
H	 0.078739	 -0.954914	 0.954740
C	 2.397842	 -0.198080	 -0.002151
H	 2.508049	 -0.905315	 -0.822092
H	 3.173794	 0.550865	 -0.078850
H	 2.517602	 -0.735921	 0.936026

	symmetry c1
}
set optking {
	frozen_dihedral = ("
		8 4 3 5,
		10 7 4 8,
		4 7 10 13
	")
}

ee = energy('scf')
oeprop('DIPOLE', 'QUADRUPOLE', 'MULLIKEN_CHARGES')
f=open( 'psi4out.xyz', 'w' )
f.write( "13  " )
f.write( str(ee) + "\n" )
f.write( MOL.save_string_xyz() )
f.close()
--------------------------------------------------------------------------

    Molecular point group: c1

    Geometry (in Angstrom), charge = 0, multiplicity = 1:

       Center              X                  Y                   Z               Mass
    ------------   -----------------  -----------------  -----------------  -----------------
           H         -2.655239911062    -0.501650411468    -0.789783635537     1.007825032070
           O         -2.345420911062    -0.293870411468     0.080404364463    15.994914619560
           C         -1.181924911062     0.484440588532    -0.006183635537    12.000000000000
           C          0.064696088938    -0.381659411468     0.032206364463    12.000000000000
           H         -1.174425911062     1.096301588532    -0.903918635537     1.007825032070
           H         -1.185225911062     1.150043588532     0.845527364463     1.007825032070
           O          1.173610088938     0.456204588532    -0.057649635537    15.994914619560
           H          0.052796088938    -1.092271411468    -0.796569635537     1.007825032070
           H          0.080836088938    -0.957981411468     0.955340364463     1.007825032070
           C          2.399939088938    -0.201147411468    -0.001550635537    12.000000000000
           H          2.510146088938    -0.908382411468    -0.821491635537     1.007825032070
           H          3.175891088938     0.547797588532    -0.078249635537     1.007825032070
           H          2.519699088938    -0.738988411468     0.936626364463     1.007825032070

  Charge       = 0
  Multiplicity = 1
  Basis Set: 6-31G*
  Basis Set:

    Orbital Energies (a.u.)
    -----------------------

    Doubly Occupied:

       1A    -20.560905     2A    -20.559622     3A    -11.269181
       4A    -11.269088     5A    -11.268319     6A     -1.387430
       7A     -1.364781     8A     -1.017686     9A     -0.912549
      10A     -0.838275    11A     -0.711718    12A     -0.674184
      13A     -0.655563    14A     -0.639156    15A     -0.598033
      16A     -0.561936    17A     -0.546062    18A     -0.485771
      19A     -0.484836    20A     -0.437278    21A     -0.420333

  @DF-RHF Final Energy:  -267.95020558670893

   => Energetics <=

    Nuclear Repulsion Energy =            190.1222591256080818
    One-Electron Energy =                -742.8194472779601938
    Two-Electron Energy =                 284.7469825656432363
    DFT Exchange-Correlation Energy =       0.0000000000000000
    Empirical Dispersion Energy =           0.0000000000000000
    PCM Polarization Energy =               0.0000000000000000
    EFP Energy =                            0.0000000000000000
    Total Energy =                       -267.9502055867088188

  Mulliken Charges: (a.u.)
   Center  Symbol    Alpha    Beta     Spin     Total
       1     H     0.27952  0.27952  0.00000  0.44097
       2     O     4.37198  4.37198  0.00000 -0.74396
       3     C     3.00677  3.00677  0.00000 -0.01355
       4     C     2.99374  2.99374  0.00000  0.01252
       5     H     0.42269  0.42269  0.00000  0.15461
       6     H     0.41035  0.41035  0.00000  0.17930
       7     O     4.30804  4.30804  0.00000 -0.61608
       8     H     0.43531  0.43531  0.00000  0.12938
       9     H     0.42374  0.42374  0.00000  0.15252
      10     C     3.07967  3.07967  0.00000 -0.15935
      11     H     0.42927  0.42927  0.00000  0.14145
      12     H     0.41112  0.41112  0.00000  0.17775
      13     H     0.42778  0.42778  0.00000  0.14443

   Total alpha = 21.00000, Total beta = 21.00000, Total charge =  0.00000
