                              Psi4 1.0.54 Driver

  ==> Input File <==

--------------------------------------------------------------------------
set {
	reference rhf
	basis cc-pvtz
}

set_num_threads( 4 )
memory 2 gb

molecule MOL {
0 1

H	 3.721907	 -0.933076	 -0.066039
O	 2.824271	 -1.154299	 0.131461
C	 2.076458	 -0.067370	 -0.038225
C	 0.626018	 -0.337582	 0.258241
O	 2.538288	 0.965419	 -0.381593
C	 -0.267326	 0.883135	 0.076490
H	 0.325620	 -1.161483	 -0.378003
H	 0.574537	 -0.713685	 1.275261
C	 -1.726822	 0.642622	 0.463839
H	 -0.210803	 1.217591	 -0.953497
H	 0.129920	 1.693110	 0.675679
C	 -2.480891	 -0.340606	 -0.429852
H	 -2.243098	 1.597649	 0.438609
H	 -1.776542	 0.301208	 1.495542
C	 -3.178273	 -1.441364	 0.362907
H	 -3.217418	 0.202971	 -1.015587
H	 -1.800832	 -0.797544	 -1.141669
H	 -3.706772	 -2.123081	 -0.293320
H	 -3.899238	 -1.025452	 1.058554
H	 -2.463992	 -2.022198	 0.937005

	symmetry c1
}
set optking {
	frozen_dihedral = ("
		16 12 9 6
	")
}

ee,wfn = optimize('scf', return_wfn=True)
oeprop( wfn, 'DIPOLE', 'QUADRUPOLE', 'MULLIKEN_CHARGES')
f=open( 'psi4out.xyz', 'w' )
f.write( "20  " )
f.write( str(ee) + "\n" )
f.write( MOL.save_string_xyz() )
f.close()
--------------------------------------------------------------------------

    Molecular point group: c1
  Charge       = 0
  Multiplicity = 1
  Basis Set: CC-PVTZ
  Basis Set:
  @DF-RHF Final Energy:  -384.08941185141470
    Total Energy =                       -384.0894118514147522
    Molecular point group: c1
  Basis Set: CC-PVTZ
  Basis Set:
  Basis Set: CC-PVTZ
  Basis Set:
  @DF-RHF Final Energy:  -384.08970349046905
    Total Energy =                       -384.0897034904692191
  Basis Set: CC-PVTZ
  Basis Set:
  Basis Set: CC-PVTZ
  Basis Set:
  @DF-RHF Final Energy:  -384.08980288405303
    Total Energy =                       -384.0898028840527445
  Basis Set: CC-PVTZ
  Basis Set:
  Basis Set: CC-PVTZ
  Basis Set:
  @DF-RHF Final Energy:  -384.08986322350296
    Total Energy =                       -384.0898632235030732
  Basis Set: CC-PVTZ
  Basis Set:
  Basis Set: CC-PVTZ
  Basis Set:
  @DF-RHF Final Energy:  -384.08975988518284
    Total Energy =                       -384.0897598851829571
  Basis Set: CC-PVTZ
  Basis Set:
  Basis Set: CC-PVTZ
  Basis Set:
  @DF-RHF Final Energy:  -384.08987648550664
    Total Energy =                       -384.0898764855065792
  Basis Set: CC-PVTZ
  Basis Set:
  Charge       = 0
  Multiplicity = 1
  Basis Set: CC-PVTZ
  Basis Set:

    Orbital Energies (a.u.)
    -----------------------

    Doubly Occupied:

       1A    -20.604020     2A    -20.540645     3A    -11.373615
       4A    -11.238985     5A    -11.221351     6A    -11.218670
       7A    -11.218048     8A    -11.211611     9A     -1.477598
      10A     -1.369130    11A     -1.096736    12A     -1.040341
      13A     -0.963170    14A     -0.871178    15A     -0.815939
      16A     -0.780266    17A     -0.703811    18A     -0.693750
      19A     -0.667106    20A     -0.629493    21A     -0.609125
      22A     -0.596738    23A     -0.583342    24A     -0.554717
      25A     -0.537119    26A     -0.511634    27A     -0.503632
      28A     -0.484587    29A     -0.470347    30A     -0.464325
      31A     -0.457119    32A     -0.446072

  @DF-RHF Final Energy:  -384.08987676077322

   => Energetics <=

    Nuclear Repulsion Energy =            379.4243358326764337
    One-Electron Energy =               -1275.1199849617473774
    Two-Electron Energy =                 511.6057723682981759
    DFT Exchange-Correlation Energy =       0.0000000000000000
    Empirical Dispersion Energy =           0.0000000000000000
    PCM Polarization Energy =               0.0000000000000000
    EFP Energy =                            0.0000000000000000
    Total Energy =                       -384.0898767607727677
    Molecular point group: c1
  Basis Set: CC-PVTZ
  Basis Set:

  -Total Gradient:
     Atom            X                  Y                   Z
    ------   -----------------  -----------------  -----------------
       1        0.000025264164    -0.000014473670     0.000002247101
       2        0.000036841146     0.000006650846    -0.000006606362
       3       -0.000051071127     0.000022471223    -0.000036280858
       4       -0.000022492670     0.000003106163    -0.000015935767
       5        0.000016138415    -0.000031628693     0.000031123316
       6        0.000319168381    -0.000853651829     0.000658387666
       7        0.000007441919     0.000003388577     0.000009940320
       8        0.000004418586     0.000006221185     0.000006017454
       9       -0.000704930009     0.001161555926    -0.000647605139
      10       -0.000010545987    -0.000004590344     0.000001248720
      11       -0.000002274237     0.000003849642    -0.000001886837
      12        0.001369722953    -0.000050509478    -0.001081754202
      13        0.000001453846     0.000006950324     0.000005214578
      14        0.000012802497     0.000002596586    -0.000005757120
      15       -0.000004138653    -0.000011462574    -0.000001421511
      16       -0.000995822160    -0.000249968899     0.001086535310
      17       -0.000003767840    -0.000005331473     0.000000264299
      18       -0.000002780517     0.000000953575     0.000000133503
      19        0.000004273665     0.000003533768     0.000000370630
      20        0.000000297633     0.000000339147    -0.000004235100

  **** Optimization is complete! (in 7 steps) ****
    Final optimized geometry and variables:
    Molecular point group: c1

    Geometry (in Angstrom), charge = 0, multiplicity = 1:

    H            3.612181912441    -0.807487600467    -0.187620731517
    O            2.729308114489    -1.008354157999     0.084308891981
    C            1.969093742799     0.061844533200    -0.130845099057
    C            0.541183672551    -0.177580925709     0.279312338626
    O            2.404843987591     1.060221177487    -0.590422364002
    C           -0.365547818735     1.027048564187     0.062544723508
    H            0.198864615773    -1.048972833302    -0.267389942990
    H            0.555614480258    -0.471649799518     1.323924481366
    C           -1.817307376465     0.764860579952     0.467353296350
    H           -0.320132327449     1.329988534917    -0.977443514752
    H            0.023970374367     1.860515615146     0.634697264508
    C           -2.579508921220    -0.212358233415    -0.453165746077
    H           -2.339832794146     1.713869760323     0.495928866083
    H           -1.831566057028     0.389601851310     1.487117516626
    C           -3.273524574202    -1.344840388274     0.299287569305
    H           -3.328221498689     0.334915371856    -1.015134467971
    H           -1.906142592013    -0.637832183279    -1.189447558231
    H           -3.815300280929    -1.993977150540    -0.379227104942
    H           -3.982933338832    -0.954858332305     1.021549778343
    H           -2.556715288775    -1.953885055389     0.840455651961

  Mulliken Charges: (a.u.)
   Center  Symbol    Alpha    Beta     Spin     Total
       1     H     0.38236  0.38236  0.00000  0.23527
       2     O     4.16051  4.16051  0.00000 -0.32102
       3     C     2.80328  2.80328  0.00000  0.39345
       4     C     3.11218  3.11218  0.00000 -0.22436
       5     O     4.19093  4.19093  0.00000 -0.38186
       6     C     3.09086  3.09086  0.00000 -0.18173
       7     H     0.43749  0.43749  0.00000  0.12501
       8     H     0.43727  0.43727  0.00000  0.12546
       9     C     3.10400  3.10400  0.00000 -0.20799
      10     H     0.44454  0.44454  0.00000  0.11092
      11     H     0.44107  0.44107  0.00000  0.11786
      12     C     3.09707  3.09707  0.00000 -0.19413
      13     H     0.44127  0.44127  0.00000  0.11745
      14     H     0.45548  0.45548  0.00000  0.08904
      15     C     3.14636  3.14636  0.00000 -0.29271
      16     H     0.44465  0.44465  0.00000  0.11070
      17     H     0.45266  0.45266  0.00000  0.09469
      18     H     0.44853  0.44853  0.00000  0.10294
      19     H     0.45347  0.45347  0.00000  0.09306
      20     H     0.45602  0.45602  0.00000  0.08795

   Total alpha = 32.00000, Total beta = 32.00000, Total charge = -0.00000

*** Psi4 exiting successfully. Buy a developer a beer!
