                              Psi4 1.0.54 Driver

  ==> Input File <==

--------------------------------------------------------------------------
set {
	reference rhf
	basis cc-pvtz
}

set_num_threads( 4 )
memory 2 gb

molecule MOL {
0 1

H	 -2.380740	 -1.554738	 -0.305393
O	 -2.658848	 -0.704215	 -0.000460
C	 -1.605397	 0.107680	 0.001145
C	 -0.310616	 -0.658853	 0.000791
O	 -1.718351	 1.284629	 -0.000627
C	 0.926581	 0.227233	 0.000178
H	 -0.327628	 -1.313681	 -0.864448
H	 -0.327041	 -1.313334	 0.866298
C	 2.220156	 -0.582071	 -0.000088
H	 0.899945	 0.878221	 -0.866390
H	 0.900542	 0.878581	 0.866486
C	 3.466689	 0.296012	 -0.000457
H	 2.239073	 -1.234095	 -0.869382
H	 2.239505	 -1.233985	 0.869270
H	 3.493549	 0.935857	 -0.875887
H	 4.368821	 -0.304526	 -0.001199
H	 3.494559	 0.935166	 0.875458

	symmetry c1
}
set optking {
	frozen_dihedral = ("
		1 2 3 5
	")
}

ee,wfn = optimize('scf', return_wfn=True)
oeprop( wfn, 'DIPOLE', 'QUADRUPOLE', 'MULLIKEN_CHARGES')
f=open( 'psi4out.xyz', 'w' )
f.write( "17  " )
f.write( str(ee) + "\n" )
f.write( MOL.save_string_xyz() )
f.close()
--------------------------------------------------------------------------

    Molecular point group: c1
  Charge       = 0
  Multiplicity = 1
  Basis Set: CC-PVTZ
  Basis Set:
  @DF-RHF Final Energy:  -345.03687699746257
    Total Energy =                       -345.0368769974624001
    Molecular point group: c1
  Basis Set: CC-PVTZ
  Basis Set:
  Basis Set: CC-PVTZ
  Basis Set:
  @DF-RHF Final Energy:  -345.03806802269708
    Total Energy =                       -345.0380680226967911
  Basis Set: CC-PVTZ
  Basis Set:
  Basis Set: CC-PVTZ
  Basis Set:
  @DF-RHF Final Energy:  -345.03829433700702
    Total Energy =                       -345.0382943370066187
  Basis Set: CC-PVTZ
  Basis Set:
  Basis Set: CC-PVTZ
  Basis Set:
  @DF-RHF Final Energy:  -345.03825296148278
    Total Energy =                       -345.0382529614830673
  Basis Set: CC-PVTZ
  Basis Set:
  Basis Set: CC-PVTZ
  Basis Set:
  @DF-RHF Final Energy:  -345.03829925521615
    Total Energy =                       -345.0382992552159180
  Basis Set: CC-PVTZ
  Basis Set:
  Charge       = 0
  Multiplicity = 1
  Basis Set: CC-PVTZ
  Basis Set:

    Orbital Energies (a.u.)
    -----------------------

    Doubly Occupied:

       1A    -20.602524     2A    -20.537727     3A    -11.372871
       4A    -11.249897     5A    -11.226470     6A    -11.225690
       7A    -11.214157     8A     -1.470423     9A     -1.373362
      10A     -1.097444    11A     -1.020983    12A     -0.909131
      13A     -0.836105    14A     -0.807399    15A     -0.717745
      16A     -0.676976    17A     -0.662724    18A     -0.635121
      19A     -0.605255    20A     -0.583739    21A     -0.570006
      22A     -0.544694    23A     -0.515562    24A     -0.488385
      25A     -0.484859    26A     -0.480723    27A     -0.476681
      28A     -0.442702

  @DF-RHF Final Energy:  -345.03829949495633

   => Energetics <=

    Nuclear Repulsion Energy =            304.7417355568631478
    One-Electron Energy =               -1073.9013583411722266
    Two-Electron Energy =                 424.1213232893528584
    DFT Exchange-Correlation Energy =       0.0000000000000000
    Empirical Dispersion Energy =           0.0000000000000000
    PCM Polarization Energy =               0.0000000000000000
    EFP Energy =                            0.0000000000000000
    Total Energy =                       -345.0382994949561635
    Molecular point group: c1
  Basis Set: CC-PVTZ
  Basis Set:

  -Total Gradient:
     Atom            X                  Y                   Z
    ------   -----------------  -----------------  -----------------
       1       -0.000836884784     0.001230530154    -0.004276102542
       2        0.001065077019    -0.001610542972     0.003671365343
       3       -0.000257960856     0.000375925062     0.004521685522
       4       -0.000016804362    -0.000004812216     0.000018762800
       5        0.000053462945     0.000002709251    -0.003914436260
       6        0.000009657138     0.000009357232    -0.000007337974
       7       -0.000005550475     0.000003715854    -0.000011658973
       8        0.000002914304    -0.000001108526    -0.000013394780
       9        0.000006022726    -0.000008204425     0.000003050702
      10       -0.000000904068    -0.000004507932     0.000004755926
      11        0.000000457751     0.000000395909     0.000004910170
      12       -0.000010030175     0.000006443521    -0.000002640773
      13       -0.000003564930    -0.000000939260    -0.000001435983
      14       -0.000002577602    -0.000000346370     0.000002593120
      15        0.000002259665     0.000002773624    -0.000002201860
      16       -0.000007450148    -0.000002769220    -0.000000391659
      17        0.000001875849     0.000001380317     0.000002477223

  **** Optimization is complete! (in 6 steps) ****
    Final optimized geometry and variables:
    Molecular point group: c1

    Geometry (in Angstrom), charge = 0, multiplicity = 1:

    H           -2.539081582857    -1.521459960450    -0.308698076516
    O           -2.716843326104    -0.645426668095    -0.013974110557
    C           -1.614776940301     0.113398829712    -0.004634811386
    C           -0.312993967020    -0.655764046630     0.007626784970
    O           -1.703554101342     1.285676125387    -0.008203381614
    C            0.924281237454     0.230466156889     0.005484394138
    H           -0.309246830763    -1.316469371725    -0.856933668470
    H           -0.325574200770    -1.301722815226     0.881077611557
    C            2.219539835541    -0.575968055131     0.018271271809
    H            0.898253073928     0.874342653108    -0.865890741458
    H            0.889369408028     0.887550825423     0.866465293848
    C            3.463230566432     0.306080233754     0.018181526462
    H            2.245805349425    -1.234246338704    -0.846358474212
    H            2.236362939803    -1.221135623506     0.892796519619
    H            3.492892828724     0.939148558328    -0.861950013949
    H            4.366964829885    -0.291818425051     0.027223428523
    H            3.483775121445     0.951823720322     0.889277133241

  Mulliken Charges: (a.u.)
   Center  Symbol    Alpha    Beta     Spin     Total
       1     H     0.38805  0.38805  0.00000  0.22391
       2     O     4.14792  4.14792  0.00000 -0.29584
       3     C     2.80270  2.80270  0.00000  0.39459
       4     C     3.12803  3.12803  0.00000 -0.25606
       5     O     4.17396  4.17396  0.00000 -0.34793
       6     C     3.08567  3.08567  0.00000 -0.17135
       7     H     0.44904  0.44904  0.00000  0.10192
       8     H     0.43787  0.43787  0.00000  0.12427
       9     C     3.08665  3.08665  0.00000 -0.17330
      10     H     0.44389  0.44389  0.00000  0.11221
      11     H     0.44279  0.44279  0.00000  0.11442
      12     C     3.14935  3.14935  0.00000 -0.29869
      13     H     0.45553  0.45553  0.00000  0.08893
      14     H     0.45495  0.45495  0.00000  0.09009
      15     H     0.45306  0.45306  0.00000  0.09388
      16     H     0.44773  0.44773  0.00000  0.10453
      17     H     0.45279  0.45279  0.00000  0.09442

   Total alpha = 28.00000, Total beta = 28.00000, Total charge = -0.00000

*** Psi4 exiting successfully. Buy a developer a beer!
