                              Psi4 1.0.54 Driver

  ==> Input File <==

--------------------------------------------------------------------------
set {
	reference rhf
	basis cc-pvtz
}

set_num_threads( 4 )
memory 2 gb

molecule MOL {
0 1

H	 -2.644180	 -0.653737	 1.272255
C	 -2.092774	 -0.380414	 0.391915
O	 -0.808934	 -0.154049	 0.752536
F	 -2.163230	 -1.351640	 -0.507133
F	 -2.627232	 0.691260	 -0.169301
C	 0.085006	 0.250800	 -0.215074
C	 1.370439	 -0.548013	 -0.012993
Cl	 0.421658	 1.987697	 -0.091007
H	 -0.272219	 0.063284	 -1.212508
F	 2.316405	 0.219552	 0.465561
F	 1.772968	 -1.009956	 -1.173120
F	 1.203000	 -1.559166	 0.794339

	symmetry c1
}
set optking {
	frozen_dihedral = ("
		10 7 6 9
	")
}

ee,wfn = optimize('scf', return_wfn=True)
oeprop( wfn, 'DIPOLE', 'QUADRUPOLE', 'MULLIKEN_CHARGES')
f=open( 'psi4out.xyz', 'w' )
f.write( "12  " )
f.write( str(ee) + "\n" )
f.write( MOL.save_string_xyz() )
f.close()
--------------------------------------------------------------------------

    Molecular point group: c1
  Charge       = 0
  Multiplicity = 1
  Basis Set: CC-PVTZ
  Basis Set:
  @DF-RHF Final Energy: -1146.60962754414572
    Total Energy =                      -1146.6096275441461785
    Molecular point group: c1
  Basis Set: CC-PVTZ
  Basis Set:
  Basis Set: CC-PVTZ
  Basis Set:
  @DF-RHF Final Energy: -1146.60976947965082
    Total Energy =                      -1146.6097694796508222
  Basis Set: CC-PVTZ
  Basis Set:
  Basis Set: CC-PVTZ
  Basis Set:
  @DF-RHF Final Energy: -1146.61191181666572
    Total Energy =                      -1146.6119118166661792
  Basis Set: CC-PVTZ
  Basis Set:
  Basis Set: CC-PVTZ
  Basis Set:
  @DF-RHF Final Energy: -1146.61203765170694
    Total Energy =                      -1146.6120376517073964
  Basis Set: CC-PVTZ
  Basis Set:
  @DF-RHF Final Energy: -1146.61205916266431
    Total Energy =                      -1146.6120591626638543
  @DF-RHF Final Energy: -1146.61206895211399
    Total Energy =                      -1146.6120689521137592
  @DF-RHF Final Energy: -1146.61208116964508
    Total Energy =                      -1146.6120811696453075
  @DF-RHF Final Energy: -1146.61208544211149
    Total Energy =                      -1146.6120854421119475
  Basis Set: CC-PVTZ
  Basis Set:
  @DF-RHF Final Energy: -1146.61208712715893
    Total Energy =                      -1146.6120871271591568
  Basis Set: CC-PVTZ
  Basis Set:
  Basis Set: CC-PVTZ
  Basis Set:
  @DF-RHF Final Energy: -1146.61207885796148
    Total Energy =                      -1146.6120788579619330
  Basis Set: CC-PVTZ
  Basis Set:
  Basis Set: CC-PVTZ
  Basis Set:
  @DF-RHF Final Energy: -1146.61208858142390
    Total Energy =                      -1146.6120885814241319
  Basis Set: CC-PVTZ
  Basis Set:
  Charge       = 0
  Multiplicity = 1
  Basis Set: CC-PVTZ
  Basis Set:

    Orbital Energies (a.u.)
    -----------------------

    Doubly Occupied:

       1A   -104.854986     2A    -26.354918     3A    -26.353177
       4A    -26.351960     5A    -26.343850     6A    -26.343632
       7A    -20.640224     8A    -11.522438     9A    -11.484371
      10A    -11.402313    11A    -10.580582    12A     -8.047355
      13A     -8.045392    14A     -8.045297    15A     -1.768463
      16A     -1.725154    17A     -1.663552    18A     -1.659389
      19A     -1.645249    20A     -1.487623    21A     -1.175062
      22A     -1.048263    23A     -0.991859    24A     -0.924527
      25A     -0.862230    26A     -0.859105    27A     -0.852124
      28A     -0.831685    29A     -0.820291    30A     -0.795781
      31A     -0.733832    32A     -0.733029    33A     -0.710599
      34A     -0.708739    35A     -0.685370    36A     -0.679679
      37A     -0.665525    38A     -0.662812    39A     -0.650649
      40A     -0.635316    41A     -0.598745    42A     -0.579372
      43A     -0.523422    44A     -0.476992    45A     -0.468185

  @DF-RHF Final Energy: -1146.61208873463829

   => Energetics <=

    Nuclear Repulsion Energy =            735.8209680397945931
    One-Electron Energy =               -3054.8798713358428358
    Two-Electron Energy =                1172.4468145614093828
    DFT Exchange-Correlation Energy =       0.0000000000000000
    Empirical Dispersion Energy =           0.0000000000000000
    PCM Polarization Energy =               0.0000000000000000
    EFP Energy =                            0.0000000000000000
    Total Energy =                      -1146.6120887346389736
    Molecular point group: c1
  Basis Set: CC-PVTZ
  Basis Set:

  -Total Gradient:
     Atom            X                  Y                   Z
    ------   -----------------  -----------------  -----------------
       1        0.000004902656     0.000001766520     0.000000026873
       2       -0.000013779354    -0.000002654725    -0.000021144042
       3        0.000019178754     0.000013186954    -0.000002579982
       4        0.000001084936     0.000011523545     0.000012263537
       5        0.000007680622    -0.000006160953     0.000007150058
       6       -0.002983946640    -0.004213040986     0.000207607203
       7       -0.001358929585    -0.000865594703     0.004772880311
       8        0.000006052825     0.000040873689    -0.000016843549
       9        0.002858339612     0.003788449962    -0.001217166579
      10        0.001453986972     0.001213287803    -0.003739751504
      11        0.000005350302     0.000011927624     0.000000279558
      12        0.000000078922     0.000006435362    -0.000002721885

  **** Optimization is complete! (in 12 steps) ****
    Final optimized geometry and variables:
    Molecular point group: c1

    Geometry (in Angstrom), charge = 0, multiplicity = 1:

    H           -2.759383290520    -0.583532362627     1.097237645156
    C           -2.124152577595    -0.341650300755     0.265595854345
    O           -0.890999757342    -0.062059603865     0.743157090160
    F           -2.078167485592    -1.360066916336    -0.582267277549
    F           -2.620109765300     0.684652623120    -0.406184824166
    C            0.085534743167     0.306215796982    -0.153365818482
    C            1.345144458837    -0.583073135734     0.039609850821
    CL           0.478318465294     2.027520085382     0.042614074934
    H           -0.218444498351     0.205907713213    -1.178494345210
    F            2.343032908366     0.027891690171     0.613713678228
    F            1.757597343782    -0.967628567538    -1.151132827054
    F            1.063371769735    -1.653794178645     0.730168293815

  Mulliken Charges: (a.u.)
   Center  Symbol    Alpha    Beta     Spin     Total
       1     H     0.45142  0.45142  0.00000  0.09716
       2     C     2.73808  2.73808  0.00000  0.52383
       3     O     4.15051  4.15051  0.00000 -0.30102
       4     F     4.61841  4.61841  0.00000 -0.23682
       5     F     4.61569  4.61569  0.00000 -0.23138
       6     C     2.96009  2.96009  0.00000  0.07981
       7     C     2.66207  2.66207  0.00000  0.67587
       8    CL     8.57057  8.57057  0.00000 -0.14114
       9     H     0.43165  0.43165  0.00000  0.13670
      10     F     4.59527  4.59527  0.00000 -0.19055
      11     F     4.60831  4.60831  0.00000 -0.21662
      12     F     4.59792  4.59792  0.00000 -0.19584

   Total alpha = 45.00000, Total beta = 45.00000, Total charge = -0.00000

*** Psi4 exiting successfully. Buy a developer a beer!
