  ==> Input File <==

--------------------------------------------------------------------------
set {
	reference rhf
	basis 6-31G*
}

set_num_threads( 4 )
memory 2 gb

molecule MOL {
0 1

H	 2.465338	 -2.224223	 0.000000
O	 2.784187	 -1.332015	 0.000000
C	 1.765313	 -0.449364	 0.000000
C	 1.802880	 0.569371	 -0.946949
C	 0.713162	 -0.527731	 0.891612
H	 2.631324	 0.608720	 -1.628850
C	 0.789158	 1.503651	 -0.997473
H	 0.658707	 -1.301855	 1.631404
C	 -0.287960	 0.426929	 0.812897
H	 0.826147	 2.286793	 -1.731760
C	 -0.279081	 1.446429	 -0.112354
N	 -1.398703	 0.339431	 1.758455
H	 -1.072808	 2.163842	 -0.139203
O	 -1.382879	 -0.553888	 2.550771
O	 -2.256178	 1.164934	 1.683987

	symmetry c1
}
set optking {
	frozen_dihedral = ("
		4 3 2 1
	")
}

ee = optimize('scf')
oeprop('DIPOLE', 'QUADRUPOLE', 'MULLIKEN_CHARGES')
f=open( 'psi4out.xyz', 'w' )
f.write( "15  " )
f.write( str(ee) + "\n" )
f.write( MOL.save_string_xyz() )
f.close()
--------------------------------------------------------------------------

    Molecular point group: c1
  Charge       = 0
  Multiplicity = 1
  Basis Set: 6-31G*
  Basis Set:
  @DF-RHF Final Energy:  -509.02478217551521
    Total Energy =                       -509.0247821755145878
    Molecular point group: c1
  Basis Set: 6-31G*
  Basis Set:
  Basis Set: 6-31G*
  Basis Set:
  @DF-RHF Final Energy:  -509.02483239540254
    Total Energy =                       -509.0248323954029956
  Basis Set: 6-31G*
  Basis Set:
  Basis Set: 6-31G*
  Basis Set:
  @DF-RHF Final Energy:  -509.00811812863782
    Total Energy =                       -509.0081181286378751
  Basis Set: 6-31G*
  Basis Set:
  Basis Set: 6-31G*
  Basis Set:
  @DF-RHF Final Energy:  -509.02413289631193
    Total Energy =                       -509.0241328963122669
  Basis Set: 6-31G*
  Basis Set:
  Basis Set: 6-31G*
  Basis Set:
  @DF-RHF Final Energy:  -509.02505800076233
    Total Energy =                       -509.0250580007623284
  Basis Set: 6-31G*
  Basis Set:
  Basis Set: 6-31G*
  Basis Set:
  @DF-RHF Final Energy:  -509.02506570450470
    Total Energy =                       -509.0250657045047546
  Basis Set: 6-31G*
  Basis Set:
  Charge       = 0
  Multiplicity = 1
  Basis Set: 6-31G*
  Basis Set:

    Orbital Energies (a.u.)
    -----------------------

    Doubly Occupied:

       1A    -20.606664     2A    -20.604670     3A    -20.604329
       4A    -15.859297     5A    -11.324877     6A    -11.310326
       7A    -11.268404     8A    -11.267561     9A    -11.266070
      10A    -11.262900    11A     -1.638041    12A     -1.425322
      13A     -1.421273    14A     -1.200838    15A     -1.094876
      16A     -1.046550    17A     -0.965127    18A     -0.873124
      19A     -0.829673    20A     -0.791336    21A     -0.744865
      22A     -0.736973    23A     -0.723326    24A     -0.708622
      25A     -0.675814    26A     -0.639784    27A     -0.625645
      28A     -0.571748    29A     -0.555335    30A     -0.537811
      31A     -0.513790    32A     -0.491212    33A     -0.488030
      34A     -0.454696    35A     -0.377158    36A     -0.351925

  @DF-RHF Final Energy:  -509.02506673227322

   => Energetics <=

    Nuclear Repulsion Energy =            503.0642610123519489
    One-Electron Energy =               -1692.4626762324191986
    Two-Electron Energy =                 680.3733484877942601
    DFT Exchange-Correlation Energy =       0.0000000000000000
    Empirical Dispersion Energy =           0.0000000000000000
    PCM Polarization Energy =               0.0000000000000000
    EFP Energy =                            0.0000000000000000
    Total Energy =                       -509.0250667322731033
    Molecular point group: c1
  Basis Set: 6-31G*
  Basis Set:

  -Total Gradient:
     Atom            X                  Y                   Z
    ------   -----------------  -----------------  -----------------
       1        0.000046892003    -0.000024396783    -0.002444388051
       2       -0.000435209186    -0.000485384524     0.002502873310
       3        0.001185911929     0.001474646789     0.001209813877
       4       -0.000952007551    -0.000912834810    -0.001220445587
       5        0.000161379854    -0.000067178317    -0.000066043057
       6        0.000010171172    -0.000004950481     0.000019063550
       7        0.000141432536    -0.000047541082    -0.000071806812
       8       -0.000007906407     0.000005486593    -0.000006070505
       9       -0.000094416231     0.000104085132    -0.000089773314
      10       -0.000019466284    -0.000002538484    -0.000007293511
      11       -0.000025496687    -0.000046193577     0.000142005737
      12        0.000079990104     0.000044930248     0.000028767636
      13        0.000010978397    -0.000005326260    -0.000016048338
      14       -0.000079071476     0.000062433522    -0.000035188945
      15       -0.000023182177    -0.000095237966     0.000054534013

  **** Optimization is complete! (in 7 steps) ****
    Final optimized geometry and variables:
    Molecular point group: c1

    Geometry (in Angstrom), charge = 0, multiplicity = 1:

    H            2.276108736723    -2.445186336853    -0.594116693909
    O            2.600579858031    -1.554724360463    -0.598488372021
    C            1.574102688359    -0.664491794436    -0.629071804755
    C            1.607560903539     0.349486650234    -1.575775960094
    C            0.526237483482    -0.743445126781     0.268996159656
    H            2.431384034487     0.385488398168    -2.263614893289
    C            0.598149674219     1.294270856986    -1.617192539728
    H            0.490048068353    -1.513373133393     1.013296865995
    C           -0.476931072152     0.206346839951     0.192437769927
    H            0.632328147414     2.078914459565    -2.349939400257
    C           -0.464936659828     1.232004048080    -0.730829941970
    N           -1.588601078770     0.117949780381     1.135710599151
    H           -1.258708613552     1.949763894088    -0.752926044611
    O           -1.592530849925    -0.795983948422     1.903740217534
    O           -2.429239938595     0.962711552218     1.081744902659

  Mulliken Charges: (a.u.)
   Center  Symbol    Alpha    Beta     Spin     Total
       1     H     0.26790  0.26790  0.00000  0.46420
       2     O     4.38176  4.38176  0.00000 -0.76352
       3     C     2.80745  2.80745  0.00000  0.38511
       4     C     3.10434  3.10434  0.00000 -0.20868
       5     C     3.12195  3.12195  0.00000 -0.24389
       6     H     0.38134  0.38134  0.00000  0.23733
       7     C     3.10370  3.10370  0.00000 -0.20739
       8     H     0.36366  0.36366  0.00000  0.27268
       9     C     2.91620  2.91620  0.00000  0.16760
      10     H     0.38650  0.38650  0.00000  0.22700
      11     C     3.09319  3.09319  0.00000 -0.18637
      12     N     3.24055  3.24055  0.00000  0.51891
      13     H     0.36454  0.36454  0.00000  0.27091
      14     O     4.23443  4.23443  0.00000 -0.46887
      15     O     4.23250  4.23250  0.00000 -0.46501

   Total alpha = 36.00000, Total beta = 36.00000, Total charge = -0.00000
