  ==> Input File <==

--------------------------------------------------------------------------
set {
	reference rhf
	basis 6-31G*
}

set_num_threads( 4 )
memory 2 gb

molecule MOL {
0 1

H	 2.900845	 -1.224425	 0.030197
N	 3.092854	 -0.246221	 -0.068770
C	 1.865559	 0.531981	 0.018834
H	 3.522119	 -0.124946	 -0.966464
C	 0.645745	 -0.382037	 -0.029944
H	 1.841966	 1.207024	 -0.831236
H	 1.815756	 1.155410	 0.915079
C	 -0.679275	 0.379305	 0.025956
H	 0.698998	 -0.976915	 -0.937203
H	 0.693479	 -1.083846	 0.802235
C	 -1.903357	 -0.536963	 -0.023547
H	 -0.726309	 1.082987	 -0.803784
H	 -0.717680	 0.977832	 0.934877
C	 -3.225172	 0.228290	 0.028445
H	 -1.867824	 -1.134999	 -0.931459
H	 -1.860449	 -1.239604	 0.805977
H	 -3.313397	 0.915643	 -0.808262
H	 -4.073500	 -0.448134	 -0.008893
H	 -3.306061	 0.809945	 0.942516

	symmetry c1
}
set optking {
	frozen_dihedral = ("
		1 2 3 6
	")
}

ee = optimize('scf')
oeprop('DIPOLE', 'QUADRUPOLE', 'MULLIKEN_CHARGES')
f=open( 'psi4out.xyz', 'w' )
f.write( "19  " )
f.write( str(ee) + "\n" )
f.write( MOL.save_string_xyz() )
f.close()
--------------------------------------------------------------------------

    Molecular point group: c1
  Charge       = 0
  Multiplicity = 1
  Basis Set: 6-31G*
  Basis Set:
  @DF-RHF Final Energy:  -251.34637350986196
    Total Energy =                       -251.3463735098620759
    Molecular point group: c1
  Basis Set: 6-31G*
  Basis Set:
  Basis Set: 6-31G*
  Basis Set:
  @DF-RHF Final Energy:  -251.34746390198760
    Total Energy =                       -251.3474639019876236
  Basis Set: 6-31G*
  Basis Set:
  Basis Set: 6-31G*
  Basis Set:
  @DF-RHF Final Energy:  -251.34764254186720
    Total Energy =                       -251.3476425418672306
  Basis Set: 6-31G*
  Basis Set:
  Basis Set: 6-31G*
  Basis Set:
  @DF-RHF Final Energy:  -251.34764427603619
    Total Energy =                       -251.3476442760363625
  Basis Set: 6-31G*
  Basis Set:
  Charge       = 0
  Multiplicity = 1
  Basis Set: 6-31G*
  Basis Set:

    Orbital Energies (a.u.)
    -----------------------

    Doubly Occupied:

       1A    -15.529608     2A    -11.239549     3A    -11.217246
       4A    -11.216550     5A    -11.215978     6A    -11.209788
       7A     -1.173774     8A     -1.076104     9A     -1.000773
      10A     -0.901846    11A     -0.818941    12A     -0.793941
      13A     -0.668589    14A     -0.640922    15A     -0.600846
      16A     -0.599158    17A     -0.567369    18A     -0.552576
      19A     -0.530944    20A     -0.499261    21A     -0.487522
      22A     -0.468739    23A     -0.465802    24A     -0.458316
      25A     -0.374098

  @DF-RHF Final Energy:  -251.34764484178154

   => Energetics <=

    Nuclear Repulsion Energy =            245.4998909714113609
    One-Electron Energy =                -825.0785906123840050
    Two-Electron Energy =                 328.2310547991910425
    DFT Exchange-Correlation Energy =       0.0000000000000000
    Empirical Dispersion Energy =           0.0000000000000000
    PCM Polarization Energy =               0.0000000000000000
    EFP Energy =                            0.0000000000000000
    Total Energy =                       -251.3476448417816300
    Molecular point group: c1
  Basis Set: 6-31G*
  Basis Set:

  -Total Gradient:
     Atom            X                  Y                   Z
    ------   -----------------  -----------------  -----------------
       1       -0.000109269691    -0.000164922359    -0.001857073540
       2       -0.000049048923    -0.000132241717     0.002068711252
       3        0.000903330515     0.001454576611     0.000742807638
       4       -0.000001526599     0.000001021934     0.000001999778
       5        0.000097716038     0.000033366230    -0.000012096479
       6       -0.000728165233    -0.001233710216    -0.000961250928
       7       -0.000055086959     0.000022732373     0.000011720827
       8        0.000013804111    -0.000007608554     0.000006355112
       9        0.000021311390     0.000019179330     0.000006639003
      10        0.000001790719     0.000000451865    -0.000025607433
      11       -0.000035468476     0.000030181032     0.000022482145
      12        0.000003719327    -0.000015370092     0.000002549027
      13       -0.000012861441     0.000007078439    -0.000014321561
      14       -0.000035212790    -0.000030282781     0.000006729244
      15        0.000004538242     0.000014159201     0.000003913795
      16       -0.000004782570    -0.000003271827    -0.000003173923
      17        0.000004317125    -0.000003779305    -0.000000002763
      18       -0.000020453223     0.000009885382     0.000001115631
      19        0.000001348440    -0.000001445547    -0.000001496825

  **** Optimization is complete! (in 5 steps) ****
    Final optimized geometry and variables:
    Molecular point group: c1

    Geometry (in Angstrom), charge = 0, multiplicity = 1:

    H            2.989052541410    -1.194629091253     0.088787453654
    N            3.137384191564    -0.209343294516    -0.007095694176
    C            1.870015541991     0.521193056011     0.008773022179
    H            3.619584429092    -0.077303536129    -0.872919052232
    C            0.640953789456    -0.386498150011    -0.041261742256
    H            1.835175201754     1.200552802362    -0.838604545360
    H            1.822527426389     1.135041072320     0.904023425952
    C           -0.679345041686     0.381925147989     0.029710545442
    H            0.672665193116    -0.977656213012    -0.955267411067
    H            0.691248362507    -1.092903871497     0.786497858430
    C           -1.910431013854    -0.525753268371    -0.005670093918
    H           -0.731144460970     1.087585295290    -0.797962296747
    H           -0.700227483872     0.978443358559     0.939961051870
    C           -3.225829370734     0.248953882749     0.065952998732
    H           -1.892071552286    -1.121930382372    -0.915510775041
    H           -1.861358136420    -1.230371393662     0.821699664865
    H           -3.320684997258     0.938522389787    -0.768153167008
    H           -4.079366479179    -0.421369307365     0.039218448196
    H           -3.289579085156     0.829204324258     0.982120434031

  Mulliken Charges: (a.u.)
   Center  Symbol    Alpha    Beta     Spin     Total
       1     H     0.33206  0.33206  0.00000  0.33588
       2     N     3.92982  3.92982  0.00000 -0.85964
       3     C     3.04758  3.04758  0.00000 -0.09516
       4     H     0.33224  0.33224  0.00000  0.33551
       5     C     3.16732  3.16732  0.00000 -0.33465
       6     H     0.42652  0.42652  0.00000  0.14696
       7     H     0.41990  0.41990  0.00000  0.16019
       8     C     3.15420  3.15420  0.00000 -0.30839
       9     H     0.42500  0.42500  0.00000  0.15001
      10     H     0.42214  0.42214  0.00000  0.15571
      11     C     3.15111  3.15111  0.00000 -0.30223
      12     H     0.42361  0.42361  0.00000  0.15278
      13     H     0.42150  0.42150  0.00000  0.15700
      14     C     3.23944  3.23944  0.00000 -0.47889
      15     H     0.42314  0.42314  0.00000  0.15372
      16     H     0.42243  0.42243  0.00000  0.15513
      17     H     0.42172  0.42172  0.00000  0.15656
      18     H     0.41903  0.41903  0.00000  0.16195
      19     H     0.42123  0.42123  0.00000  0.15755

   Total alpha = 25.00000, Total beta = 25.00000, Total charge =  0.00000
