  ==> Input File <==

--------------------------------------------------------------------------
set {
	reference rhf
	basis cc-pvtz
}

set_num_threads( 4 )
memory 2 gb

molecule MOL {
0 1

H	 -2.160546	 -1.047616	 -1.736624
C	 -1.506182	 -0.631882	 -0.999802
C	 -1.951988	 0.360643	 -0.069584
C	 -0.233451	 -1.027654	 -0.918850
H	 -2.969935	 0.700402	 -0.108347
C	 -1.113300	 0.863808	 0.841462
H	 0.173802	 -1.766474	 -1.580236
N	 0.640204	 -0.530428	 -0.000115
H	 -1.411748	 1.606619	 1.552181
C	 0.273640	 0.429839	 0.926895
C	 2.006991	 -1.033007	 -0.000020
O	 1.056766	 0.857688	 1.730576
H	 2.182444	 -1.636914	 -0.880881
H	 2.678769	 -0.195442	 -0.002236
H	 2.183828	 -1.633244	 0.883082

	symmetry c1
}
set optking {
	frozen_dihedral = ("
		10 8 11 13
	")
}

ee = optimize('scf')
oeprop('DIPOLE', 'QUADRUPOLE', 'MULLIKEN_CHARGES')
f=open( 'psi4out.xyz', 'w' )
f.write( "15  " )
f.write( str(ee) + "\n" )
f.write( MOL.save_string_xyz() )
f.close()
--------------------------------------------------------------------------

    Molecular point group: c1
  Charge       = 0
  Multiplicity = 1
  Basis Set: CC-PVTZ
  Basis Set:
  @DF-RHF Final Energy:  -360.72280301387229
    Total Energy =                       -360.7228030138724648
    Molecular point group: c1
  Basis Set: CC-PVTZ
  Basis Set:
  Basis Set: CC-PVTZ
  Basis Set:
  @DF-RHF Final Energy:  -360.72347295232726
    Total Energy =                       -360.7234729523271426
  Basis Set: CC-PVTZ
  Basis Set:
  Basis Set: CC-PVTZ
  Basis Set:
  @DF-RHF Final Energy:  -360.72355636331451
    Total Energy =                       -360.7235563633150264
  Basis Set: CC-PVTZ
  Basis Set:
  Charge       = 0
  Multiplicity = 1
  Basis Set: CC-PVTZ
  Basis Set:

    Orbital Energies (a.u.)
    -----------------------

    Doubly Occupied:

       1A    -20.501995     2A    -15.617812     3A    -11.337580
       4A    -11.294621     5A    -11.266003     6A    -11.258155
       7A    -11.229472     8A    -11.227782     9A     -1.391381
      10A     -1.285889    11A     -1.118829    12A     -1.029353
      13A     -0.972632    14A     -0.876605    15A     -0.838975
      16A     -0.719674    17A     -0.701980    18A     -0.664045
      19A     -0.653457    20A     -0.626327    21A     -0.611938
      22A     -0.575141    23A     -0.552332    24A     -0.550950
      25A     -0.531397    26A     -0.484867    27A     -0.420479
      28A     -0.410723    29A     -0.310051

  @DF-RHF Final Energy:  -360.72355669494993

   => Energetics <=

    Nuclear Repulsion Energy =            358.8899459482703378
    One-Electron Energy =               -1201.1061116932260120
    Two-Electron Energy =                 481.4926090500055125
    DFT Exchange-Correlation Energy =       0.0000000000000000
    Empirical Dispersion Energy =           0.0000000000000000
    PCM Polarization Energy =               0.0000000000000000
    EFP Energy =                            0.0000000000000000
    Total Energy =                       -360.7235566949501617
    Molecular point group: c1
  Basis Set: CC-PVTZ
  Basis Set:

  -Total Gradient:
     Atom            X                  Y                   Z
    ------   -----------------  -----------------  -----------------
       1       -0.000016827391     0.000002068424    -0.000008413624
       2        0.000240654885    -0.000073011684    -0.000019804847
       3       -0.000038598054     0.000123853251     0.000185814332
       4       -0.000342509939    -0.000090568286    -0.000116926949
       5        0.000011942679     0.000009988624    -0.000047651440
       6       -0.000318165127    -0.000222685447     0.000140731283
       7        0.000036756042     0.000015528671     0.000027173601
       8       -0.000090158819    -0.000366292121     0.000806556193
       9        0.000023013558     0.000002497036     0.000008791069
      10        0.000595279332     0.000847279540    -0.001201869079
      11       -0.000183245516    -0.000444058176     0.000192189545
      12       -0.000121923219    -0.000285831820     0.000304594668
      13        0.000192858311     0.000458928258    -0.000293230449
      14       -0.000002490716     0.000001645881     0.000017362552
      15        0.000013413979     0.000020657848     0.000004683148

  **** Optimization is complete! (in 4 steps) ****
    Final optimized geometry and variables:
    Molecular point group: c1

    Geometry (in Angstrom), charge = 0, multiplicity = 1:

    H           -2.147402284047    -0.943807248748    -1.937677414912
    C           -1.485041996710    -0.531753910623    -1.205957595694
    C           -1.918356285807     0.463408488815    -0.274161510438
    C           -0.212501982684    -0.935697040092    -1.137960673248
    H           -2.934868622637     0.808098367361    -0.307314204579
    C           -1.071430569000     0.964370471270     0.631975719935
    H            0.182578808754    -1.675800138234    -1.803803733444
    N            0.667081993375    -0.439390059986    -0.227258562526
    H           -1.361235512479     1.708670321901     1.344853689135
    C            0.309459122672     0.516353131667     0.705407084074
    C            2.041555617587    -0.914156260447    -0.188958284107
    O            1.111811104253     0.914116382505     1.505939458114
    H            2.231465542042    -1.513560252260    -1.066075105121
    H            2.717018085004    -0.074012751570    -0.173947463723
    H            2.216639545308    -1.503297948643     0.700155666941

  Mulliken Charges: (a.u.)
   Center  Symbol    Alpha    Beta     Spin     Total
       1     H     0.41401  0.41401  0.00000  0.17197
       2     C     3.10685  3.10685  0.00000 -0.21370
       3     C     3.05935  3.05935  0.00000 -0.11870
       4     C     3.03878  3.03878  0.00000 -0.07756
       5     H     0.41843  0.41843  0.00000  0.16315
       6     C     3.11840  3.11840  0.00000 -0.23680
       7     H     0.41902  0.41902  0.00000  0.16197
       8     N     3.50854  3.50854  0.00000 -0.01707
       9     H     0.40935  0.40935  0.00000  0.18129
      10     C     2.84566  2.84566  0.00000  0.30867
      11     C     3.09209  3.09209  0.00000 -0.18417
      12     O     4.23562  4.23562  0.00000 -0.47124
      13     H     0.45541  0.45541  0.00000  0.08919
      14     H     0.43586  0.43586  0.00000  0.12828
      15     H     0.44263  0.44263  0.00000  0.11474

   Total alpha = 29.00000, Total beta = 29.00000, Total charge = -0.00000
