                              Psi4 1.0.54 Driver

  ==> Input File <==

--------------------------------------------------------------------------
set {
	reference rhf
	basis cc-pvtz
}

set_num_threads( 4 )
memory 2 gb

molecule MOL {
0 1

H	 -3.357923	 -0.633417	 -0.899427
O	 -3.515113	 -0.019339	 -0.206321
C	 -2.302264	 0.528872	 0.237390
C	 -1.175688	 -0.398187	 -0.171891
H	 -2.148018	 1.514076	 -0.197759
H	 -2.310727	 0.646384	 1.319032
C	 0.196029	 0.106276	 0.266738
H	 -1.201873	 -0.515469	 -1.250677
H	 -1.365975	 -1.378728	 0.252664
C	 1.330220	 -0.826136	 -0.155230
H	 0.359542	 1.097229	 -0.145561
H	 0.212134	 0.218135	 1.348778
C	 2.719700	 -0.407669	 0.328325
H	 1.339388	 -0.911200	 -1.239363
H	 1.119001	 -1.821953	 0.224128
C	 3.241564	 0.893452	 -0.276737
H	 3.418299	 -1.204729	 0.093035
H	 2.711776	 -0.323368	 1.411960
H	 3.254204	 0.841071	 -1.360784
H	 2.634460	 1.745075	 0.005842
H	 4.254264	 1.092401	 0.054971

	symmetry c1
}
set optking {
	frozen_dihedral = ("
		1 2 3 5
	")
}

ee,wfn = optimize('scf', return_wfn=True)
oeprop( wfn, 'DIPOLE', 'QUADRUPOLE', 'MULLIKEN_CHARGES')
f=open( 'psi4out.xyz', 'w' )
f.write( "21  " )
f.write( str(ee) + "\n" )
f.write( MOL.save_string_xyz() )
f.close()
--------------------------------------------------------------------------

    Molecular point group: c1
  Charge       = 0
  Multiplicity = 1
  Basis Set: CC-PVTZ
  Basis Set:
  @DF-RHF Final Energy:  -310.32969067469810
    Total Energy =                       -310.3296906746979857
    Molecular point group: c1
  Basis Set: CC-PVTZ
  Basis Set:
  Basis Set: CC-PVTZ
  Basis Set:
  @DF-RHF Final Energy:  -310.33032092640781
    Total Energy =                       -310.3303209264076941
  Basis Set: CC-PVTZ
  Basis Set:
  Basis Set: CC-PVTZ
  Basis Set:
  @DF-RHF Final Energy:  -310.33136383320590
    Total Energy =                       -310.3313638332058417
  Basis Set: CC-PVTZ
  Basis Set:
  Basis Set: CC-PVTZ
  Basis Set:
  @DF-RHF Final Energy:  -310.33137952138111
    Total Energy =                       -310.3313795213812227
  Basis Set: CC-PVTZ
  Basis Set:
  Charge       = 0
  Multiplicity = 1
  Basis Set: CC-PVTZ
  Basis Set:

    Orbital Energies (a.u.)
    -----------------------

    Doubly Occupied:

       1A    -20.543115     2A    -11.264100     3A    -11.220568
       4A    -11.219310     5A    -11.217158     6A    -11.216550
       7A    -11.209160     8A     -1.361511     9A     -1.092751
      10A     -1.038085    11A     -0.957486    12A     -0.881915
      13A     -0.825841    14A     -0.783601    15A     -0.678501
      16A     -0.653880    17A     -0.626829    18A     -0.622742
      19A     -0.592832    20A     -0.575678    21A     -0.550701
      22A     -0.528239    23A     -0.507883    24A     -0.500718
      25A     -0.484931    26A     -0.466402    27A     -0.460961
      28A     -0.447787    29A     -0.431614

  @DF-RHF Final Energy:  -310.33137854165341

   => Energetics <=

    Nuclear Repulsion Energy =            312.8967276355136846
    One-Electron Energy =               -1040.5345138266554841
    Two-Electron Energy =                 417.3064076494881078
    DFT Exchange-Correlation Energy =       0.0000000000000000
    Empirical Dispersion Energy =           0.0000000000000000
    PCM Polarization Energy =               0.0000000000000000
    EFP Energy =                            0.0000000000000000
    Total Energy =                       -310.3313785416536916
    Molecular point group: c1
  Basis Set: CC-PVTZ
  Basis Set:

  -Total Gradient:
     Atom            X                  Y                   Z
    ------   -----------------  -----------------  -----------------
       1        0.000148855319    -0.001466256530     0.000932577498
       2       -0.000283023333     0.001873998796    -0.000912196156
       3        0.000734280000    -0.000945870489    -0.001308060318
       4       -0.000128758771     0.000011264316    -0.000014900231
       5       -0.000517837114     0.000541436141     0.001285658922
       6        0.000029548132     0.000008445478     0.000040483880
       7       -0.000083768818     0.000027022337     0.000010662364
       8        0.000001350049    -0.000017818076    -0.000007827202
       9        0.000009503387    -0.000036480439    -0.000016162276
      10        0.000033581302     0.000039161811    -0.000066362385
      11       -0.000065975918    -0.000036289158    -0.000003445142
      12        0.000026930339     0.000031329017     0.000020081154
      13       -0.000004927664    -0.000012234575     0.000101404364
      14       -0.000015484665     0.000026697576    -0.000021263218
      15        0.000031934451    -0.000030523937    -0.000031573701
      16       -0.000006442494     0.000003337619    -0.000025834135
      17        0.000005450951    -0.000029129711     0.000021971788
      18        0.000008469860     0.000019875649     0.000034027511
      19        0.000000739354     0.000018820390    -0.000035752560
      20        0.000067172348    -0.000002498331     0.000005953604
      21        0.000008403288    -0.000024287883    -0.000009443758

  **** Optimization is complete! (in 5 steps) ****
    Final optimized geometry and variables:
    Molecular point group: c1

    Geometry (in Angstrom), charge = 0, multiplicity = 1:

    H           -3.552694237154    -0.380471764969    -0.709495831499
    O           -3.571828984310     0.150021945331     0.065188468077
    C           -2.273513066993     0.559744872903     0.407071325083
    C           -1.193611234423    -0.355218125615    -0.143474854728
    H           -2.112713495371     1.579952416620     0.067706416364
    H           -2.224878947458     0.575992138445     1.489782288756
    C            0.214069480620     0.078763890415     0.255523588947
    H           -1.269117555385    -0.378443778640    -1.229623650685
    H           -1.380958232731    -1.366842041968     0.206162531335
    C            1.299134165341    -0.839069882262    -0.305022755244
    H            0.378494951037     1.097181952387    -0.081073022737
    H            0.288444966597     0.097975903724     1.340123506880
    C            2.721478472366    -0.499505773173     0.143795812255
    H            1.254454898149    -0.825673915954    -1.391683963181
    H            1.078514771111    -1.859871407369    -0.005590449787
    C            3.254354595711     0.833246980227    -0.376765176069
    H            3.383439113469    -1.292504330186    -0.190098335086
    H            2.765826334508    -0.506385614809     1.229688337298
    H            3.212585095772     0.872819237912    -1.460643841741
    H            2.690045275044     1.674615356344     0.006928090148
    H            4.287852977931     0.974467581655    -0.082063988127

  Mulliken Charges: (a.u.)
   Center  Symbol    Alpha    Beta     Spin     Total
       1     H     0.39262  0.39262  0.00000  0.21476
       2     O     4.20494  4.20494  0.00000 -0.40989
       3     C     2.95079  2.95079  0.00000  0.09843
       4     C     3.10201  3.10201  0.00000 -0.20403
       5     H     0.47346  0.47346  0.00000  0.05308
       6     H     0.46433  0.46433  0.00000  0.07134
       7     C     3.10215  3.10215  0.00000 -0.20430
       8     H     0.46010  0.46010  0.00000  0.07980
       9     H     0.44965  0.44965  0.00000  0.10070
      10     C     3.09511  3.09511  0.00000 -0.19022
      11     H     0.45113  0.45113  0.00000  0.09774
      12     H     0.45201  0.45201  0.00000  0.09597
      13     C     3.09050  3.09050  0.00000 -0.18100
      14     H     0.45357  0.45357  0.00000  0.09286
      15     H     0.44878  0.44878  0.00000  0.10244
      16     C     3.15238  3.15238  0.00000 -0.30477
      17     H     0.44807  0.44807  0.00000  0.10385
      18     H     0.45411  0.45411  0.00000  0.09179
      19     H     0.45482  0.45482  0.00000  0.09037
      20     H     0.45362  0.45362  0.00000  0.09276
      21     H     0.44585  0.44585  0.00000  0.10830

   Total alpha = 29.00000, Total beta = 29.00000, Total charge =  0.00000

*** Psi4 exiting successfully. Buy a developer a beer!
