  ==> Input File <==

--------------------------------------------------------------------------
set {
	reference rhf
	basis 6-31G*
}

set_num_threads( 4 )
memory 2 gb

molecule MOL {
0 1

H	 -1.070890	 -1.366565	 0.180696
O	 -1.422729	 -0.573567	 -0.196946
C	 -0.731407	 0.539437	 0.309156
C	 0.680193	 0.672443	 -0.251532
H	 -1.319765	 1.404033	 0.030086
H	 -0.700012	 0.506517	 1.397677
C	 1.508142	 1.765364	 0.425025
H	 1.184451	 -0.284097	 -0.149547
H	 0.605437	 0.881051	 -1.316631
H	 1.664185	 1.550229	 1.477908
H	 2.487994	 1.851563	 -0.032605
H	 1.022179	 2.734881	 0.346675

	symmetry c1
}
set optking {
	frozen_dihedral = ("
		8 4 3 2
	")
}

ee = optimize('scf')
oeprop('DIPOLE', 'QUADRUPOLE', 'MULLIKEN_CHARGES')
f=open( 'psi4out.xyz', 'w' )
f.write( "12  " )
f.write( str(ee) + "\n" )
f.write( MOL.save_string_xyz() )
f.close()
--------------------------------------------------------------------------

    Molecular point group: c1
  Charge       = 0
  Multiplicity = 1
  Basis Set: 6-31G*
  Basis Set:
  @DF-RHF Final Energy:  -193.10967792383101
    Total Energy =                       -193.1096779238309864
    Molecular point group: c1
  Basis Set: 6-31G*
  Basis Set:
  Basis Set: 6-31G*
  Basis Set:
  @DF-RHF Final Energy:  -193.10991337635994
    Total Energy =                       -193.1099133763600548
  Basis Set: 6-31G*
  Basis Set:
  Basis Set: 6-31G*
  Basis Set:
  @DF-RHF Final Energy:  -193.10994612077803
    Total Energy =                       -193.1099461207780337
  Basis Set: 6-31G*
  Basis Set:
  Charge       = 0
  Multiplicity = 1
  Basis Set: 6-31G*
  Basis Set:

    Orbital Energies (a.u.)
    -----------------------

    Doubly Occupied:

       1A    -20.552954     2A    -11.267905     3A    -11.219985
       4A    -11.217120     5A     -1.360178     6A     -1.053733
       7A     -0.918889     8A     -0.819475     9A     -0.693639
      10A     -0.635445    11A     -0.597726    12A     -0.584257
      13A     -0.549175    14A     -0.503905    15A     -0.497146
      16A     -0.468109    17A     -0.429233

  @DF-RHF Final Energy:  -193.10994825577725

   => Energetics <=

    Nuclear Repulsion Energy =            130.9298714807554518
    One-Electron Energy =                -521.3418919846852759
    Two-Electron Energy =                 197.3020722481525695
    DFT Exchange-Correlation Energy =       0.0000000000000000
    Empirical Dispersion Energy =           0.0000000000000000
    PCM Polarization Energy =               0.0000000000000000
    EFP Energy =                            0.0000000000000000
    Total Energy =                       -193.1099482557772831
    Molecular point group: c1
  Basis Set: 6-31G*
  Basis Set:

  -Total Gradient:
     Atom            X                  Y                   Z
    ------   -----------------  -----------------  -----------------
       1       -0.000009710346    -0.000053899337    -0.000007484670
       2        0.000641233666    -0.001169788373     0.001465937705
       3       -0.001072159556     0.001417834969    -0.002545950365
       4        0.001275748935     0.000574924079     0.003280506937
       5        0.000010699420     0.000044099714     0.000032541461
       6       -0.000012108645    -0.000034076836    -0.000009058150
       7        0.000062142358    -0.000070752921    -0.000053635512
       8       -0.000821602995    -0.000690104577    -0.002158210639
       9       -0.000023960041    -0.000014893433    -0.000005571622
      10       -0.000016424929    -0.000006438637    -0.000005291738
      11       -0.000003970437     0.000019019948     0.000015735997
      12       -0.000029887429    -0.000015924594    -0.000009519402

  **** Optimization is complete! (in 4 steps) ****
    Final optimized geometry and variables:
    Molecular point group: c1

    Geometry (in Angstrom), charge = 0, multiplicity = 1:

    H           -0.973684294629    -1.919936961872     0.017263983579
    O           -1.406769119381    -1.124518029805    -0.259205277175
    C           -0.705342242492    -0.016875799995     0.241067560701
    C            0.703479069358     0.094939070072    -0.331712055195
    H           -1.289850694787     0.854765473438    -0.024872548551
    H           -0.663079690399    -0.055774804637     1.329347502602
    C            1.530008282719     1.192536270220     0.334853044814
    H            1.203141601373    -0.867594656438    -0.232011710534
    H            0.627857004247     0.279221931656    -1.399770450201
    H            1.657981505164     1.001927460256     1.396620366683
    H            2.517000161275     1.263219231911    -0.109556933557
    H            1.051719175881     2.162278449408     0.229006267634

  Mulliken Charges: (a.u.)
   Center  Symbol    Alpha    Beta     Spin     Total
       1     H     0.28316  0.28316  0.00000  0.43368
       2     O     4.37019  4.37019  0.00000 -0.74038
       3     C     2.98924  2.98924  0.00000  0.02151
       4     C     3.16552  3.16552  0.00000 -0.33104
       5     H     0.41599  0.41599  0.00000  0.16801
       6     H     0.43248  0.43248  0.00000  0.13505
       7     C     3.24734  3.24734  0.00000 -0.49467
       8     H     0.42755  0.42755  0.00000  0.14489
       9     H     0.41381  0.41381  0.00000  0.17239
      10     H     0.42045  0.42045  0.00000  0.15911
      11     H     0.41525  0.41525  0.00000  0.16950
      12     H     0.41902  0.41902  0.00000  0.16195

   Total alpha = 17.00000, Total beta = 17.00000, Total charge = -0.00000
