  ==> Input File <==

--------------------------------------------------------------------------
set {
	reference rhf
	basis cc-pvtz
}

set_num_threads( 4 )
memory 2 gb

molecule MOL {
0 1

O	 -0.694481	 1.313155	 -0.204815
C	 -0.862519	 0.151932	 -0.046791
C	 -2.171428	 -0.477048	 0.339095
O	 0.085519	 -0.757083	 -0.192238
H	 -2.467997	 -1.191667	 -0.417688
H	 -2.923379	 0.287970	 0.444097
H	 -2.053854	 -1.015120	 1.270901
C	 0.015641	 -1.648136	 -1.299316
C	 0.631272	 -1.043868	 -2.544209
H	 -1.013364	 -1.924104	 -1.469042
H	 0.566338	 -2.521275	 -0.982911
H	 0.620187	 -1.773773	 -3.345811
H	 0.074625	 -0.175167	 -2.868068
H	 1.659155	 -0.754850	 -2.361127

	symmetry c1
}
set optking {
	frozen_dihedral = ("
		8 4 2 1
	")
}

ee = optimize('scf')
oeprop('DIPOLE', 'QUADRUPOLE', 'MULLIKEN_CHARGES')
f=open( 'psi4out.xyz', 'w' )
f.write( "14  " )
f.write( str(ee) + "\n" )
f.write( MOL.save_string_xyz() )
f.close()
--------------------------------------------------------------------------

    Molecular point group: c1
  Charge       = 0
  Multiplicity = 1
  Basis Set: CC-PVTZ
  Basis Set:
  @DF-RHF Final Energy:  -305.96814822567035
    Total Energy =                       -305.9681482256703475
    Molecular point group: c1
  Basis Set: CC-PVTZ
  Basis Set:
  Basis Set: CC-PVTZ
  Basis Set:
  @DF-RHF Final Energy:  -305.96683289022474
    Total Energy =                       -305.9668328902250209
  Basis Set: CC-PVTZ
  Basis Set:
  Basis Set: CC-PVTZ
  Basis Set:
  @DF-RHF Final Energy:  -305.97015471988777
    Total Energy =                       -305.9701547198881144
  Basis Set: CC-PVTZ
  Basis Set:
  Basis Set: CC-PVTZ
  Basis Set:
  @DF-RHF Final Energy:  -305.97121862803289
    Total Energy =                       -305.9712186280327728
  Basis Set: CC-PVTZ
  Basis Set:
  Basis Set: CC-PVTZ
  Basis Set:
  @DF-RHF Final Energy:  -305.97130153535682
    Total Energy =                       -305.9713015353567016
  Basis Set: CC-PVTZ
  Basis Set:
  Basis Set: CC-PVTZ
  Basis Set:
  @DF-RHF Final Energy:  -305.97131452716377
    Total Energy =                       -305.9713145271637700
  Basis Set: CC-PVTZ
  Basis Set:
  Basis Set: CC-PVTZ
  Basis Set:
  @DF-RHF Final Energy:  -305.97131742313729
    Total Energy =                       -305.9713174231372932
  Basis Set: CC-PVTZ
  Basis Set:
  Charge       = 0
  Multiplicity = 1
  Basis Set: CC-PVTZ
  Basis Set:

    Orbital Energies (a.u.)
    -----------------------

    Doubly Occupied:

       1A    -20.577948     2A    -20.542270     3A    -11.370106
       4A    -11.295698     5A    -11.237172     6A    -11.222248
       7A     -1.460551     8A     -1.369461     9A     -1.046749
      10A     -1.011449    11A     -0.890468    12A     -0.767039
      13A     -0.693743    14A     -0.683672    15A     -0.675086
      16A     -0.611010    17A     -0.597436    18A     -0.585038
      19A     -0.547943    20A     -0.546936    21A     -0.523252
      22A     -0.485579    23A     -0.456688    24A     -0.439310

  @DF-RHF Final Energy:  -305.97131815120366

   => Energetics <=

    Nuclear Repulsion Energy =            248.7610171419340190
    One-Electron Energy =                -910.1909602815651397
    Two-Electron Energy =                 355.4586249884273457
    DFT Exchange-Correlation Energy =       0.0000000000000000
    Empirical Dispersion Energy =           0.0000000000000000
    PCM Polarization Energy =               0.0000000000000000
    EFP Energy =                            0.0000000000000000
    Total Energy =                       -305.9713181512038318
    Molecular point group: c1
  Basis Set: CC-PVTZ
  Basis Set:

  -Total Gradient:
     Atom            X                  Y                   Z
    ------   -----------------  -----------------  -----------------
       1       -0.000152888202    -0.000062776754    -0.001166920008
       2        0.000530206052     0.000445438226     0.001497924855
       3       -0.000023247543    -0.000001201601    -0.000101065763
       4       -0.000984372346    -0.001027142475     0.000174089431
       5        0.000002106048    -0.000022414247     0.000039271204
       6        0.000007692611    -0.000002507897     0.000011674249
       7        0.000006102025     0.000010084539     0.000032562725
       8        0.000618220896     0.000659217950    -0.000505806350
       9       -0.000002368852    -0.000028223861     0.000003780502
      10       -0.000000334746     0.000015386663     0.000009424144
      11        0.000007715718     0.000002033222     0.000004374644
      12       -0.000008847390     0.000001627773     0.000015412648
      13       -0.000000007822     0.000004994994    -0.000018343859
      14        0.000000023551     0.000005483472     0.000003621577

  **** Optimization is complete! (in 8 steps) ****
    Final optimized geometry and variables:
    Molecular point group: c1

    Geometry (in Angstrom), charge = 0, multiplicity = 1:

    O           -0.074162804402     1.676045884695     0.518408915339
    C           -0.361294288888     0.539263118372     0.613186875429
    C           -1.747182812899     0.053367065096     0.947732404374
    O            0.569251496571    -0.425777978855     0.499111276175
    H           -2.126941167143    -0.601027398712     0.173890166929
    H           -2.407840501318     0.897314579117     1.061066467947
    H           -1.708790907194    -0.516348946233     1.867895153616
    C            0.576976363267    -1.273815927754    -0.635882661163
    C            1.033996333884    -0.553543010794    -1.888733421539
    H           -0.401591905475    -1.717874266453    -0.779946094250
    H            1.261327602115    -2.068678921547    -0.382266406573
    H            1.087471930931    -1.256764654377    -2.712393589243
    H            0.350134414837     0.239767345845    -2.164384606819
    H            2.012513426913    -0.117342942804    -1.738072192004

  Mulliken Charges: (a.u.)
   Center  Symbol    Alpha    Beta     Spin     Total
       1     O     4.17084  4.17084  0.00000 -0.34168
       2     C     2.80375  2.80375  0.00000  0.39249
       3     C     3.14765  3.14765  0.00000 -0.29529
       4     O     4.16612  4.16612  0.00000 -0.33225
       5     H     0.45242  0.45242  0.00000  0.09516
       6     H     0.43448  0.43448  0.00000  0.13103
       7     H     0.44268  0.44268  0.00000  0.11464
       8     C     2.99248  2.99248  0.00000  0.01504
       9     C     3.13664  3.13664  0.00000 -0.27328
      10     H     0.46181  0.46181  0.00000  0.07638
      11     H     0.44246  0.44246  0.00000  0.11508
      12     H     0.45198  0.45198  0.00000  0.09605
      13     H     0.45231  0.45231  0.00000  0.09538
      14     H     0.44438  0.44438  0.00000  0.11124

   Total alpha = 24.00000, Total beta = 24.00000, Total charge =  0.00000
