  ==> Input File <==

--------------------------------------------------------------------------
set {
	reference rhf
	basis cc-pvtz
}

set_num_threads( 4 )
memory 2 gb

molecule MOL {
0 1

H	 -1.990696	 -0.233950	 -2.755010
N	 -1.049633	 -0.344622	 -2.443203
C	 -0.969475	 -1.306863	 -1.359779
H	 -0.727779	 0.547433	 -2.132327
C	 0.459116	 -1.457954	 -0.889729
H	 -1.587648	 -1.045804	 -0.501727
H	 -1.309701	 -2.269719	 -1.724754
O	 0.881195	 -0.248324	 -0.336237
H	 0.521609	 -2.251450	 -0.146337
H	 1.093926	 -1.727835	 -1.730627
C	 2.208068	 -0.234417	 0.074171
H	 2.725499	 -1.027054	 -0.446768
H	 2.688377	 0.712084	 -0.164856
H	 2.295137	 -0.403407	 1.144883

	symmetry c1
}
set optking {
	frozen_dihedral = ("
		5 8 11 13
	")
}

ee = optimize('scf')
oeprop('DIPOLE', 'QUADRUPOLE', 'MULLIKEN_CHARGES')
f=open( 'psi4out.xyz', 'w' )
f.write( "14  " )
f.write( str(ee) + "\n" )
f.write( MOL.save_string_xyz() )
f.close()
--------------------------------------------------------------------------

    Molecular point group: c1
  Charge       = 0
  Multiplicity = 1
  Basis Set: CC-PVTZ
  Basis Set:
  @DF-RHF Final Energy:  -248.22255163528158
    Total Energy =                       -248.2225516352814907
    Molecular point group: c1
  Basis Set: CC-PVTZ
  Basis Set:
  Basis Set: CC-PVTZ
  Basis Set:
  @DF-RHF Final Energy:  -248.22330557097976
    Total Energy =                       -248.2233055709797327
  Basis Set: CC-PVTZ
  Basis Set:
  Basis Set: CC-PVTZ
  Basis Set:
  @DF-RHF Final Energy:  -248.22350628116888
    Total Energy =                       -248.2235062811688522
  Basis Set: CC-PVTZ
  Basis Set:
  Charge       = 0
  Multiplicity = 1
  Basis Set: CC-PVTZ
  Basis Set:

    Orbital Energies (a.u.)
    -----------------------

    Doubly Occupied:

       1A    -20.548198     2A    -15.523162     3A    -11.264350
       4A    -11.263287     5A    -11.239468     6A     -1.381083
       7A     -1.175617     8A     -1.000509     9A     -0.907847
      10A     -0.815513    11A     -0.684054    12A     -0.674466
      13A     -0.645604    14A     -0.611907    15A     -0.607690
      16A     -0.540688    17A     -0.534812    18A     -0.496892
      19A     -0.473435    20A     -0.416579    21A     -0.383559

  @DF-RHF Final Energy:  -248.22350749505634

   => Energetics <=

    Nuclear Repulsion Energy =            194.5060335204878186
    One-Electron Energy =                -723.0816409438002665
    Two-Electron Energy =                 280.3520999282558250
    DFT Exchange-Correlation Energy =       0.0000000000000000
    Empirical Dispersion Energy =           0.0000000000000000
    PCM Polarization Energy =               0.0000000000000000
    EFP Energy =                            0.0000000000000000
    Total Energy =                       -248.2235074950566514
    Molecular point group: c1
  Basis Set: CC-PVTZ
  Basis Set:

  -Total Gradient:
     Atom            X                  Y                   Z
    ------   -----------------  -----------------  -----------------
       1        0.000002283036    -0.000006937321     0.000006087177
       2        0.000002374792     0.000002908161     0.000002274848
       3       -0.000002686391     0.000036695156     0.000011602540
       4        0.000002535570    -0.000003830517     0.000000824778
       5        0.000598604062     0.000584594780    -0.001803841799
       6        0.000004922973     0.000001918120    -0.000004928810
       7        0.000004877074    -0.000006213063    -0.000004931794
       8       -0.000571267619    -0.001042364258     0.002129172052
       9        0.000005115993     0.000025145595    -0.000004769378
      10        0.000020880195     0.000021255755     0.000005268916
      11       -0.000689484942     0.001293834369     0.001867571021
      12        0.000021797446    -0.000013920417    -0.000010859456
      13        0.000633220721    -0.000908805444    -0.002199259022
      14       -0.000033172909     0.000015719084     0.000005788932

  **** Optimization is complete! (in 4 steps) ****
    Final optimized geometry and variables:
    Molecular point group: c1

    Geometry (in Angstrom), charge = 0, multiplicity = 1:

    H           -2.301788456600     0.492232804742    -1.757342232358
    N           -1.361323476237     0.368390046616    -1.448767959452
    C           -1.290048521257    -0.600444789823    -0.370696713699
    H           -1.027921969850     1.254625060615    -1.133604789582
    C            0.137739366783    -0.770404929298     0.095473531008
    H           -1.903628110194    -0.337040355392     0.489891959453
    H           -1.641567289817    -1.557744976430    -0.739841190990
    O            0.573893447938     0.436309926267     0.646537475983
    H            0.189072046402    -1.567262876027     0.836032167998
    H            0.766201415633    -1.045477612815    -0.747428615713
    C            1.902249764245     0.468986064226     1.065125315577
    H            2.494545107672    -0.298091213940     0.575359868954
    H            2.326791991190     1.428895852360     0.801727328474
    H            1.975480626439     0.325103856551     2.138646692238

  Mulliken Charges: (a.u.)
   Center  Symbol    Alpha    Beta     Spin     Total
       1     H     0.43032  0.43032  0.00000  0.13936
       2     N     3.69426  3.69426  0.00000 -0.38853
       3     C     3.02354  3.02354  0.00000 -0.04707
       4     H     0.42224  0.42224  0.00000  0.15552
       5     C     2.96847  2.96847  0.00000  0.06306
       6     H     0.46471  0.46471  0.00000  0.07058
       7     H     0.45873  0.45873  0.00000  0.08254
       8     O     4.18362  4.18362  0.00000 -0.36723
       9     H     0.47054  0.47054  0.00000  0.05891
      10     H     0.46765  0.46765  0.00000  0.06469
      11     C     3.02803  3.02803  0.00000 -0.05607
      12     H     0.47272  0.47272  0.00000  0.05456
      13     H     0.45283  0.45283  0.00000  0.09435
      14     H     0.46234  0.46234  0.00000  0.07533

   Total alpha = 21.00000, Total beta = 21.00000, Total charge =  0.00000
