  ==> Input File <==

--------------------------------------------------------------------------
set {
	reference rhf
	basis 6-31G*
}

set_num_threads( 1 )
memory 2 gb

molecule MOL {
0 1

H	 3.893188	 0.355400	 -0.101367
N	 3.092854	 -0.246221	 -0.068770
C	 1.865559	 0.531981	 0.018834
H	 3.199514	 -0.826043	 0.741946
C	 0.645745	 -0.382037	 -0.029944
H	 1.841966	 1.207024	 -0.831236
H	 1.815756	 1.155410	 0.915079
C	 -0.679275	 0.379305	 0.025956
H	 0.698998	 -0.976915	 -0.937203
H	 0.693479	 -1.083846	 0.802235
C	 -0.525928	 1.820741	 0.514957
H	 -1.371081	 -0.148170	 0.680955
H	 -1.138858	 0.384046	 -0.961266
C	 -1.852963	 2.576456	 0.573119
H	 -0.068155	 1.818449	 1.501695
H	 0.162858	 2.351107	 -0.139216
H	 -2.552435	 2.089128	 1.246593
H	 -1.711496	 3.594169	 0.923622
H	 -2.319449	 2.626093	 -0.406839

	symmetry c1
}
set optking {
	frozen_dihedral = ("
		6 3 5 9,
		12 8 11 15,
		1 2 3 6
	")
}

ee = energy('scf')
oeprop('DIPOLE', 'QUADRUPOLE', 'MULLIKEN_CHARGES')
f=open( 'psi4out.xyz', 'w' )
f.write( "19  " )
f.write( str(ee) + "\n" )
f.write( MOL.save_string_xyz() )
f.close()
--------------------------------------------------------------------------

    Molecular point group: c1

    Geometry (in Angstrom), charge = 0, multiplicity = 1:

       Center              X                  Y                   Z               Mass
    ------------   -----------------  -----------------  -----------------  -----------------
           H          3.434935310780    -0.428868206382    -0.281999406878     1.007825032070
           N          2.634601310780    -1.030489206382    -0.249402406878    14.003074004780
           C          1.407306310780    -0.252287206382    -0.161798406878    12.000000000000
           H          2.741261310780    -1.610311206382     0.561313593122     1.007825032070
           C          0.187492310780    -1.166305206382    -0.210576406878    12.000000000000
           H          1.383713310780     0.422755793618    -1.011868406878     1.007825032070
           H          1.357503310780     0.371141793618     0.734446593122     1.007825032070
           C         -1.137527689220    -0.404963206382    -0.154676406878    12.000000000000
           H          0.240745310780    -1.761183206382    -1.117835406878     1.007825032070
           H          0.235226310780    -1.868114206382     0.621602593122     1.007825032070
           C         -0.984180689220     1.036472793618     0.334324593122    12.000000000000
           H         -1.829333689220    -0.932438206382     0.500322593122     1.007825032070
           H         -1.597110689220    -0.400222206382    -1.141898406878     1.007825032070
           C         -2.311215689220     1.792187793618     0.392486593122    12.000000000000
           H         -0.526407689220     1.034180793618     1.321062593122     1.007825032070
           H         -0.295394689220     1.566838793618    -0.319848406878     1.007825032070
           H         -3.010687689220     1.304859793618     1.065960593122     1.007825032070
           H         -2.169748689220     2.809900793618     0.742989593122     1.007825032070
           H         -2.777701689220     1.841824793618    -0.587471406878     1.007825032070

  Charge       = 0
  Multiplicity = 1
  Basis Set: 6-31G*
  Basis Set:

    Orbital Energies (a.u.)
    -----------------------

    Doubly Occupied:

       1A    -15.530939     2A    -11.237823     3A    -11.214080
       4A    -11.211675     5A    -11.208221     6A    -11.207510
       7A     -1.175772     8A     -1.075673     9A     -0.994772
      10A     -0.897092    11A     -0.841455    12A     -0.763849
      13A     -0.661862    14A     -0.642003    15A     -0.624753
      16A     -0.582847    17A     -0.574438    18A     -0.546194
      19A     -0.526275    20A     -0.504491    21A     -0.492869
      22A     -0.463046    23A     -0.450490    24A     -0.444427
      25A     -0.377963

  @DF-RHF Final Energy:  -251.33924019822351

   => Energetics <=

    Nuclear Repulsion Energy =            252.3985472452240231
    One-Electron Energy =                -838.9745823377402303
    Two-Electron Energy =                 335.2367948942926432
    DFT Exchange-Correlation Energy =       0.0000000000000000
    Empirical Dispersion Energy =           0.0000000000000000
    PCM Polarization Energy =               0.0000000000000000
    EFP Energy =                            0.0000000000000000
    Total Energy =                       -251.3392401982235924

  Mulliken Charges: (a.u.)
   Center  Symbol    Alpha    Beta     Spin     Total
       1     H     0.33296  0.33296  0.00000  0.33408
       2     N     3.92283  3.92283  0.00000 -0.84566
       3     C     3.06544  3.06544  0.00000 -0.13089
       4     H     0.33589  0.33589  0.00000  0.32823
       5     C     3.15443  3.15443  0.00000 -0.30886
       6     H     0.42015  0.42015  0.00000  0.15969
       7     H     0.43022  0.43022  0.00000  0.13957
       8     C     3.15524  3.15524  0.00000 -0.31048
       9     H     0.41037  0.41037  0.00000  0.17927
      10     H     0.42605  0.42605  0.00000  0.14789
      11     C     3.16179  3.16179  0.00000 -0.32357
      12     H     0.42107  0.42107  0.00000  0.15786
      13     H     0.42078  0.42078  0.00000  0.15844
      14     C     3.23660  3.23660  0.00000 -0.47321
      15     H     0.42190  0.42190  0.00000  0.15621
      16     H     0.41997  0.41997  0.00000  0.16007
      17     H     0.42224  0.42224  0.00000  0.15551
      18     H     0.42017  0.42017  0.00000  0.15967
      19     H     0.42190  0.42190  0.00000  0.15620

   Total alpha = 25.00000, Total beta = 25.00000, Total charge =  0.00000
