                              Psi4 1.0.54 Driver

  ==> Input File <==

--------------------------------------------------------------------------
set {
	reference rhf
	basis cc-pvtz
}

set_num_threads( 4 )
memory 2 gb

molecule MOL {
0 1

H	 -3.436473	 1.252944	 -1.023892
O	 -3.458596	 0.315260	 -0.960865
C	 -3.176635	 -0.080824	 0.355601
C	 -1.763371	 0.265266	 0.799691
H	 -3.321825	 -1.153438	 0.379502
H	 -3.895468	 0.357385	 1.043382
C	 -0.673390	 -0.426948	 -0.013392
H	 -1.631049	 1.344913	 0.747560
H	 -1.664587	 -0.001624	 1.849167
C	 0.736099	 -0.115037	 0.482615
H	 -0.765389	 -0.137072	 -1.054267
H	 -0.837001	 -1.501515	 0.018914
C	 1.822030	 -0.814890	 -0.332252
H	 0.888406	 0.959703	 0.457599
H	 0.825823	 -0.411673	 1.525599
C	 3.248498	 -0.597932	 0.175651
H	 1.758141	 -0.489965	 -1.368201
H	 1.617681	 -1.882051	 -0.337735
C	 3.755089	 0.837897	 0.062052
H	 3.914510	 -1.246280	 -0.385464
H	 3.313400	 -0.921741	 1.211197
H	 3.696429	 1.191230	 -0.962541
H	 4.790822	 0.905959	 0.374887
H	 3.183829	 1.520019	 0.680095

	symmetry c1
}
set optking {
	frozen_dihedral = ("
		11 7 4 3
	")
}

ee,wfn = optimize('scf', return_wfn=True)
oeprop( wfn, 'DIPOLE', 'QUADRUPOLE', 'MULLIKEN_CHARGES')
f=open( 'psi4out.xyz', 'w' )
f.write( "24  " )
f.write( str(ee) + "\n" )
f.write( MOL.save_string_xyz() )
f.close()
--------------------------------------------------------------------------

    Molecular point group: c1
  Charge       = 0
  Multiplicity = 1
  Basis Set: CC-PVTZ
  Basis Set:
  @DF-RHF Final Energy:  -349.38038658040335
    Total Energy =                       -349.3803865804035240
    Molecular point group: c1
  Basis Set: CC-PVTZ
  Basis Set:
  Basis Set: CC-PVTZ
  Basis Set:
  @DF-RHF Final Energy:  -349.38039058148991
    Total Energy =                       -349.3803905814894506
  Basis Set: CC-PVTZ
  Basis Set:
  Basis Set: CC-PVTZ
  Basis Set:
  @DF-RHF Final Energy:  -349.38039372722722
    Total Energy =                       -349.3803937272272719
  Basis Set: CC-PVTZ
  Basis Set:
  Charge       = 0
  Multiplicity = 1
  Basis Set: CC-PVTZ
  Basis Set:

    Orbital Energies (a.u.)
    -----------------------

    Doubly Occupied:

       1A    -20.546133     2A    -11.265455     3A    -11.215175
       4A    -11.212109     5A    -11.210216     6A    -11.209458
       7A    -11.209089     8A    -11.205322     9A     -1.363968
      10A     -1.089906    11A     -1.049461    12A     -0.986753
      13A     -0.916075    14A     -0.851200    15A     -0.801420
      16A     -0.776629    17A     -0.681729    18A     -0.654698
      19A     -0.626746    20A     -0.620940    21A     -0.598442
      22A     -0.585695    23A     -0.558208    24A     -0.542501
      25A     -0.516162    26A     -0.508579    27A     -0.500407
      28A     -0.473634    29A     -0.468115    30A     -0.461195
      31A     -0.456338    32A     -0.451155    33A     -0.421156

  @DF-RHF Final Energy:  -349.38039378065986

   => Energetics <=

    Nuclear Repulsion Energy =            384.7918785997551936
    One-Electron Energy =               -1236.2764051715162168
    Two-Electron Energy =                 502.1041327911014491
    DFT Exchange-Correlation Energy =       0.0000000000000000
    Empirical Dispersion Energy =           0.0000000000000000
    PCM Polarization Energy =               0.0000000000000000
    EFP Energy =                            0.0000000000000000
    Total Energy =                       -349.3803937806596309
    Molecular point group: c1
  Basis Set: CC-PVTZ
  Basis Set:

  -Total Gradient:
     Atom            X                  Y                   Z
    ------   -----------------  -----------------  -----------------
       1       -0.000000441723    -0.000018006587     0.000009717256
       2       -0.000016208833     0.000010853851    -0.000027351725
       3        0.000006809392    -0.000345663566     0.000318475656
       4        0.000095760201     0.000609649336    -0.000392016676
       5        0.000004670990     0.000017211720    -0.000003810871
       6        0.000004534834    -0.000006557581    -0.000008795362
       7       -0.000489777816    -0.000726836545    -0.000033990288
       8        0.000001329385    -0.000014123396    -0.000001374143
       9        0.000001092392    -0.000002683491     0.000009319600
      10       -0.000007702540    -0.000022014267     0.000026059577
      11        0.000384494663     0.000478867887     0.000091590156
      12        0.000004192765     0.000018058042     0.000013799109
      13        0.000008189537    -0.000002881468    -0.000000631643
      14        0.000006194086     0.000002595615     0.000002041747
      15        0.000008103927     0.000000931317     0.000008471267
      16        0.000001495981     0.000003156291    -0.000015846496
      17        0.000001150777    -0.000007309731    -0.000002109240
      18        0.000001720537     0.000003619394     0.000006192514
      19       -0.000002822855    -0.000001209819     0.000002548416
      20        0.000001056226     0.000002777786    -0.000001448493
      21       -0.000003557287    -0.000000439384    -0.000005655252
      22       -0.000000253665    -0.000002193590     0.000003237658
      23       -0.000000787864     0.000001346353     0.000001087928
      24       -0.000009243109     0.000000851832     0.000000489302

  **** Optimization is complete! (in 4 steps) ****
    Final optimized geometry and variables:
    Molecular point group: c1

    Geometry (in Angstrom), charge = 0, multiplicity = 1:

    H           -3.427389288053     1.302527112187    -1.092330144276
    O           -3.457496848183     0.365859017315    -1.018854151782
    C           -3.181930715595    -0.017586174987     0.302695457630
    C           -1.767360133196     0.321677081670     0.747339750144
    H           -3.334931585252    -1.088730097723     0.337586684942
    H           -3.899423791454     0.433242730929     0.983727778534
    C           -0.679599130866    -0.377775445012    -0.062600128152
    H           -1.627028727043     1.400274419740     0.697203988466
    H           -1.673215583524     0.052479297613     1.796801575460
    C            0.730421199557    -0.064972526074     0.432254592979
    H           -0.768172884558    -0.089990967811    -1.104409384743
    H           -0.844608679190    -1.451776625619    -0.025979826339
    C            1.816317579853    -0.760157742122    -0.386728496675
    H            0.880885524378     1.010144388846     0.410536984303
    H            0.822400033785    -0.364783897458     1.474098444634
    C            3.243311111790    -0.541854393696     0.119173892460
    H            1.749934530345    -0.432341849777    -1.421617482618
    H            1.614061324715    -1.827704853930    -0.395086222915
    C            3.745783723748     0.895905725305     0.011664032870
    H            3.909886542621    -1.185591652295    -0.446558702773
    H            3.311336198483    -0.870666327515     1.152938386110
    H            3.682660189579     1.254689741163    -1.010769241710
    H            4.782406925596     0.965041309133     0.321285918935
    H            3.174874751611     1.573144539336     0.635369476119

  Mulliken Charges: (a.u.)
   Center  Symbol    Alpha    Beta     Spin     Total
       1     H     0.39528  0.39528  0.00000  0.20943
       2     O     4.20385  4.20385  0.00000 -0.40771
       3     C     2.97790  2.97790  0.00000  0.04419
       4     C     3.10247  3.10247  0.00000 -0.20493
       5     H     0.45880  0.45880  0.00000  0.08241
       6     H     0.46055  0.46055  0.00000  0.07891
       7     C     3.08499  3.08499  0.00000 -0.16998
       8     H     0.45867  0.45867  0.00000  0.08265
       9     H     0.45377  0.45377  0.00000  0.09247
      10     C     3.09185  3.09185  0.00000 -0.18369
      11     H     0.44730  0.44730  0.00000  0.10540
      12     H     0.45490  0.45490  0.00000  0.09020
      13     C     3.09459  3.09459  0.00000 -0.18918
      14     H     0.45349  0.45349  0.00000  0.09301
      15     H     0.45612  0.45612  0.00000  0.08775
      16     C     3.09014  3.09014  0.00000 -0.18028
      17     H     0.45365  0.45365  0.00000  0.09270
      18     H     0.44964  0.44964  0.00000  0.10071
      19     C     3.15255  3.15255  0.00000 -0.30510
      20     H     0.44858  0.44858  0.00000  0.10283
      21     H     0.45520  0.45520  0.00000  0.08961
      22     H     0.45489  0.45489  0.00000  0.09023
      23     H     0.44660  0.44660  0.00000  0.10679
      24     H     0.45421  0.45421  0.00000  0.09157

   Total alpha = 33.00000, Total beta = 33.00000, Total charge = -0.00000

*** Psi4 exiting successfully. Buy a developer a beer!
