                              Psi4 1.0.54 Driver

  ==> Input File <==

--------------------------------------------------------------------------
set {
	reference rhf
	basis cc-pvtz
}

set_num_threads( 4 )
memory 2 gb

molecule MOL {
0 1

O	 -0.908859	 2.052685	 1.967366
C	 -0.777587	 1.984623	 0.788567
C	 0.473803	 1.389009	 0.174308
C	 -1.851755	 2.467198	 -0.156976
C	 0.376695	 -0.140025	 0.100361
H	 1.311543	 1.669946	 0.799908
H	 0.636729	 1.796676	 -0.817724
C	 1.630207	 -0.772146	 -0.501001
H	 0.203434	 -0.518015	 1.100028
H	 -0.487023	 -0.424022	 -0.495991
C	 2.907848	 -0.545876	 0.309149
H	 1.772784	 -0.391628	 -1.509394
H	 1.468529	 -1.842059	 -0.599744
C	 3.373802	 0.906639	 0.372125
H	 3.699140	 -1.146831	 -0.127906
H	 2.764321	 -0.923458	 1.318191
H	 3.519798	 1.311927	 -0.623875
H	 4.316899	 0.983758	 0.900700
H	 2.661122	 1.540651	 0.885346
H	 -1.490315	 3.339517	 -0.692158
H	 -2.743071	 2.726146	 0.393542
H	 -2.078963	 1.708638	 -0.897619

	symmetry c1
}
set optking {
	frozen_dihedral = ("
		3 5 8 12
	")
}

ee,wfn = optimize('scf', return_wfn=True)
oeprop( wfn, 'DIPOLE', 'QUADRUPOLE', 'MULLIKEN_CHARGES')
f=open( 'psi4out.xyz', 'w' )
f.write( "22  " )
f.write( str(ee) + "\n" )
f.write( MOL.save_string_xyz() )
f.close()
--------------------------------------------------------------------------

    Molecular point group: c1
  Charge       = 0
  Multiplicity = 1
  Basis Set: CC-PVTZ
  Basis Set:
  @DF-RHF Final Energy:  -348.20014715992585
    Total Energy =                       -348.2001471599260185
    Molecular point group: c1
  Basis Set: CC-PVTZ
  Basis Set:
  Basis Set: CC-PVTZ
  Basis Set:
  @DF-RHF Final Energy:  -348.21437289699514
    Total Energy =                       -348.2143728969946324
  Basis Set: CC-PVTZ
  Basis Set:
  Basis Set: CC-PVTZ
  Basis Set:
  @DF-RHF Final Energy:  -348.21731524925195
    Total Energy =                       -348.2173152492517261
  Basis Set: CC-PVTZ
  Basis Set:
  Basis Set: CC-PVTZ
  Basis Set:
  @DF-RHF Final Energy:  -348.21762974576473
    Total Energy =                       -348.2176297457647820
  Basis Set: CC-PVTZ
  Basis Set:
  @DF-RHF Final Energy:  -348.21685307811475
    Total Energy =                       -348.2168530781149798
  @DF-RHF Final Energy:  -348.21869380311176
    Total Energy =                       -348.2186938031115915
  @DF-RHF Final Energy:  -348.21868854047170
    Total Energy =                       -348.2186885404714758
  @DF-RHF Final Energy:  -348.21889736866029
    Total Energy =                       -348.2188973686599525
  Basis Set: CC-PVTZ
  Basis Set:
  @DF-RHF Final Energy:  -348.21879431609483
    Total Energy =                       -348.2187943160948862
  Basis Set: CC-PVTZ
  Basis Set:
  Basis Set: CC-PVTZ
  Basis Set:
  @DF-RHF Final Energy:  -348.21890764915327
    Total Energy =                       -348.2189076491532660
  Basis Set: CC-PVTZ
  Basis Set:
  Basis Set: CC-PVTZ
  Basis Set:
  @DF-RHF Final Energy:  -348.21890992500443
    Total Energy =                       -348.2189099250046525
  Basis Set: CC-PVTZ
  Basis Set:
  Charge       = 0
  Multiplicity = 1
  Basis Set: CC-PVTZ
  Basis Set:

    Orbital Energies (a.u.)
    -----------------------

    Doubly Occupied:

       1A    -20.536876     2A    -11.319290     3A    -11.229065
       4A    -11.227307     5A    -11.226935     6A    -11.221132
       7A    -11.218841     8A    -11.210830     9A     -1.396998
      10A     -1.096085    11A     -1.043316    12A     -0.999956
      13A     -0.945431    14A     -0.855518    15A     -0.787213
      16A     -0.736423    17A     -0.657875    18A     -0.656176
      19A     -0.622463    20A     -0.611907    21A     -0.599125
      22A     -0.594877    23A     -0.557801    24A     -0.552202
      25A     -0.533520    26A     -0.525916    27A     -0.499410
      28A     -0.489936    29A     -0.471830    30A     -0.464829
      31A     -0.455855    32A     -0.398438

  @DF-RHF Final Energy:  -348.21891039711983

   => Energetics <=

    Nuclear Repulsion Energy =            378.8207694097126819
    One-Electron Energy =               -1222.5926032192887760
    Two-Electron Energy =                 495.5529234124563800
    DFT Exchange-Correlation Energy =       0.0000000000000000
    Empirical Dispersion Energy =           0.0000000000000000
    PCM Polarization Energy =               0.0000000000000000
    EFP Energy =                            0.0000000000000000
    Total Energy =                       -348.2189103971196573
    Molecular point group: c1
  Basis Set: CC-PVTZ
  Basis Set:

  -Total Gradient:
     Atom            X                  Y                   Z
    ------   -----------------  -----------------  -----------------
       1       -0.000001210601     0.000000017474    -0.000016418353
       2        0.000008400675     0.000026679585     0.000016449351
       3       -0.000045867318     0.000019305462    -0.000128186154
       4       -0.000008541310    -0.000026532942    -0.000005382397
       5        0.000116998868     0.000005374786     0.000258195768
       6       -0.000056796858    -0.000005437817    -0.000026513958
       7        0.000001450374    -0.000003162055     0.000003250377
       8       -0.000155202602    -0.000191667349    -0.000197821912
       9       -0.000006327763     0.000005325350     0.000001141293
      10        0.000010873409    -0.000000776758     0.000003967497
      11       -0.000033198439     0.000016707971     0.000012285102
      12        0.000115796830     0.000163222818     0.000094831796
      13        0.000016212921     0.000000863022     0.000002928502
      14        0.000009182434     0.000030079341    -0.000059616376
      15        0.000000338547    -0.000016909260    -0.000009900828
      16       -0.000008519800     0.000000205686     0.000008791461
      17       -0.000002229101     0.000004070261     0.000025605273
      18       -0.000011430467    -0.000002294980    -0.000009138618
      19        0.000049098016    -0.000037302690     0.000019927321
      20       -0.000004088250    -0.000002653640     0.000011940183
      21        0.000005994857     0.000005973365    -0.000004640795
      22       -0.000000934425     0.000008912374    -0.000001694532

  **** Optimization is complete! (in 12 steps) ****
    Final optimized geometry and variables:
    Molecular point group: c1

    Geometry (in Angstrom), charge = 0, multiplicity = 1:

    O           -1.905043634110     0.973202706792     1.569349660875
    C           -1.615629709992     1.001809275021     0.417512483858
    C           -0.248667183323     0.549065454719    -0.056357697330
    C           -2.592800299804     1.473968833991    -0.632818478396
    C           -0.229082565678    -0.972109870428    -0.258708245949
    H            0.464500556651     0.836525838626     0.702779488573
    H            0.012028262927     1.049436802819    -0.983126647795
    C            1.067296601761    -1.543265268688    -0.839689526847
    H           -0.436760425850    -1.446354687374     0.694281406617
    H           -1.043241550785    -1.250133243158    -0.922433109444
    C            2.323506951204    -1.398125504536     0.035888972285
    H            1.253235372029    -1.102374660710    -1.815858254083
    H            0.891196418367    -2.598805838046    -1.017575587561
    C            3.173995472666    -0.161345897039    -0.250180224316
    H            2.948902174970    -2.271808715883    -0.113564611457
    H            2.038625480902    -1.412616426718     1.084012627196
    H            3.520485961160    -0.163690031158    -1.278292294658
    H            4.048197877655    -0.141037215709     0.390567136557
    H            2.630644465108     0.760884743156    -0.089917610447
    H           -2.245237370966     2.417571991461    -1.041376326424
    H           -3.570520385314     1.609924464539    -0.196801153923
    H           -2.646029679528     0.769249349594    -1.454796657993

  Mulliken Charges: (a.u.)
   Center  Symbol    Alpha    Beta     Spin     Total
       1     O     4.17722  4.17722  0.00000 -0.35443
       2     C     2.85796  2.85796  0.00000  0.28409
       3     C     3.10722  3.10722  0.00000 -0.21445
       4     C     3.15520  3.15520  0.00000 -0.31040
       5     C     3.10590  3.10590  0.00000 -0.21180
       6     H     0.43630  0.43630  0.00000  0.12740
       7     H     0.44627  0.44627  0.00000  0.10746
       8     C     3.10043  3.10043  0.00000 -0.20086
       9     H     0.44052  0.44052  0.00000  0.11895
      10     H     0.44559  0.44559  0.00000  0.10882
      11     C     3.09890  3.09890  0.00000 -0.19780
      12     H     0.45411  0.45411  0.00000  0.09178
      13     H     0.44229  0.44229  0.00000  0.11542
      14     C     3.14849  3.14849  0.00000 -0.29697
      15     H     0.44492  0.44492  0.00000  0.11015
      16     H     0.44880  0.44880  0.00000  0.10239
      17     H     0.45456  0.45456  0.00000  0.09088
      18     H     0.44636  0.44636  0.00000  0.10728
      19     H     0.45415  0.45415  0.00000  0.09170
      20     H     0.44821  0.44821  0.00000  0.10359
      21     H     0.43588  0.43588  0.00000  0.12823
      22     H     0.45071  0.45071  0.00000  0.09859

   Total alpha = 32.00000, Total beta = 32.00000, Total charge =  0.00000

*** Psi4 exiting successfully. Buy a developer a beer!
