  ==> Input File <==

--------------------------------------------------------------------------
set {
	reference rhf
	basis 6-31G*
}

set_num_threads( 4 )
memory 2 gb

molecule MOL {
0 1

H	 3.463771	 0.168298	 -0.756243
C	 2.752674	 -0.045734	 0.033351
C	 1.322923	 0.120767	 -0.479465
H	 2.934561	 -1.059086	 0.377456
H	 2.958358	 0.631174	 0.856809
C	 0.306652	 -0.176050	 0.621399
H	 1.144658	 -0.551717	 -1.312180
H	 1.166477	 1.131798	 -0.836680
N	 -1.068537	 -0.011044	 0.085269
H	 0.372515	 -1.192590	 0.973735
H	 0.391664	 0.520566	 1.441230
O	 -1.279988	 -0.405374	 -1.019794
O	 -1.861579	 0.536248	 0.789244

	symmetry c1
}
set optking {
	frozen_dihedral = ("
		12 9 6 3
	")
}

ee = optimize('scf')
oeprop('DIPOLE', 'QUADRUPOLE', 'MULLIKEN_CHARGES')
f=open( 'psi4out.xyz', 'w' )
f.write( "13  " )
f.write( str(ee) + "\n" )
f.write( MOL.save_string_xyz() )
f.close()
--------------------------------------------------------------------------

    Molecular point group: c1
  Charge       = 0
  Multiplicity = 1
  Basis Set: 6-31G*
  Basis Set:
  @DF-RHF Final Energy:  -321.73438160974729
    Total Energy =                       -321.7343816097471176
    Molecular point group: c1
  Basis Set: 6-31G*
  Basis Set:
  Basis Set: 6-31G*
  Basis Set:
  @DF-RHF Final Energy:  -321.73116916860795
    Total Energy =                       -321.7311691686080053
  Basis Set: 6-31G*
  Basis Set:
  Basis Set: 6-31G*
  Basis Set:
  @DF-RHF Final Energy:  -321.73153956399756
    Total Energy =                       -321.7315395639975577
  Basis Set: 6-31G*
  Basis Set:
  Basis Set: 6-31G*
  Basis Set:
  @DF-RHF Final Energy:  -321.73478765539653
    Total Energy =                       -321.7347876553966444
  Basis Set: 6-31G*
  Basis Set:
  @DF-RHF Final Energy:  -321.73521502230562
    Total Energy =                       -321.7352150223056242
  Basis Set: 6-31G*
  Basis Set:
  @DF-RHF Final Energy:  -321.73526371257338
    Total Energy =                       -321.7352637125734418
  Basis Set: 6-31G*
  Basis Set:
  Basis Set: 6-31G*
  Basis Set:
  @DF-RHF Final Energy:  -321.73526636376573
    Total Energy =                       -321.7352663637655041
  Basis Set: 6-31G*
  Basis Set:
  Basis Set: 6-31G*
  Basis Set:
  @DF-RHF Final Energy:  -321.73526902529954
    Total Energy =                       -321.7352690252994876
  Basis Set: 6-31G*
  Basis Set:
  Charge       = 0
  Multiplicity = 1
  Basis Set: 6-31G*
  Basis Set:

    Orbital Energies (a.u.)
    -----------------------

    Doubly Occupied:

       1A    -20.601952     2A    -20.600806     3A    -15.848202
       4A    -11.300429     5A    -11.252010     6A    -11.238222
       7A     -1.631664     8A     -1.416896     9A     -1.133578
      10A     -1.027741    11A     -0.884573    12A     -0.828407
      13A     -0.760490    14A     -0.742560    15A     -0.725145
      16A     -0.662945    17A     -0.605982    18A     -0.581980
      19A     -0.551185    20A     -0.522834    21A     -0.510761
      22A     -0.484364    23A     -0.473202    24A     -0.449353

  @DF-RHF Final Energy:  -321.73526907522705

   => Energetics <=

    Nuclear Repulsion Energy =            247.1031623810719964
    One-Electron Energy =                -928.0063032870909865
    Two-Electron Energy =                 359.1678718307921372
    DFT Exchange-Correlation Energy =       0.0000000000000000
    Empirical Dispersion Energy =           0.0000000000000000
    PCM Polarization Energy =               0.0000000000000000
    EFP Energy =                            0.0000000000000000
    Total Energy =                       -321.7352690752268245
    Molecular point group: c1
  Basis Set: 6-31G*
  Basis Set:

  -Total Gradient:
     Atom            X                  Y                   Z
    ------   -----------------  -----------------  -----------------
       1        0.000003216291    -0.000003860678    -0.000001739942
       2        0.000001074989    -0.000008843289     0.000002450061
       3       -0.000028291124    -0.000273687335    -0.000068062957
       4       -0.000004807703     0.000004106842     0.000005369316
       5        0.000003374496     0.000003422163    -0.000006175054
       6        0.000041354545     0.000543252038     0.000050238081
       7       -0.000004548097    -0.000002504143    -0.000007173488
       8       -0.000003255122     0.000002470905     0.000003636320
       9       -0.000098324519    -0.000618959478     0.000168801709
      10       -0.000001953187     0.000001611251    -0.000000137283
      11        0.000010679638    -0.000013476519     0.000000818916
      12        0.000090709349     0.000370122233    -0.000115199245
      13       -0.000009229553    -0.000003653991    -0.000032826435

  **** Optimization is complete! (in 9 steps) ****
    Final optimized geometry and variables:
    Molecular point group: c1

    Geometry (in Angstrom), charge = 0, multiplicity = 1:

    H            3.499166832186     0.150563176549    -0.744443854373
    C            2.770615269786    -0.047515667680     0.033292248585
    C            1.352096762964     0.110188483544    -0.515017204494
    H            2.944080325019    -1.055220318903     0.398957027898
    H            2.962402340923     0.642135335983     0.849573785211
    C            0.322056244343    -0.167711477669     0.570297830682
    H            1.190107746743    -0.565834516942    -1.343396445437
    H            1.211062696594     1.118079488181    -0.892119482235
    N           -1.075278300738     0.001412478951     0.083065568216
    H            0.370920138673    -1.193773716687     0.913000721069
    H            0.412608543447     0.491477406635     1.418148627106
    O           -1.331062765563    -0.391887941839    -1.013541096328
    O           -1.855505429503     0.495451260372     0.836581039085

  Mulliken Charges: (a.u.)
   Center  Symbol    Alpha    Beta     Spin     Total
       1     H     0.40752  0.40752  0.00000  0.18496
       2     C     3.24943  3.24943  0.00000 -0.49887
       3     C     3.16933  3.16933  0.00000 -0.33867
       4     H     0.41597  0.41597  0.00000  0.16807
       5     H     0.41574  0.41574  0.00000  0.16852
       6     C     3.08844  3.08844  0.00000 -0.17688
       7     H     0.39436  0.39436  0.00000  0.21127
       8     H     0.40598  0.40598  0.00000  0.18804
       9     N     3.22234  3.22234  0.00000  0.55533
      10     H     0.38669  0.38669  0.00000  0.22662
      11     H     0.38581  0.38581  0.00000  0.22837
      12     O     4.22979  4.22979  0.00000 -0.45959
      13     O     4.22859  4.22859  0.00000 -0.45719

   Total alpha = 24.00000, Total beta = 24.00000, Total charge = -0.00000
