  ==> Input File <==

--------------------------------------------------------------------------
set {
	reference rhf
	basis cc-pvtz
}

set_num_threads( 4 )
memory 2 gb

molecule MOL {
0 1

H	 -2.842362	 -0.585087	 0.010376
N	 -1.898194	 -0.452982	 0.303914
C	 -1.294476	 0.677945	 -0.376286
H	 -1.395843	 -1.288316	 0.089769
C	 0.138180	 0.861265	 0.069287
H	 -1.307822	 0.588262	 -1.461792
H	 -1.847203	 1.574291	 -0.117236
O	 0.881195	 -0.248324	 -0.336237
H	 0.549246	 1.768212	 -0.371900
H	 0.174237	 0.962043	 1.151633
C	 2.208068	 -0.234417	 0.074171
H	 2.725499	 -1.027054	 -0.446768
H	 2.688377	 0.712084	 -0.164856
H	 2.295137	 -0.403407	 1.144883

	symmetry c1
}
set optking {
	frozen_dihedral = ("
		5 8 11 13
	")
}

ee = optimize('scf')
oeprop('DIPOLE', 'QUADRUPOLE', 'MULLIKEN_CHARGES')
f=open( 'psi4out.xyz', 'w' )
f.write( "14  " )
f.write( str(ee) + "\n" )
f.write( MOL.save_string_xyz() )
f.close()
--------------------------------------------------------------------------

    Molecular point group: c1
  Charge       = 0
  Multiplicity = 1
  Basis Set: CC-PVTZ
  Basis Set:
  @DF-RHF Final Energy:  -248.22592472565333
    Total Energy =                       -248.2259247256534991
    Molecular point group: c1
  Basis Set: CC-PVTZ
  Basis Set:
  Basis Set: CC-PVTZ
  Basis Set:
  @DF-RHF Final Energy:  -248.22593506650199
    Total Energy =                       -248.2259350665019610
  Basis Set: CC-PVTZ
  Basis Set:
  Charge       = 0
  Multiplicity = 1
  Basis Set: CC-PVTZ
  Basis Set:

    Orbital Energies (a.u.)
    -----------------------

    Doubly Occupied:

       1A    -20.550517     2A    -15.523575     3A    -11.264003
       4A    -11.263640     5A    -11.239898     6A     -1.384334
       7A     -1.176051     8A     -1.000569     9A     -0.907685
      10A     -0.815851    11A     -0.685617    12A     -0.675752
      13A     -0.647277    14A     -0.612349    15A     -0.607303
      16A     -0.542300    17A     -0.530584    18A     -0.498145
      19A     -0.474732    20A     -0.419582    21A     -0.383935

  @DF-RHF Final Energy:  -248.22593668293214

   => Energetics <=

    Nuclear Repulsion Energy =            194.6930236133623850
    One-Electron Energy =                -723.4305314496956498
    Two-Electron Energy =                 280.5115711534008938
    DFT Exchange-Correlation Energy =       0.0000000000000000
    Empirical Dispersion Energy =           0.0000000000000000
    PCM Polarization Energy =               0.0000000000000000
    EFP Energy =                            0.0000000000000000
    Total Energy =                       -248.2259366829323994
    Molecular point group: c1
  Basis Set: CC-PVTZ
  Basis Set:

  -Total Gradient:
     Atom            X                  Y                   Z
    ------   -----------------  -----------------  -----------------
       1        0.000005970906    -0.000004148303    -0.000001296506
       2       -0.000013459970     0.000001966314     0.000003456789
       3        0.000020860777    -0.000036354616    -0.000000226820
       4        0.000000846278     0.000003310481    -0.000003291166
       5        0.000314505257     0.000587556305    -0.000978123058
       6        0.000002275603     0.000000246315    -0.000000053693
       7        0.000015062213     0.000002001228     0.000008620541
       8       -0.000578071308    -0.000659807946     0.001716654150
       9        0.000000910069    -0.000004015903     0.000002954866
      10       -0.000000455105    -0.000003333767     0.000003772868
      11        0.000618787266    -0.000389044855    -0.002030104599
      12       -0.000006754896    -0.000023897781    -0.000014097884
      13       -0.000397119593     0.000509519535     0.001313301277
      14        0.000016642504     0.000016002995    -0.000021566765

  **** Optimization is complete! (in 3 steps) ****
    Final optimized geometry and variables:
    Molecular point group: c1

    Geometry (in Angstrom), charge = 0, multiplicity = 1:

    H           -2.857036098078    -0.689245259789     0.069581484116
    N           -1.912135437729    -0.556852347889     0.360559258951
    C           -1.311165280231     0.575556218912    -0.319535706334
    H           -1.409970006231    -1.391496007767     0.143374620399
    C            0.122137949475     0.760411989584     0.123257044750
    H           -1.326048136653     0.486749653296    -1.405117655131
    H           -1.864528227220     1.471081689245    -0.058918265276
    O            0.865603418412    -0.347411592116    -0.286280162977
    H            0.531940137416     1.667751729042    -0.317693405943
    H            0.159226131462     0.860339768509     1.205812472376
    C            2.191806372459    -0.338566286451     0.128039138824
    H            2.709512218310    -1.134375384514    -0.387561963115
    H            2.675172505812     0.607895098468    -0.103335360997
    H            2.271938347196    -0.503819454498     1.200111679003

  Mulliken Charges: (a.u.)
   Center  Symbol    Alpha    Beta     Spin     Total
       1     H     0.43023  0.43023  0.00000  0.13955
       2     N     3.69415  3.69415  0.00000 -0.38831
       3     C     3.02230  3.02230  0.00000 -0.04459
       4     H     0.42247  0.42247  0.00000  0.15507
       5     C     2.96910  2.96910  0.00000  0.06180
       6     H     0.46458  0.46458  0.00000  0.07085
       7     H     0.45869  0.45869  0.00000  0.08262
       8     O     4.18026  4.18026  0.00000 -0.36052
       9     H     0.46888  0.46888  0.00000  0.06224
      10     H     0.46944  0.46944  0.00000  0.06112
      11     C     3.03162  3.03162  0.00000 -0.06325
      12     H     0.44810  0.44810  0.00000  0.10379
      13     H     0.47250  0.47250  0.00000  0.05499
      14     H     0.46768  0.46768  0.00000  0.06463

   Total alpha = 21.00000, Total beta = 21.00000, Total charge = -0.00000
