                              Psi4 1.0.54 Driver

  ==> Input File <==

--------------------------------------------------------------------------
set {
	reference rhf
	basis cc-pvtz
}

set_num_threads( 4 )
memory 2 gb

molecule MOL {
0 1

H	 -1.752232	 -2.214755	 -0.011938
C	 -1.343852	 -1.221619	 -0.018179
N	 -0.058800	 -1.097635	 -0.261688
C	 -2.148159	 -0.124236	 0.219734
C	 0.449026	 0.119242	 -0.273393
H	 -3.196988	 -0.237571	 0.417076
N	 -1.655094	 1.094230	 0.209506
C	 -0.370318	 1.215445	 -0.035100
C	 1.924033	 0.265863	 -0.538106
H	 0.033214	 2.210441	 -0.046812
C	 2.759792	 -0.795797	 0.178718
H	 2.084593	 0.188956	 -1.606782
H	 2.247026	 1.254750	 -0.234804
H	 3.809521	 -0.678777	 -0.062755
H	 2.450659	 -1.789101	 -0.119210
H	 2.651686	 -0.716710	 1.254639

	symmetry c1
}
set optking {
	frozen_dihedral = ("
		12 9 5 3
	")
}

ee,wfn = optimize('scf', return_wfn=True)
oeprop( wfn, 'DIPOLE', 'QUADRUPOLE', 'MULLIKEN_CHARGES')
f=open( 'psi4out.xyz', 'w' )
f.write( "16  " )
f.write( str(ee) + "\n" )
f.write( MOL.save_string_xyz() )
f.close()
--------------------------------------------------------------------------

    Molecular point group: c1
  Charge       = 0
  Multiplicity = 1
  Basis Set: CC-PVTZ
  Basis Set:
  @DF-RHF Final Energy:  -340.87139125493712
    Total Energy =                       -340.8713912549371230
    Molecular point group: c1
  Basis Set: CC-PVTZ
  Basis Set:
  Basis Set: CC-PVTZ
  Basis Set:
  @DF-RHF Final Energy:  -340.87158431781256
    Total Energy =                       -340.8715843178123350
  Basis Set: CC-PVTZ
  Basis Set:
  Basis Set: CC-PVTZ
  Basis Set:
  @DF-RHF Final Energy:  -340.87167556115872
    Total Energy =                       -340.8716755611586677
  Basis Set: CC-PVTZ
  Basis Set:
  Basis Set: CC-PVTZ
  Basis Set:
  @DF-RHF Final Energy:  -340.87168070876720
    Total Energy =                       -340.8716807087673146
  Basis Set: CC-PVTZ
  Basis Set:
  Basis Set: CC-PVTZ
  Basis Set:
  @DF-RHF Final Energy:  -340.87168334076864
    Total Energy =                       -340.8716833407688114
  Basis Set: CC-PVTZ
  Basis Set:
  Charge       = 0
  Multiplicity = 1
  Basis Set: CC-PVTZ
  Basis Set:

    Orbital Energies (a.u.)
    -----------------------

    Doubly Occupied:

       1A    -15.580633     2A    -15.575682     3A    -11.279207
       4A    -11.272501     5A    -11.268409     6A    -11.267690
       7A    -11.232553     8A    -11.212735     9A     -1.316195
      10A     -1.224211    11A     -1.085297    12A     -1.014946
      13A     -0.909997    14A     -0.892557    15A     -0.827190
      16A     -0.720191    17A     -0.710852    18A     -0.659299
      19A     -0.622549    20A     -0.603561    21A     -0.575663
      22A     -0.561882    23A     -0.523813    24A     -0.504957
      25A     -0.501341    26A     -0.488425    27A     -0.433784
      28A     -0.397366    29A     -0.346694

  @DF-RHF Final Energy:  -340.87168399088563

   => Energetics <=

    Nuclear Repulsion Energy =            350.4322438742252075
    One-Electron Energy =               -1155.3874888417217335
    Two-Electron Energy =                 464.0835609766108973
    DFT Exchange-Correlation Energy =       0.0000000000000000
    Empirical Dispersion Energy =           0.0000000000000000
    PCM Polarization Energy =               0.0000000000000000
    EFP Energy =                            0.0000000000000000
    Total Energy =                       -340.8716839908856855
    Molecular point group: c1
  Basis Set: CC-PVTZ
  Basis Set:

  -Total Gradient:
     Atom            X                  Y                   Z
    ------   -----------------  -----------------  -----------------
       1       -0.000029002249    -0.000004420921     0.000005415696
       2        0.000136844566    -0.000108965418    -0.000025501288
       3        0.000086303408    -0.000157725845     0.000895224644
       4       -0.000041718183     0.000191128739     0.000009277259
       5       -0.000226859630     0.000539471707    -0.001273284122
       6       -0.000013474921    -0.000020949938     0.000002689533
       7       -0.000172395465    -0.000117843543     0.000027369870
       8        0.000159001086    -0.000018275161    -0.000025211696
       9        0.000176862617    -0.001288127911     0.000462062285
      10       -0.000004524613    -0.000005167893    -0.000006236394
      11       -0.000010061155     0.000102860331    -0.000039411248
      12       -0.000106477263     0.000997641989    -0.000079183078
      13        0.000008393108     0.000004409638     0.000005093790
      14        0.000053683094    -0.000030043980     0.000010572308
      15       -0.000029806177    -0.000070013506    -0.000014125096
      16        0.000013231780    -0.000013978288     0.000045247537

  **** Optimization is complete! (in 6 steps) ****
    Final optimized geometry and variables:
    Molecular point group: c1

    Geometry (in Angstrom), charge = 0, multiplicity = 1:

    H           -1.795540699652    -2.114810704962    -0.013147005535
    C           -1.370647416797    -1.128922894840     0.007451563754
    N           -0.077885367721    -1.023195733157    -0.210888394146
    C           -2.158347537868    -0.024342623592     0.255806633501
    C            0.452545897983     0.181637961339    -0.188000964128
    H           -3.212259535862    -0.121876026302     0.432822297857
    N           -1.641021219104     1.185279086998     0.287267640146
    C           -0.351394088524     1.287227034028     0.069937528628
    C            1.929387265868     0.330125270550    -0.459052387292
    H            0.072664926569     2.273271306237     0.099734654843
    C            2.795787871706    -0.724573022536     0.222810433301
    H            2.082458827144     0.289714896755    -1.533738632639
    H            2.241049657572     1.320594304326    -0.148158666532
    H            3.840082098283    -0.561146103302    -0.015336426679
    H            2.521808413820    -1.718738195595    -0.099717775270
    H            2.685716729025    -0.680219465053     1.300384876882

  Mulliken Charges: (a.u.)
   Center  Symbol    Alpha    Beta     Spin     Total
       1     H     0.41443  0.41443  0.00000  0.17114
       2     C     3.04282  3.04282  0.00000 -0.08563
       3     N     3.59301  3.59301  0.00000 -0.18601
       4     C     3.04786  3.04786  0.00000 -0.09573
       5     C     2.94265  2.94265  0.00000  0.11470
       6     H     0.41369  0.41369  0.00000  0.17263
       7     N     3.58667  3.58667  0.00000 -0.17333
       8     C     3.07776  3.07776  0.00000 -0.15552
       9     C     3.07586  3.07586  0.00000 -0.15172
      10     H     0.41657  0.41657  0.00000  0.16686
      11     C     3.14471  3.14471  0.00000 -0.28942
      12     H     0.44760  0.44760  0.00000  0.10480
      13     H     0.44924  0.44924  0.00000  0.10152
      14     H     0.45022  0.45022  0.00000  0.09957
      15     H     0.44303  0.44303  0.00000  0.11394
      16     H     0.45390  0.45390  0.00000  0.09221

   Total alpha = 29.00000, Total beta = 29.00000, Total charge =  0.00000

*** Psi4 exiting successfully. Buy a developer a beer!
