  ==> Input File <==

--------------------------------------------------------------------------
set {
	reference rhf
	basis 6-31G*
}

set_num_threads( 4 )
memory 2 gb

molecule MOL {
0 1

H	 1.790480	 -1.597825	 2.145060
O	 1.378154	 -1.575472	 1.286996
C	 0.393576	 -0.678341	 1.324330
C	 -0.318135	 -0.576402	 0.000164
O	 0.141729	 -0.056310	 2.304455
C	 -1.454360	 0.441875	 -0.000474
H	 0.428580	 -0.334501	 -0.751437
H	 -0.679175	 -1.570146	 -0.251086
C	 -2.826123	 -0.230780	 0.000056
H	 -1.357605	 1.085198	 -0.868380
H	 -1.357504	 1.086451	 0.866496
H	 -2.959731	 -0.858053	 -0.876869
H	 -3.619374	 0.509403	 -0.000080
H	 -2.959371	 -0.857318	 0.877556

	symmetry c1
}
set optking {
	frozen_dihedral = ("
		7 4 6 10
	")
}

ee = optimize('scf')
oeprop('DIPOLE', 'QUADRUPOLE', 'MULLIKEN_CHARGES')
f=open( 'psi4out.xyz', 'w' )
f.write( "14  " )
f.write( str(ee) + "\n" )
f.write( MOL.save_string_xyz() )
f.close()
--------------------------------------------------------------------------

    Molecular point group: c1
  Charge       = 0
  Multiplicity = 1
  Basis Set: 6-31G*
  Basis Set:
  @DF-RHF Final Energy:  -305.87646264769023
    Total Energy =                       -305.8764626476901185
    Molecular point group: c1
  Basis Set: 6-31G*
  Basis Set:
  Basis Set: 6-31G*
  Basis Set:
  @DF-RHF Final Energy:  -305.87677226245808
    Total Energy =                       -305.8767722624583598
  Basis Set: 6-31G*
  Basis Set:
  Basis Set: 6-31G*
  Basis Set:
  @DF-RHF Final Energy:  -305.87657867834503
    Total Energy =                       -305.8765786783451404
  Basis Set: 6-31G*
  Basis Set:
  Basis Set: 6-31G*
  Basis Set:
  @DF-RHF Final Energy:  -305.87686455833784
    Total Energy =                       -305.8768645583379566
  Basis Set: 6-31G*
  Basis Set:
  Basis Set: 6-31G*
  Basis Set:
  @DF-RHF Final Energy:  -305.87686992375370
    Total Energy =                       -305.8768699237535884
  Basis Set: 6-31G*
  Basis Set:
  Basis Set: 6-31G*
  Basis Set:
  @DF-RHF Final Energy:  -305.87687170142999
    Total Energy =                       -305.8768717014299341
  Basis Set: 6-31G*
  Basis Set:
  Basis Set: 6-31G*
  Basis Set:
  @DF-RHF Final Energy:  -305.87687308500324
    Total Energy =                       -305.8768730850031261
  Basis Set: 6-31G*
  Basis Set:
  Charge       = 0
  Multiplicity = 1
  Basis Set: 6-31G*
  Basis Set:

    Orbital Energies (a.u.)
    -----------------------

    Doubly Occupied:

       1A    -20.613599     2A    -20.553023     3A    -11.382763
       4A    -11.241000     5A    -11.223974     6A    -11.214462
       7A     -1.475953     8A     -1.366896     9A     -1.079811
      10A     -0.978407    11A     -0.858998    12A     -0.789593
      13A     -0.701946    14A     -0.693878    15A     -0.657308
      16A     -0.611112    17A     -0.597284    18A     -0.565483
      19A     -0.558165    20A     -0.492745    21A     -0.489936
      22A     -0.485212    23A     -0.475996    24A     -0.446878

  @DF-RHF Final Energy:  -305.87687328296226

   => Energetics <=

    Nuclear Repulsion Energy =            241.7976703315899840
    One-Electron Energy =                -896.2402451208498633
    Two-Electron Energy =                 348.5657015062974438
    DFT Exchange-Correlation Energy =       0.0000000000000000
    Empirical Dispersion Energy =           0.0000000000000000
    PCM Polarization Energy =               0.0000000000000000
    EFP Energy =                            0.0000000000000000
    Total Energy =                       -305.8768732829624355
    Molecular point group: c1
  Basis Set: 6-31G*
  Basis Set:

  -Total Gradient:
     Atom            X                  Y                   Z
    ------   -----------------  -----------------  -----------------
       1       -0.000004492948     0.000005147596     0.000001151950
       2        0.000006488487    -0.000020566648    -0.000010096533
       3       -0.000018808528     0.000014046886     0.000005493304
       4        0.002232913594     0.002656543582     0.002934688190
       5        0.000007961218     0.000001409925    -0.000004352617
       6       -0.002414000652    -0.002867328303    -0.002465119425
       7       -0.001454641023    -0.001737892166    -0.002021194121
       8        0.000008900850     0.000003207011    -0.000005684200
       9       -0.000000080279     0.000014835881     0.000004965075
      10        0.001643813386     0.001937161710     0.001562496462
      11       -0.000001584403     0.000002216647    -0.000002183355
      12       -0.000001678931    -0.000003039808    -0.000004894337
      13       -0.000002769488    -0.000003418332     0.000000613490
      14       -0.000002021289    -0.000002323983     0.000004116114

  **** Optimization is complete! (in 8 steps) ****
    Final optimized geometry and variables:
    Molecular point group: c1

    Geometry (in Angstrom), charge = 0, multiplicity = 1:

    H            2.221043402686    -1.129858752863     1.292571834292
    O            1.824796322306    -1.080522953929     0.428135879551
    C            0.812831524378    -0.215664209732     0.485673772439
    C            0.122250200009    -0.089484973576    -0.848768206485
    O            0.525084882265     0.352063102119     1.488653935544
    C           -1.039156843160     0.915882859655    -0.872841690848
    H            0.877619123208     0.141442859195    -1.592792767761
    H           -0.219060191486    -1.088457193587    -1.108871289306
    C           -2.414208415197     0.251440861392    -0.842321167248
    H           -0.945806299711     1.547714621193    -1.750297173746
    H           -0.944816350720     1.576367287674    -0.019801658346
    H           -2.562951231686    -0.392391115792    -1.704767387082
    H           -3.204575580685     0.994928052785    -0.842896580955
    H           -2.531002238985    -0.354323796391     0.051463215434

  Mulliken Charges: (a.u.)
   Center  Symbol    Alpha    Beta     Spin     Total
       1     H     0.26753  0.26753  0.00000  0.46495
       2     O     4.34962  4.34962  0.00000 -0.69924
       3     C     2.62802  2.62802  0.00000  0.74396
       4     C     3.21350  3.21350  0.00000 -0.42699
       5     O     4.27873  4.27873  0.00000 -0.55745
       6     C     3.16074  3.16074  0.00000 -0.32148
       7     H     0.39482  0.39482  0.00000  0.21036
       8     H     0.39650  0.39650  0.00000  0.20700
       9     C     3.24238  3.24238  0.00000 -0.48475
      10     H     0.41730  0.41730  0.00000  0.16540
      11     H     0.39617  0.39617  0.00000  0.20767
      12     H     0.42221  0.42221  0.00000  0.15559
      13     H     0.41629  0.41629  0.00000  0.16743
      14     H     0.41622  0.41622  0.00000  0.16757

   Total alpha = 24.00000, Total beta = 24.00000, Total charge = -0.00000
