  ==> Input File <==

--------------------------------------------------------------------------
set {
	reference rhf
	basis 6-31G*
}

set_num_threads( 1 )
memory 2 gb

molecule MOL {
0 1

H	 5.129519	 2.231385	 0.422794
C	 4.698772	 1.316270	 0.028403
C	 3.258336	 1.133697	 0.504837
H	 4.746735	 1.368371	 -1.055260
H	 5.327496	 0.489842	 0.348594
C	 2.622510	 -0.152167	 -0.028166
H	 2.666189	 1.987156	 0.190878
H	 3.238753	 1.120199	 1.593472
C	 1.185975	 -0.371355	 0.446798
H	 2.637547	 -0.143052	 -1.112295
H	 3.221147	 -1.002782	 0.289841
C	 0.169600	 0.576866	 -0.172154
H	 0.864409	 -1.379903	 0.191464
H	 1.121046	 -0.307864	 1.530740
C	 -1.181045	 0.701995	 0.511084
O	 0.411124	 1.189373	 -1.168601
C	 -2.285934	 -0.139295	 -0.145128
H	 -1.449051	 1.751551	 0.493206
H	 -1.071135	 0.403303	 1.551943
C	 -3.651768	 0.085446	 0.506485
H	 -2.346596	 0.110469	 -1.202272
H	 -2.034737	 -1.195320	 -0.088721
C	 -4.759797	 -0.746382	 -0.137905
H	 -3.908762	 1.140117	 0.445781
H	 -3.588286	 -0.154158	 1.565709
H	 -4.868882	 -0.505166	 -1.191300
H	 -4.548009	 -1.809175	 -0.062213
H	 -5.715422	 -0.564821	 0.343442

	symmetry c1
}
set optking {
	frozen_dihedral = ("
		10 6 3 2,
		12 15 17 21
	")
}

ee = energy('scf')
oeprop('DIPOLE', 'QUADRUPOLE', 'MULLIKEN_CHARGES')
f=open( 'psi4out.xyz', 'w' )
f.write( "28  " )
f.write( str(ee) + "\n" )
f.write( MOL.save_string_xyz() )
f.close()
--------------------------------------------------------------------------

    Molecular point group: c1

    Geometry (in Angstrom), charge = 0, multiplicity = 1:

       Center              X                  Y                   Z               Mass
    ------------   -----------------  -----------------  -----------------  -----------------
           H          5.082570091011     1.869388332114     0.396280760560     1.007825032070
           C          4.651823091011     0.954273332114     0.001889760560    12.000000000000
           C          3.211387091011     0.771700332114     0.478323760560    12.000000000000
           H          4.699786091011     1.006374332114    -1.081773239440     1.007825032070
           H          5.280547091011     0.127845332114     0.322080760560     1.007825032070
           C          2.575561091011    -0.514163667886    -0.054679239440    12.000000000000
           H          2.619240091011     1.625159332114     0.164364760560     1.007825032070
           H          3.191804091011     0.758202332114     1.566958760560     1.007825032070
           C          1.139026091011    -0.733351667886     0.420284760560    12.000000000000
           H          2.590598091011    -0.505048667886    -1.138808239440     1.007825032070
           H          3.174198091011    -1.364778667886     0.263327760560     1.007825032070
           C          0.122651091011     0.214869332114    -0.198667239440    12.000000000000
           H          0.817460091011    -1.741899667886     0.164950760560     1.007825032070
           H          1.074097091011    -0.669860667886     1.504226760560     1.007825032070
           C         -1.227993908989     0.339998332114     0.484570760560    12.000000000000
           O          0.364175091011     0.827376332114    -1.195114239440    15.994914619560
           C         -2.332882908989    -0.501291667886    -0.171641239440    12.000000000000
           H         -1.495999908989     1.389554332114     0.466692760560     1.007825032070
           H         -1.118083908989     0.041306332114     1.525429760560     1.007825032070
           C         -3.698716908989    -0.276550667886     0.479971760560    12.000000000000
           H         -2.393544908989    -0.251527667886    -1.228785239440     1.007825032070
           H         -2.081685908989    -1.557316667886    -0.115234239440     1.007825032070
           C         -4.806745908989    -1.108378667886    -0.164418239440    12.000000000000
           H         -3.955710908989     0.778120332114     0.419267760560     1.007825032070
           H         -3.635234908989    -0.516154667886     1.539195760560     1.007825032070
           H         -4.915830908989    -0.867162667886    -1.217813239440     1.007825032070
           H         -4.594957908989    -2.171171667886    -0.088726239440     1.007825032070
           H         -5.762370908989    -0.926817667886     0.316928760560     1.007825032070

  Charge       = 0
  Multiplicity = 1
  Basis Set: 6-31G*
  Basis Set:

    Orbital Energies (a.u.)
    -----------------------

    Doubly Occupied:

       1A    -20.547446     2A    -11.322371     3A    -11.230118
       4A    -11.229970     5A    -11.228724     6A    -11.224276
       7A    -11.216210     8A    -11.214631     9A    -11.212277
      10A    -11.205674    11A     -1.393114    12A     -1.092039
      13A     -1.077718    14A     -1.021915    15A     -0.991026
      16A     -0.909092    17A     -0.870026    18A     -0.808171
      19A     -0.797049    20A     -0.723674    21A     -0.669555
      22A     -0.650660    23A     -0.625578    24A     -0.619771
      25A     -0.608824    26A     -0.589057    27A     -0.575787
      28A     -0.572649    29A     -0.541616    30A     -0.532763
      31A     -0.521817    32A     -0.508294    33A     -0.497608
      34A     -0.482128    35A     -0.476056    36A     -0.475057
      37A     -0.470118    38A     -0.464976    39A     -0.454606
      40A     -0.391768

  @DF-RHF Final Energy:  -426.16855408142442

   => Energetics <=

    Nuclear Repulsion Energy =            529.1563966090978965
    One-Electron Energy =               -1626.5613891215775766
    Two-Electron Energy =                 671.2364384310562855
    DFT Exchange-Correlation Energy =       0.0000000000000000
    Empirical Dispersion Energy =           0.0000000000000000
    PCM Polarization Energy =               0.0000000000000000
    EFP Energy =                            0.0000000000000000
    Total Energy =                       -426.1685540814232809

  Mulliken Charges: (a.u.)
   Center  Symbol    Alpha    Beta     Spin     Total
       1     H     0.41937  0.41937  0.00000  0.16125
       2     C     3.24009  3.24009  0.00000 -0.48017
       3     C     3.15623  3.15623  0.00000 -0.31246
       4     H     0.41832  0.41832  0.00000  0.16335
       5     H     0.42360  0.42360  0.00000  0.15280
       6     C     3.14948  3.14948  0.00000 -0.29896
       7     H     0.41058  0.41058  0.00000  0.17884
       8     H     0.42757  0.42757  0.00000  0.14485
       9     C     3.21178  3.21178  0.00000 -0.42357
      10     H     0.40662  0.40662  0.00000  0.18676
      11     H     0.42196  0.42196  0.00000  0.15609
      12     C     2.73676  2.73676  0.00000  0.52648
      13     H     0.40388  0.40388  0.00000  0.19224
      14     H     0.41225  0.41225  0.00000  0.17550
      15     C     3.19656  3.19656  0.00000 -0.39312
      16     O     4.26756  4.26756  0.00000 -0.53512
      17     C     3.15871  3.15871  0.00000 -0.31743
      18     H     0.40110  0.40110  0.00000  0.19780
      19     H     0.41759  0.41759  0.00000  0.16482
      20     C     3.15242  3.15242  0.00000 -0.30484
      21     H     0.40781  0.40781  0.00000  0.18439
      22     H     0.42037  0.42037  0.00000  0.15925
      23     C     3.24037  3.24037  0.00000 -0.48074
      24     H     0.41912  0.41912  0.00000  0.16176
      25     H     0.42230  0.42230  0.00000  0.15541
      26     H     0.41897  0.41897  0.00000  0.16207
      27     H     0.42122  0.42122  0.00000  0.15756
      28     H     0.41741  0.41741  0.00000  0.16518

   Total alpha = 40.00000, Total beta = 40.00000, Total charge = -0.00000
