                              Psi4 1.0.54 Driver

  ==> Input File <==

--------------------------------------------------------------------------
set {
	reference rhf
	basis cc-pvtz
}

set_num_threads( 4 )
memory 2 gb

molecule MOL {
0 1

H	 -3.436473	 1.252944	 -1.023892
O	 -3.458596	 0.315260	 -0.960865
C	 -3.176635	 -0.080824	 0.355601
C	 -1.763371	 0.265266	 0.799691
H	 -3.321825	 -1.153438	 0.379502
H	 -3.895468	 0.357385	 1.043382
C	 -0.673390	 -0.426948	 -0.013392
H	 -1.631049	 1.344913	 0.747560
H	 -1.664587	 -0.001624	 1.849167
C	 0.737842	 -0.043159	 0.423759
H	 -0.806103	 -0.190518	 -1.063345
H	 -0.797221	 -1.503753	 0.074146
C	 1.824000	 -0.743224	 -0.390623
H	 0.850588	 1.033777	 0.343840
H	 0.868587	 -0.286314	 1.476203
C	 3.255957	 -0.453067	 0.062319
H	 1.718250	 -0.470599	 -1.438164
H	 1.658105	 -1.815850	 -0.339904
C	 3.834164	 0.862787	 -0.452800
H	 3.892731	 -1.266386	 -0.272056
H	 3.297504	 -0.463898	 1.148402
H	 3.800245	 0.904737	 -1.536851
H	 4.869815	 0.971682	 -0.151453
H	 3.293311	 1.720636	 -0.071778

	symmetry c1
}
set optking {
	frozen_dihedral = ("
		20 16 13 17
	")
}

ee,wfn = optimize('scf', return_wfn=True)
oeprop( wfn, 'DIPOLE', 'QUADRUPOLE', 'MULLIKEN_CHARGES')
f=open( 'psi4out.xyz', 'w' )
f.write( "24  " )
f.write( str(ee) + "\n" )
f.write( MOL.save_string_xyz() )
f.close()
--------------------------------------------------------------------------

    Molecular point group: c1
  Charge       = 0
  Multiplicity = 1
  Basis Set: CC-PVTZ
  Basis Set:
  @DF-RHF Final Energy:  -349.37957213254765
    Total Energy =                       -349.3795721325475370
    Molecular point group: c1
  Basis Set: CC-PVTZ
  Basis Set:
  Basis Set: CC-PVTZ
  Basis Set:
  @DF-RHF Final Energy:  -349.32923922280446
    Total Energy =                       -349.3292392228042900
  Basis Set: CC-PVTZ
  Basis Set:
  Basis Set: CC-PVTZ
  Basis Set:
  @DF-RHF Final Energy:  -349.37753093388460
    Total Energy =                       -349.3775309338845432
  Basis Set: CC-PVTZ
  Basis Set:
  Basis Set: CC-PVTZ
  Basis Set:
  @DF-RHF Final Energy:  -349.37978271631266
    Total Energy =                       -349.3797827163125476
  Basis Set: CC-PVTZ
  Basis Set:
  Basis Set: CC-PVTZ
  Basis Set:
  @DF-RHF Final Energy:  -349.37981964831596
    Total Energy =                       -349.3798196483161860
  Basis Set: CC-PVTZ
  Basis Set:
  Basis Set: CC-PVTZ
  Basis Set:
  @DF-RHF Final Energy:  -349.37984557168471
    Total Energy =                       -349.3798455716848252
  Basis Set: CC-PVTZ
  Basis Set:
  Charge       = 0
  Multiplicity = 1
  Basis Set: CC-PVTZ
  Basis Set:

    Orbital Energies (a.u.)
    -----------------------

    Doubly Occupied:

       1A    -20.546286     2A    -11.265524     3A    -11.215203
       4A    -11.211873     5A    -11.210297     6A    -11.209354
       7A    -11.208918     8A    -11.205654     9A     -1.364124
      10A     -1.089711    11A     -1.049378    12A     -0.987125
      13A     -0.915601    14A     -0.849170    15A     -0.800826
      16A     -0.780119    17A     -0.681815    18A     -0.654719
      19A     -0.624569    20A     -0.622009    21A     -0.599018
      22A     -0.584550    23A     -0.559834    24A     -0.539372
      25A     -0.516869    26A     -0.512501    27A     -0.496901
      28A     -0.473714    29A     -0.468302    30A     -0.460826
      31A     -0.456998    32A     -0.451147    33A     -0.420980

  @DF-RHF Final Energy:  -349.37984579357862

   => Energetics <=

    Nuclear Repulsion Energy =            384.4326632060437987
    One-Electron Energy =               -1235.5584407675455623
    Two-Electron Energy =                 501.7459317679230253
    DFT Exchange-Correlation Energy =       0.0000000000000000
    Empirical Dispersion Energy =           0.0000000000000000
    PCM Polarization Energy =               0.0000000000000000
    EFP Energy =                            0.0000000000000000
    Total Energy =                       -349.3798457935787383
    Molecular point group: c1
  Basis Set: CC-PVTZ
  Basis Set:

  -Total Gradient:
     Atom            X                  Y                   Z
    ------   -----------------  -----------------  -----------------
       1        0.000002252582     0.000015524708    -0.000002810193
       2        0.000001306415    -0.000024596023    -0.000016766386
       3        0.000007892093     0.000006914518     0.000014306408
       4       -0.000001585475    -0.000017285076     0.000031597371
       5       -0.000009957533    -0.000019922222     0.000000329592
       6       -0.000001926296     0.000008183373     0.000013413903
       7       -0.000004114926     0.000008026078    -0.000019264145
       8        0.000003147380     0.000005438617    -0.000012450688
       9       -0.000004313876     0.000015790767     0.000025497168
      10       -0.000007879048     0.000022235196    -0.000053340514
      11        0.000005836927     0.000012095346    -0.000019510120
      12       -0.000008013189    -0.000024047703    -0.000000491520
      13        0.000514020625    -0.002660374044     0.000617457356
      14        0.000010125615     0.000029321214    -0.000019743623
      15        0.000011717968     0.000006219217     0.000002858399
      16        0.000137008724     0.000892716464    -0.002609875345
      17       -0.000448334694     0.002096931529    -0.000047436866
      18       -0.000009246931    -0.000039042765    -0.000002465094
      19        0.000001890343     0.000025917934     0.000015395462
      20       -0.000194256940    -0.000384841860     0.002084287836
      21       -0.000000541995     0.000011800932     0.000009575999
      22        0.000006951852    -0.000014826791    -0.000011299058
      23        0.000000697935     0.000007637102     0.000006873502
      24       -0.000012677560     0.000020183487    -0.000006139446

  **** Optimization is complete! (in 7 steps) ****
    Final optimized geometry and variables:
    Molecular point group: c1

    Geometry (in Angstrom), charge = 0, multiplicity = 1:

    H           -3.388555477875     1.274361040814    -1.107357943028
    O           -3.484493023135     0.400651705733    -0.773990667349
    C           -3.131997993424     0.367402743901     0.583931650438
    C           -1.663282177119     0.675872062496     0.833134210678
    H           -3.365167757628    -0.633218259110     0.925420112060
    H           -3.753472216951     1.055120719153     1.151964095108
    C           -0.704882777684    -0.327003899471     0.197387900822
    H           -1.444970303808     1.677059508274     0.464451684643
    H           -1.502812528375     0.707388901463     1.908145942983
    C            0.764269112639     0.013605881525     0.431613535512
    H           -0.900711932006    -0.382945556449    -0.867687843420
    H           -0.912816885238    -1.316730834376     0.597455724651
    C            1.721816840083    -1.008747855226    -0.180092971952
    H            0.968839408723     0.999986116292     0.024385807300
    H            0.953283340371     0.081105081161     1.500607313822
    C            3.203457136621    -0.674314149884     0.019944607001
    H            1.512740852843    -1.086420879788    -1.244271953089
    H            1.512089854886    -1.982975149867     0.250864730956
    C            3.743081401354     0.383201694294    -0.938812948518
    H            3.789723258616    -1.582213817715    -0.081111309348
    H            3.356688243614    -0.342510996053     1.043823869071
    H            3.654160958320     0.054232082828    -1.968901798513
    H            4.790759307176     0.584247902930    -0.745831165475
    H            3.208508897357     1.321576978014    -0.845192402259

  Mulliken Charges: (a.u.)
   Center  Symbol    Alpha    Beta     Spin     Total
       1     H     0.39530  0.39530  0.00000  0.20940
       2     O     4.20369  4.20369  0.00000 -0.40738
       3     C     2.97770  2.97770  0.00000  0.04460
       4     C     3.10171  3.10171  0.00000 -0.20342
       5     H     0.45889  0.45889  0.00000  0.08221
       6     H     0.46027  0.46027  0.00000  0.07946
       7     C     3.08759  3.08759  0.00000 -0.17517
       8     H     0.45933  0.45933  0.00000  0.08134
       9     H     0.45333  0.45333  0.00000  0.09334
      10     C     3.09016  3.09016  0.00000 -0.18033
      11     H     0.44616  0.44616  0.00000  0.10768
      12     H     0.45529  0.45529  0.00000  0.08941
      13     C     3.09367  3.09367  0.00000 -0.18735
      14     H     0.45439  0.45439  0.00000  0.09121
      15     H     0.45616  0.45616  0.00000  0.08768
      16     C     3.09038  3.09038  0.00000 -0.18076
      17     H     0.45535  0.45535  0.00000  0.08931
      18     H     0.44871  0.44871  0.00000  0.10258
      19     C     3.14900  3.14900  0.00000 -0.29800
      20     H     0.44806  0.44806  0.00000  0.10388
      21     H     0.45669  0.45669  0.00000  0.08662
      22     H     0.45494  0.45494  0.00000  0.09011
      23     H     0.44772  0.44772  0.00000  0.10456
      24     H     0.45550  0.45550  0.00000  0.08900

   Total alpha = 33.00000, Total beta = 33.00000, Total charge =  0.00000

*** Psi4 exiting successfully. Buy a developer a beer!
