                              Psi4 1.0.54 Driver

  ==> Input File <==

--------------------------------------------------------------------------
set {
	reference rhf
	basis cc-pvtz
}

set_num_threads( 4 )
memory 2 gb

molecule MOL {
0 1

H	 -3.162190	 0.493205	 -0.000107
C	 -2.363908	 -0.234727	 0.000005
O	 -1.158738	 0.454634	 -0.000087
H	 -2.464314	 -0.863616	 -0.882153
H	 -2.464327	 -0.863359	 0.882345
C	 -0.028611	 -0.359694	 0.000037
C	 1.167556	 0.446389	 -0.464513
H	 -0.183924	 -1.214863	 -0.658144
H	 0.149022	 -0.752548	 1.001413
C	 2.449893	 -0.377747	 -0.492178
H	 0.955706	 0.840965	 -1.452113
H	 1.286030	 1.299564	 0.194280
H	 2.361404	 -1.224270	 -1.164974
H	 3.287246	 0.221851	 -0.827354
H	 2.694095	 -0.762352	 0.492460

	symmetry c1
}
set optking {
	frozen_dihedral = ("
		8 6 3 2
	")
}

ee,wfn = optimize('scf', return_wfn=True)
oeprop( wfn, 'DIPOLE', 'QUADRUPOLE', 'MULLIKEN_CHARGES')
f=open( 'psi4out.xyz', 'w' )
f.write( "15  " )
f.write( str(ee) + "\n" )
f.write( MOL.save_string_xyz() )
f.close()
--------------------------------------------------------------------------

    Molecular point group: c1
  Charge       = 0
  Multiplicity = 1
  Basis Set: CC-PVTZ
  Basis Set:
  @DF-RHF Final Energy:  -232.22735300082661
    Total Energy =                       -232.2273530008264970
    Molecular point group: c1
  Basis Set: CC-PVTZ
  Basis Set:
  Basis Set: CC-PVTZ
  Basis Set:
  @DF-RHF Final Energy:  -232.22739954602883
    Total Energy =                       -232.2273995460286642
  Basis Set: CC-PVTZ
  Basis Set:
  Charge       = 0
  Multiplicity = 1
  Basis Set: CC-PVTZ
  Basis Set:

    Orbital Energies (a.u.)
    -----------------------

    Doubly Occupied:

       1A    -20.546820     2A    -11.264299     3A    -11.261991
       4A    -11.212935     5A    -11.210788     6A     -1.380748
       7A     -1.058424     8A     -0.956285     9A     -0.877599
      10A     -0.809777    11A     -0.675795    12A     -0.655674
      13A     -0.632875    14A     -0.607614    15A     -0.565962
      16A     -0.540495    17A     -0.503833    18A     -0.490549
      19A     -0.479235    20A     -0.463869    21A     -0.414482

  @DF-RHF Final Energy:  -232.22741323185997

   => Energetics <=

    Nuclear Repulsion Energy =            189.9702514956111088
    One-Electron Energy =                -691.1752325492968794
    Two-Electron Energy =                 268.9775678218257440
    DFT Exchange-Correlation Energy =       0.0000000000000000
    Empirical Dispersion Energy =           0.0000000000000000
    PCM Polarization Energy =               0.0000000000000000
    EFP Energy =                            0.0000000000000000
    Total Energy =                       -232.2274132318599982
    Molecular point group: c1
  Basis Set: CC-PVTZ
  Basis Set:

  -Total Gradient:
     Atom            X                  Y                   Z
    ------   -----------------  -----------------  -----------------
       1        0.000057794794     0.000035793618    -0.000004586130
       2       -0.000096951532    -0.000135595492    -0.001868182744
       3       -0.000200579235    -0.000264960781     0.003150812291
       4       -0.000010393954     0.000019874581    -0.000011110577
       5       -0.000013798150     0.000015003795    -0.000004401523
       6        0.001113497075     0.001448419726    -0.003038218302
       7        0.000092721237     0.000093764265    -0.000052099565
       8       -0.000844599127    -0.001172876650     0.001875242589
       9       -0.000026248196    -0.000032268596    -0.000050563612
      10       -0.000079163811    -0.000031000164    -0.000005423472
      11       -0.000001640116     0.000010383348    -0.000023118312
      12        0.000018891121    -0.000000250890     0.000005216352
      13       -0.000000101031    -0.000019442468    -0.000006004296
      14       -0.000013304801     0.000033533020     0.000006724499
      15        0.000003875725    -0.000000377310     0.000025712801

  **** Optimization is complete! (in 3 steps) ****
    Final optimized geometry and variables:
    Molecular point group: c1

    Geometry (in Angstrom), charge = 0, multiplicity = 1:

    H           -3.143792724154     0.529568322818     0.230051385188
    C           -2.351716087388    -0.204771808396     0.202269790693
    O           -1.141739660341     0.475985767617     0.187146422922
    H           -2.473891440877    -0.818284369132    -0.687478902470
    H           -2.442234775487    -0.846405276510     1.076720272576
    C           -0.010406235447    -0.338835305467     0.166522138284
    C            1.187517579439     0.470053287483    -0.287995838202
    H           -0.172127818731    -1.191457147049    -0.491953219821
    H            0.168024117532    -0.746077813033     1.162237849025
    C            2.474954757741    -0.346512986621    -0.288738883650
    H            0.988620599476     0.856558586263    -1.281642791896
    H            1.290887791045     1.328747245158     0.366310126769
    H            2.401260300613    -1.200828758920    -0.953669519867
    H            3.313547653965     0.254665443130    -0.618248185256
    H            2.706898396642    -0.719062201056     0.703462655934

  Mulliken Charges: (a.u.)
   Center  Symbol    Alpha    Beta     Spin     Total
       1     H     0.44768  0.44768  0.00000  0.10465
       2     C     3.03303  3.03303  0.00000 -0.06605
       3     O     4.17292  4.17292  0.00000 -0.34585
       4     H     0.47131  0.47131  0.00000  0.05738
       5     H     0.47245  0.47245  0.00000  0.05511
       6     C     2.95695  2.95695  0.00000  0.08610
       7     C     3.08016  3.08016  0.00000 -0.16031
       8     H     0.47769  0.47769  0.00000  0.04462
       9     H     0.47163  0.47163  0.00000  0.05673
      10     C     3.15573  3.15573  0.00000 -0.31146
      11     H     0.45222  0.45222  0.00000  0.09556
      12     H     0.45037  0.45037  0.00000  0.09927
      13     H     0.45602  0.45602  0.00000  0.08795
      14     H     0.44632  0.44632  0.00000  0.10736
      15     H     0.45553  0.45553  0.00000  0.08894

   Total alpha = 21.00000, Total beta = 21.00000, Total charge =  0.00000

*** Psi4 exiting successfully. Buy a developer a beer!
