  ==> Input File <==

--------------------------------------------------------------------------
set {
	reference rhf
	basis cc-pvtz
}

set_num_threads( 4 )
memory 2 gb

molecule MOL {
0 1

H	 -3.941973	 0.934228	 -0.390224
C	 -3.240162	 0.342701	 0.161016
C	 -2.105997	 -0.000418	 -0.398703
H	 -3.485368	 0.047206	 1.162193
O	 -1.189946	 -0.765863	 0.237511
H	 -1.846458	 0.297311	 -1.398265
C	 0.026572	 -0.995256	 -0.379403
C	 1.057223	 0.049888	 -0.004615
H	 -0.054361	 -1.010670	 -1.459674
H	 0.397526	 -1.952058	 -0.044198
F	 2.249563	 -0.509130	 0.049291
F	 1.112347	 1.023937	 -0.887619
F	 0.811361	 0.587145	 1.165583

	symmetry c1
}
set optking {
	frozen_dihedral = ("
		11 8 7 9
	")
}

ee = optimize('scf')
oeprop('DIPOLE', 'QUADRUPOLE', 'MULLIKEN_CHARGES')
f=open( 'psi4out.xyz', 'w' )
f.write( "13  " )
f.write( str(ee) + "\n" )
f.write( MOL.save_string_xyz() )
f.close()
--------------------------------------------------------------------------

    Molecular point group: c1
  Charge       = 0
  Multiplicity = 1
  Basis Set: CC-PVTZ
  Basis Set:
  @DF-RHF Final Energy:  -527.73787688979974
    Total Energy =                       -527.7378768897999635
    Molecular point group: c1
  Basis Set: CC-PVTZ
  Basis Set:
  Basis Set: CC-PVTZ
  Basis Set:
  @DF-RHF Final Energy:  -527.73820730871398
    Total Energy =                       -527.7382073087137542
  Basis Set: CC-PVTZ
  Basis Set:
  Basis Set: CC-PVTZ
  Basis Set:
  @DF-RHF Final Energy:  -527.73836314625555
    Total Energy =                       -527.7383631462552103
  Basis Set: CC-PVTZ
  Basis Set:
  Basis Set: CC-PVTZ
  Basis Set:
  @DF-RHF Final Energy:  -527.73838669291285
    Total Energy =                       -527.7383866929130818
  Basis Set: CC-PVTZ
  Basis Set:
  Basis Set: CC-PVTZ
  Basis Set:
  @DF-RHF Final Energy:  -527.73839799849702
    Total Energy =                       -527.7383979984970210
  Basis Set: CC-PVTZ
  Basis Set:
  Basis Set: CC-PVTZ
  Basis Set:
  @DF-RHF Final Energy:  -527.73840766621447
    Total Energy =                       -527.7384076662146981
  Basis Set: CC-PVTZ
  Basis Set:
  Basis Set: CC-PVTZ
  Basis Set:
  @DF-RHF Final Energy:  -527.73841446804249
    Total Energy =                       -527.7384144680423788
  Basis Set: CC-PVTZ
  Basis Set:
  Charge       = 0
  Multiplicity = 1
  Basis Set: CC-PVTZ
  Basis Set:

    Orbital Energies (a.u.)
    -----------------------

    Doubly Occupied:

       1A    -26.340744     2A    -26.340132     3A    -26.336639
       4A    -20.602362     5A    -11.498345     6A    -11.319801
       7A    -11.297796     8A    -11.215196     9A     -1.749969
      10A     -1.646185    11A     -1.644219    12A     -1.443183
      13A     -1.084785    14A     -1.019989    15A     -0.931839
      16A     -0.842797    17A     -0.837697    18A     -0.827166
      19A     -0.798964    20A     -0.726127    21A     -0.720748
      22A     -0.700376    23A     -0.681531    24A     -0.667954
      25A     -0.662354    26A     -0.649831    27A     -0.638697
      28A     -0.587420    29A     -0.566562    30A     -0.526860
      31A     -0.515596    32A     -0.358214

  @DF-RHF Final Energy:  -527.73841552033332

   => Energetics <=

    Nuclear Repulsion Energy =            414.4545134801325617
    One-Electron Energy =               -1552.8257034763821594
    Two-Electron Energy =                 610.6327744759158804
    DFT Exchange-Correlation Energy =       0.0000000000000000
    Empirical Dispersion Energy =           0.0000000000000000
    PCM Polarization Energy =               0.0000000000000000
    EFP Energy =                            0.0000000000000000
    Total Energy =                       -527.7384155203336604
    Molecular point group: c1
  Basis Set: CC-PVTZ
  Basis Set:

  -Total Gradient:
     Atom            X                  Y                   Z
    ------   -----------------  -----------------  -----------------
       1        0.000000141330     0.000004485792     0.000002141966
       2        0.000019039562    -0.000010525964     0.000002761446
       3       -0.000064050397     0.000038548960    -0.000033211865
       4       -0.000003673800     0.000001939967    -0.000001173382
       5        0.000082758937    -0.000035648937    -0.000014315837
       6        0.000010444027    -0.000002770532     0.000006422724
       7        0.004428165644    -0.004176122428     0.001021838810
       8       -0.000080844959     0.001865506344    -0.005246693088
       9       -0.003831970049     0.003252303473     0.000223465753
      10        0.000026352218    -0.000019405526    -0.000024885092
      11       -0.000551373630    -0.000970158861     0.004064599861
      12       -0.000010761339     0.000043969990    -0.000031300962
      13       -0.000024227540     0.000007877724     0.000030349665

  **** Optimization is complete! (in 8 steps) ****
    Final optimized geometry and variables:
    Molecular point group: c1

    Geometry (in Angstrom), charge = 0, multiplicity = 1:

    H           -3.814780195981     1.032160878767    -0.357109418042
    C           -3.140606665328     0.389823818784     0.171492042347
    C           -2.056159053945    -0.040035277262    -0.425441625266
    H           -3.374941702766     0.110312787574     1.179830453590
    O           -1.188183217194    -0.888148203238     0.172331640416
    H           -1.806693719372     0.240882620543    -1.433417756917
    C            0.065439945389    -1.044251919099    -0.394665712681
    C            1.033601232022     0.069465327401     0.003209906078
    H           -0.003934730196    -1.047258826936    -1.475923900118
    H            0.468035218545    -1.980007804103    -0.044029929186
    F            2.262444198607    -0.403472437315     0.061730619796
    F            1.027872165040     1.060942736073    -0.864805682276
    F            0.750900336400     0.572243851546     1.178672825882

  Mulliken Charges: (a.u.)
   Center  Symbol    Alpha    Beta     Spin     Total
       1     H     0.42507  0.42507  0.00000  0.14986
       2     C     3.19304  3.19304  0.00000 -0.38607
       3     C     2.96372  2.96372  0.00000  0.07256
       4     H     0.42416  0.42416  0.00000  0.15168
       5     O     4.14140  4.14140  0.00000 -0.28280
       6     H     0.43409  0.43409  0.00000  0.13182
       7     C     3.02469  3.02469  0.00000 -0.04939
       8     C     2.67583  2.67583  0.00000  0.64833
       9     H     0.45586  0.45586  0.00000  0.08829
      10     H     0.43377  0.43377  0.00000  0.13246
      11     F     4.61118  4.61118  0.00000 -0.22236
      12     F     4.61259  4.61259  0.00000 -0.22518
      13     F     4.60459  4.60459  0.00000 -0.20919

   Total alpha = 32.00000, Total beta = 32.00000, Total charge = -0.00000
