  ==> Input File <==

--------------------------------------------------------------------------
set {
	reference rhf
	basis cc-pvtz
}

set_num_threads( 4 )
memory 2 gb

molecule MOL {
0 1

H	 -2.979719	 -0.581434	 0.455208
C	 -2.861473	 0.078303	 -0.401325
O	 -1.526920	 0.211009	 -0.760350
H	 -3.389580	 -0.346281	 -1.242586
H	 -3.307939	 1.040811	 -0.158155
C	 -0.718530	 0.758693	 0.228682
C	 0.718529	 0.758687	 -0.228709
H	 -1.021924	 1.784204	 0.439034
H	 -0.799961	 0.188820	 1.151745
O	 1.401606	 -0.295166	 0.366636
H	 0.748705	 0.673477	 -1.312803
H	 1.176496	 1.708671	 0.046552
C	 2.714315	 -0.441627	 -0.061017
H	 2.765292	 -0.641548	 -1.128869
H	 3.305661	 0.447341	 0.150952
H	 3.143725	 -1.278506	 0.470147

	symmetry c1
}
set optking {
	frozen_dihedral = ("
		3 6 7 11
	")
}

ee = optimize('scf')
oeprop('DIPOLE', 'QUADRUPOLE', 'MULLIKEN_CHARGES')
f=open( 'psi4out.xyz', 'w' )
f.write( "16  " )
f.write( str(ee) + "\n" )
f.write( MOL.save_string_xyz() )
f.close()
--------------------------------------------------------------------------

    Molecular point group: c1
  Charge       = 0
  Multiplicity = 1
  Basis Set: CC-PVTZ
  Basis Set:
  @DF-RHF Final Energy:  -307.09514952075546
    Total Energy =                       -307.0951495207552853
    Molecular point group: c1
  Basis Set: CC-PVTZ
  Basis Set:
  Basis Set: CC-PVTZ
  Basis Set:
  @DF-RHF Final Energy:  -307.09544498366813
    Total Energy =                       -307.0954449836677895
  Basis Set: CC-PVTZ
  Basis Set:
  Basis Set: CC-PVTZ
  Basis Set:
  @DF-RHF Final Energy:  -307.09550153996429
    Total Energy =                       -307.0955015399645163
  Basis Set: CC-PVTZ
  Basis Set:
  Charge       = 0
  Multiplicity = 1
  Basis Set: CC-PVTZ
  Basis Set:

    Orbital Energies (a.u.)
    -----------------------

    Doubly Occupied:

       1A    -20.549714     2A    -20.548961     3A    -11.266969
       4A    -11.266319     5A    -11.262519     6A    -11.262172
       7A     -1.390389     8A     -1.376333     9A     -1.029843
      10A     -0.938752    11A     -0.888135    12A     -0.829230
      13A     -0.685955    14A     -0.682529    15A     -0.658677
      16A     -0.639753    17A     -0.632584    18A     -0.599652
      19A     -0.548537    20A     -0.537326    21A     -0.509246
      22A     -0.481363    23A     -0.466076    24A     -0.425337
      25A     -0.413213

  @DF-RHF Final Energy:  -307.09550373005158

   => Energetics <=

    Nuclear Repulsion Energy =            256.9005891725461765
    One-Electron Energy =                -928.2130121461016188
    Two-Electron Energy =                 364.2169192435037530
    DFT Exchange-Correlation Energy =       0.0000000000000000
    Empirical Dispersion Energy =           0.0000000000000000
    PCM Polarization Energy =               0.0000000000000000
    EFP Energy =                            0.0000000000000000
    Total Energy =                       -307.0955037300516324
    Molecular point group: c1
  Basis Set: CC-PVTZ
  Basis Set:

  -Total Gradient:
     Atom            X                  Y                   Z
    ------   -----------------  -----------------  -----------------
       1       -0.000002707733     0.000010200057    -0.000003237253
       2       -0.000033943445    -0.000037603956    -0.000060338505
       3       -0.000285842807     0.002431356780    -0.000994142885
       4       -0.000040471391    -0.000005297867     0.000012036752
       5        0.000004858062     0.000000954615     0.000009013840
       6        0.000385376114    -0.003865942090     0.001444036539
       7       -0.000072737240     0.004733625214    -0.000640029453
       8       -0.000023182759     0.000009117455     0.000035610485
       9       -0.000003524153    -0.000012992949    -0.000017044738
      10       -0.000084430361     0.000172405153    -0.000058933586
      11        0.000084254264    -0.003368601935     0.000268222120
      12        0.000000777797    -0.000010144591    -0.000005290466
      13        0.000064801526    -0.000069289211     0.000018747707
      14        0.000002876969     0.000008263996     0.000002800106
      15       -0.000013851599    -0.000001416959    -0.000002237421
      16        0.000017746759     0.000005366287    -0.000009213239

  **** Optimization is complete! (in 4 steps) ****
    Final optimized geometry and variables:
    Molecular point group: c1

    Geometry (in Angstrom), charge = 0, multiplicity = 1:

    H           -2.939839030660    -0.742314928455     0.609958066061
    C           -2.815100196679    -0.098605891717    -0.257660672138
    O           -1.477664989600     0.027649675033    -0.609782213618
    H           -3.338006832623    -0.537571343452    -1.094851894079
    H           -3.261736291652     0.868551481249    -0.034762502199
    C           -0.676879983154     0.596310428584     0.378868581507
    C            0.770205154706     0.602836757955    -0.080630685765
    H           -1.010648785881     1.614555801927     0.572718460378
    H           -0.747915782980     0.037932662761     1.307387355258
    O            1.443936061547    -0.471896953929     0.500999092845
    H            0.789058316902     0.504484231622    -1.161943920835
    H            1.255192442535     1.536082146956     0.197022530673
    C            2.758700241263    -0.616466674907     0.078430935040
    H            2.815879630806    -0.791675924003    -0.993495383055
    H            3.353160230981     0.264191728434     0.314330835801
    H            3.180496444618    -1.467502728101     0.593093763685

  Mulliken Charges: (a.u.)
   Center  Symbol    Alpha    Beta     Spin     Total
       1     H     0.47004  0.47004  0.00000  0.05993
       2     C     3.03007  3.03007  0.00000 -0.06014
       3     O     4.17303  4.17303  0.00000 -0.34606
       4     H     0.44653  0.44653  0.00000  0.10694
       5     H     0.47315  0.47315  0.00000  0.05369
       6     C     2.96263  2.96263  0.00000  0.07475
       7     C     2.96379  2.96379  0.00000  0.07243
       8     H     0.47689  0.47689  0.00000  0.04621
       9     H     0.46742  0.46742  0.00000  0.06517
      10     O     4.17372  4.17372  0.00000 -0.34744
      11     H     0.46742  0.46742  0.00000  0.06516
      12     H     0.47507  0.47507  0.00000  0.04987
      13     C     3.02987  3.02987  0.00000 -0.05974
      14     H     0.47051  0.47051  0.00000  0.05898
      15     H     0.47327  0.47327  0.00000  0.05346
      16     H     0.44660  0.44660  0.00000  0.10680

   Total alpha = 25.00000, Total beta = 25.00000, Total charge = -0.00000
