  ==> Input File <==

--------------------------------------------------------------------------
set {
	reference rhf
	basis 6-31G*
}

set_num_threads( 1 )
memory 2 gb

molecule MOL {
0 1

H	 -3.161837	 0.500524	 -0.000234
C	 -2.367097	 -0.232926	 -0.000000
O	 -1.158440	 0.455814	 -0.000122
H	 -2.468853	 -0.861886	 -0.882833
H	 -2.468942	 -0.861421	 0.883154
C	 -0.029776	 -0.365156	 0.000148
C	 0.498311	 -0.472024	 1.420136
H	 0.735347	 0.048340	 -0.658265
H	 -0.284499	 -1.353633	 -0.384479
C	 1.740619	 -1.356468	 1.516627
H	 0.720780	 0.527524	 1.780792
H	 -0.291865	 -0.864687	 2.052699
H	 2.552702	 -0.967012	 0.908952
H	 2.095472	 -1.415334	 2.540082
H	 1.533056	 -2.369089	 1.182083

	symmetry c1
}
set optking {
	frozen_dihedral = ("
		6 3 2 4,
		11 7 6 8
	")
}

ee = energy('scf')
oeprop('DIPOLE', 'QUADRUPOLE', 'MULLIKEN_CHARGES')
f=open( 'psi4out.xyz', 'w' )
f.write( "15  " )
f.write( str(ee) + "\n" )
f.write( MOL.save_string_xyz() )
f.close()
--------------------------------------------------------------------------

    Molecular point group: c1

    Geometry (in Angstrom), charge = 0, multiplicity = 1:

       Center              X                  Y                   Z               Mass
    ------------   -----------------  -----------------  -----------------  -----------------
           H         -2.871971820178     0.898839054173    -0.576974694953     1.007825032070
           C         -2.077231820178     0.165389054173    -0.576740694953    12.000000000000
           O         -0.868574820178     0.854129054173    -0.576862694953    15.994914619560
           H         -2.178987820178    -0.463570945827    -1.459573694953     1.007825032070
           H         -2.179076820178    -0.463105945827     0.306413305047     1.007825032070
           C          0.260089179822     0.033159054173    -0.576592694953    12.000000000000
           C          0.788176179822    -0.073708945827     0.843395305047    12.000000000000
           H          1.025212179822     0.446655054173    -1.235005694953     1.007825032070
           H          0.005366179822    -0.955317945827    -0.961219694953     1.007825032070
           C          2.030484179822    -0.958152945827     0.939886305047    12.000000000000
           H          1.010645179822     0.925839054173     1.204051305047     1.007825032070
           H         -0.001999820178    -0.466371945827     1.475958305047     1.007825032070
           H          2.842567179822    -0.568696945827     0.332211305047     1.007825032070
           H          2.385337179822    -1.017018945827     1.963341305047     1.007825032070
           H          1.822921179822    -1.970773945827     0.605342305047     1.007825032070

  Charge       = 0
  Multiplicity = 1
  Basis Set: 6-31G*
  Basis Set:

    Orbital Energies (a.u.)
    -----------------------

    Doubly Occupied:

       1A    -20.551522     2A    -11.266131     3A    -11.265141
       4A    -11.213241     5A    -11.212465     6A     -1.378391
       7A     -1.055754     8A     -0.956773     9A     -0.881418
      10A     -0.807968    11A     -0.671639    12A     -0.655003
      13A     -0.637072    14A     -0.598020    15A     -0.569081
      16A     -0.534938    17A     -0.511116    18A     -0.495919
      19A     -0.483262    20A     -0.462023    21A     -0.403693

  @DF-RHF Final Energy:  -232.13526103360692

   => Energetics <=

    Nuclear Repulsion Energy =            191.7885505707045581
    One-Electron Energy =                -694.6265109377910676
    Two-Electron Energy =                 270.7026993334792451
    DFT Exchange-Correlation Energy =       0.0000000000000000
    Empirical Dispersion Energy =           0.0000000000000000
    PCM Polarization Energy =               0.0000000000000000
    EFP Energy =                            0.0000000000000000
    Total Energy =                       -232.1352610336072644

  Mulliken Charges: (a.u.)
   Center  Symbol    Alpha    Beta     Spin     Total
       1     H     0.41208  0.41208  0.00000  0.17583
       2     C     3.08111  3.08111  0.00000 -0.16222
       3     O     4.30450  4.30450  0.00000 -0.60900
       4     H     0.42879  0.42879  0.00000  0.14241
       5     H     0.43124  0.43124  0.00000  0.13752
       6     C     2.99195  2.99195  0.00000  0.01610
       7     C     3.15696  3.15696  0.00000 -0.31393
       8     H     0.41877  0.41877  0.00000  0.16245
       9     H     0.43233  0.43233  0.00000  0.13534
      10     C     3.24882  3.24882  0.00000 -0.49765
      11     H     0.41372  0.41372  0.00000  0.17256
      12     H     0.42122  0.42122  0.00000  0.15756
      13     H     0.42038  0.42038  0.00000  0.15923
      14     H     0.41623  0.41623  0.00000  0.16755
      15     H     0.42189  0.42189  0.00000  0.15623

   Total alpha = 21.00000, Total beta = 21.00000, Total charge =  0.00000
