                              Psi4 1.0.54 Driver

  ==> Input File <==

--------------------------------------------------------------------------
set {
	reference rhf
	basis cc-pvtz
}

set_num_threads( 4 )
memory 2 gb

molecule MOL {
0 1

H	 -3.436473	 1.252944	 -1.023892
O	 -3.458596	 0.315260	 -0.960865
C	 -3.176635	 -0.080824	 0.355601
C	 -1.763371	 0.265266	 0.799691
H	 -3.321825	 -1.153438	 0.379502
H	 -3.895468	 0.357385	 1.043382
C	 -0.861159	 0.748622	 -0.331990
H	 -1.813784	 1.024111	 1.579099
H	 -1.329905	 -0.617336	 1.263921
C	 0.542583	 1.122758	 0.136518
H	 -1.322342	 1.601724	 -0.817213
H	 -0.793004	 -0.030917	 -1.087093
C	 1.441974	 1.600890	 -1.001697
H	 0.466095	 1.893490	 0.897447
H	 1.003618	 0.263032	 0.618365
C	 2.883793	 1.911314	 -0.595932
H	 1.001614	 2.483546	 -1.459792
H	 1.459158	 0.836938	 -1.774161
C	 3.039435	 3.102956	 0.345827
H	 3.459579	 2.103022	 -1.496207
H	 3.324754	 1.030018	 -0.137359
H	 2.601852	 3.998363	 -0.084109
H	 4.086728	 3.307588	 0.536991
H	 2.562724	 2.928937	 1.302942

	symmetry c1
}
set optking {
	frozen_dihedral = ("
		7 4 3 2
	")
}

ee,wfn = optimize('scf', return_wfn=True)
oeprop( wfn, 'DIPOLE', 'QUADRUPOLE', 'MULLIKEN_CHARGES')
f=open( 'psi4out.xyz', 'w' )
f.write( "24  " )
f.write( str(ee) + "\n" )
f.write( MOL.save_string_xyz() )
f.close()
--------------------------------------------------------------------------

    Molecular point group: c1
  Charge       = 0
  Multiplicity = 1
  Basis Set: CC-PVTZ
  Basis Set:
  @DF-RHF Final Energy:  -349.37097573973915
    Total Energy =                       -349.3709757397392082
    Molecular point group: c1
  Basis Set: CC-PVTZ
  Basis Set:
  Basis Set: CC-PVTZ
  Basis Set:
  @DF-RHF Final Energy:  -349.37155579149726
    Total Energy =                       -349.3715557914970304
  Basis Set: CC-PVTZ
  Basis Set:
  Basis Set: CC-PVTZ
  Basis Set:
  @DF-RHF Final Energy:  -349.37205142254453
    Total Energy =                       -349.3720514225446436
  Basis Set: CC-PVTZ
  Basis Set:
  Basis Set: CC-PVTZ
  Basis Set:
  @DF-RHF Final Energy:  -349.37250749162041
    Total Energy =                       -349.3725074916203539
  Basis Set: CC-PVTZ
  Basis Set:
  Basis Set: CC-PVTZ
  Basis Set:
  @DF-RHF Final Energy:  -349.37252663618131
    Total Energy =                       -349.3725266361814192
  Basis Set: CC-PVTZ
  Basis Set:
  Basis Set: CC-PVTZ
  Basis Set:
  @DF-RHF Final Energy:  -349.37253150665316
    Total Energy =                       -349.3725315066534449
  Basis Set: CC-PVTZ
  Basis Set:
  Charge       = 0
  Multiplicity = 1
  Basis Set: CC-PVTZ
  Basis Set:

    Orbital Energies (a.u.)
    -----------------------

    Doubly Occupied:

       1A    -20.546202     2A    -11.265811     3A    -11.213616
       4A    -11.212334     5A    -11.211169     6A    -11.210203
       7A    -11.209609     8A    -11.205611     9A     -1.363626
      10A     -1.089241    11A     -1.046689    12A     -0.984783
      13A     -0.918200    14A     -0.852909    15A     -0.795014
      16A     -0.777119    17A     -0.690122    18A     -0.650068
      19A     -0.626904    20A     -0.614018    21A     -0.601279
      22A     -0.587567    23A     -0.556484    24A     -0.544703
      25A     -0.515059    26A     -0.511121    27A     -0.497349
      28A     -0.478648    29A     -0.461222    30A     -0.456097
      31A     -0.454627    32A     -0.450047    33A     -0.423315

  @DF-RHF Final Energy:  -349.37253168781189

   => Energetics <=

    Nuclear Repulsion Energy =            385.5728244227446453
    One-Electron Energy =               -1237.8491798422223837
    Two-Electron Energy =                 502.9038237316654545
    DFT Exchange-Correlation Energy =       0.0000000000000000
    Empirical Dispersion Energy =           0.0000000000000000
    PCM Polarization Energy =               0.0000000000000000
    EFP Energy =                            0.0000000000000000
    Total Energy =                       -349.3725316878123408
    Molecular point group: c1
  Basis Set: CC-PVTZ
  Basis Set:

  -Total Gradient:
     Atom            X                  Y                   Z
    ------   -----------------  -----------------  -----------------
       1       -0.000000829051     0.000015022108    -0.000002221174
       2        0.001056345680    -0.002654422034    -0.000622442619
       3       -0.001845655510     0.004730389851     0.000877688637
       4        0.001647976472    -0.004586718577    -0.000356068102
       5        0.000001653495    -0.000013546771    -0.000003103132
       6       -0.000009490269     0.000004441901     0.000007840580
       7       -0.000887214999     0.002533034073     0.000098954655
       8       -0.000000419204     0.000019392590     0.000028028930
       9        0.000002869649    -0.000013690214    -0.000004736277
      10        0.000018501005    -0.000037257680    -0.000006515297
      11       -0.000006924059     0.000003703351    -0.000015599579
      12        0.000015414650    -0.000010884537    -0.000007169211
      13        0.000004227189     0.000014561542    -0.000004242125
      14       -0.000005047201     0.000010977586     0.000015632838
      15        0.000013475059    -0.000024571629     0.000013925159
      16       -0.000007191142     0.000010207957    -0.000007722308
      17       -0.000007684701     0.000013831529    -0.000020582032
      18        0.000007087279    -0.000011950070    -0.000002887669
      19        0.000004589815    -0.000003115646     0.000006510492
      20        0.000004934238     0.000000167968    -0.000012898884
      21        0.000004120777    -0.000013231831     0.000007333666
      22       -0.000007998691     0.000014585793    -0.000008297989
      23        0.000007844031     0.000002079218     0.000004080992
      24       -0.000010584524    -0.000003006479     0.000014490445

  **** Optimization is complete! (in 7 steps) ****
    Final optimized geometry and variables:
    Molecular point group: c1

    Geometry (in Angstrom), charge = 0, multiplicity = 1:

    H           -3.389402259330    -0.097969948709    -1.059865561374
    O           -3.266445926130    -1.009967338062    -0.871385028485
    C           -2.978720246276    -1.195031214837     0.489341458968
    C           -1.577531758713    -0.720607225362     0.935827296417
    H           -3.064171666737    -2.261419550097     0.645296853457
    H           -3.741492177526    -0.725234782390     1.102489975839
    C           -0.621690279105    -0.341929935837    -0.194093223739
    H           -1.682429911433     0.138628920608     1.592837044672
    H           -1.126490473652    -1.501298097440     1.539480080875
    C            0.761702819488     0.049172277215     0.320425896527
    H           -1.034006524855     0.486151223182    -0.762467744465
    H           -0.531178981083    -1.167586053587    -0.891625484592
    C            1.718381612458     0.456550550891    -0.798641157593
    H            0.658570434526     0.860742223352     1.034362123851
    H            1.190194520642    -0.786824538435     0.868862249618
    C            3.143781658784     0.773782710140    -0.342955963044
    H            1.311579574661     1.318398785778    -1.323190507648
    H            1.761287135780    -0.347731870723    -1.527805063608
    C            3.270490248157     2.010610283266     0.543322575237
    H            3.762405841998     0.913381013845    -1.224225519595
    H            3.552654988592    -0.087051692453     0.179671528379
    H            2.862538061974     2.886854123958     0.049326926065
    H            4.310409142291     2.215580141201     0.770899465542
    H            2.749694075158     1.889929131121     1.485557193716

  Mulliken Charges: (a.u.)
   Center  Symbol    Alpha    Beta     Spin     Total
       1     H     0.39506  0.39506  0.00000  0.20988
       2     O     4.20026  4.20026  0.00000 -0.40053
       3     C     2.97457  2.97457  0.00000  0.05085
       4     C     3.12090  3.12090  0.00000 -0.24181
       5     H     0.45476  0.45476  0.00000  0.09048
       6     H     0.46211  0.46211  0.00000  0.07578
       7     C     3.07870  3.07870  0.00000 -0.15741
       8     H     0.45336  0.45336  0.00000  0.09329
       9     H     0.45192  0.45192  0.00000  0.09617
      10     C     3.09273  3.09273  0.00000 -0.18546
      11     H     0.46133  0.46133  0.00000  0.07733
      12     H     0.44497  0.44497  0.00000  0.11006
      13     C     3.09441  3.09441  0.00000 -0.18882
      14     H     0.45414  0.45414  0.00000  0.09172
      15     H     0.45466  0.45466  0.00000  0.09068
      16     C     3.09045  3.09045  0.00000 -0.18089
      17     H     0.45495  0.45495  0.00000  0.09010
      18     H     0.44898  0.44898  0.00000  0.10203
      19     C     3.15257  3.15257  0.00000 -0.30514
      20     H     0.44858  0.44858  0.00000  0.10283
      21     H     0.45487  0.45487  0.00000  0.09026
      22     H     0.45532  0.45532  0.00000  0.08935
      23     H     0.44648  0.44648  0.00000  0.10704
      24     H     0.45391  0.45391  0.00000  0.09219

   Total alpha = 33.00000, Total beta = 33.00000, Total charge =  0.00000

*** Psi4 exiting successfully. Buy a developer a beer!
