                              Psi4 1.0.54 Driver

  ==> Input File <==

--------------------------------------------------------------------------
set {
	reference rhf
	basis cc-pvtz
}

set_num_threads( 4 )
memory 2 gb

molecule MOL {
0 1

H	 -0.000105	 1.988529	 0.748933
O	 -0.000098	 1.879786	 -0.188206
C	 -0.000014	 0.545691	 -0.532416
C	 -1.286000	 -0.125171	 -0.046657
C	 1.286016	 -0.125031	 -0.046584
H	 0.000021	 0.481103	 -1.610604
F	 -1.899333	 0.671383	 0.793690
F	 -2.111970	 -0.387150	 -1.027908
F	 -1.029733	 -1.250682	 0.584949
F	 2.317750	 0.468717	 -0.594166
F	 1.336617	 -1.393765	 -0.365123
F	 1.414467	 -0.024806	 1.259108

	symmetry c1
}
set optking {
	frozen_dihedral = ("
		7 4 3 6
	")
}

ee,wfn = optimize('scf', return_wfn=True)
oeprop( wfn, 'DIPOLE', 'QUADRUPOLE', 'MULLIKEN_CHARGES')
f=open( 'psi4out.xyz', 'w' )
f.write( "12  " )
f.write( str(ee) + "\n" )
f.write( MOL.save_string_xyz() )
f.close()
--------------------------------------------------------------------------

    Molecular point group: c1
  Charge       = 0
  Multiplicity = 1
  Basis Set: CC-PVTZ
  Basis Set:
  @DF-RHF Final Energy:  -786.58248692509403
    Total Energy =                       -786.5824869250936899
    Molecular point group: c1
  Basis Set: CC-PVTZ
  Basis Set:
  Basis Set: CC-PVTZ
  Basis Set:
  @DF-RHF Final Energy:  -786.58328866894919
    Total Energy =                       -786.5832886689489669
  Basis Set: CC-PVTZ
  Basis Set:
  Basis Set: CC-PVTZ
  Basis Set:
  @DF-RHF Final Energy:  -786.58418578337182
    Total Energy =                       -786.5841857833719359
  Basis Set: CC-PVTZ
  Basis Set:
  Basis Set: CC-PVTZ
  Basis Set:
  @DF-RHF Final Energy:  -786.58427782666035
    Total Energy =                       -786.5842778266598998
  Basis Set: CC-PVTZ
  Basis Set:
  Basis Set: CC-PVTZ
  Basis Set:
  @DF-RHF Final Energy:  -786.58429350271194
    Total Energy =                       -786.5842935027121712
  Basis Set: CC-PVTZ
  Basis Set:
  Basis Set: CC-PVTZ
  Basis Set:
  @DF-RHF Final Energy:  -786.58429529826981
    Total Energy =                       -786.5842952982696943
  Basis Set: CC-PVTZ
  Basis Set:
  Charge       = 0
  Multiplicity = 1
  Basis Set: CC-PVTZ
  Basis Set:

    Orbital Energies (a.u.)
    -----------------------

    Doubly Occupied:

       1A    -26.359799     2A    -26.358099     3A    -26.357074
       4A    -26.355490     5A    -26.354866     6A    -26.352046
       7A    -20.608058     8A    -11.523074     9A    -11.517342
      10A    -11.351768    11A     -1.772648    12A     -1.765670
      13A     -1.667380    14A     -1.663842    15A     -1.663364
      16A     -1.659418    17A     -1.438062    18A     -1.100172
      19A     -1.001200    20A     -0.944132    21A     -0.872897
      22A     -0.866331    23A     -0.858334    24A     -0.853465
      25A     -0.841774    26A     -0.820850    27A     -0.740665
      28A     -0.737789    29A     -0.734299    30A     -0.730456
      31A     -0.694365    32A     -0.692567    33A     -0.688020
      34A     -0.683561    35A     -0.675817    36A     -0.668648
      37A     -0.663315    38A     -0.653679    39A     -0.622897
      40A     -0.553168    41A     -0.508791

  @DF-RHF Final Energy:  -786.58429550127300

   => Energetics <=

    Nuclear Repulsion Energy =            669.5973446444064621
    One-Electron Energy =               -2426.4128968981372054
    Two-Electron Energy =                 970.2312567524577389
    DFT Exchange-Correlation Energy =       0.0000000000000000
    Empirical Dispersion Energy =           0.0000000000000000
    PCM Polarization Energy =               0.0000000000000000
    EFP Energy =                            0.0000000000000000
    Total Energy =                       -786.5842955012731181
    Molecular point group: c1
  Basis Set: CC-PVTZ
  Basis Set:

  -Total Gradient:
     Atom            X                  Y                   Z
    ------   -----------------  -----------------  -----------------
       1        0.000002677391    -0.000000864130     0.000002806280
       2        0.000006661630     0.000001777895     0.000003416648
       3        0.001388767239    -0.003253079633    -0.000534303127
       4        0.001655591552    -0.001054152211     0.002847510576
       5        0.000019774611    -0.000047036653    -0.000038845723
       6       -0.001532711135     0.003031633637    -0.000120877794
       7       -0.001454907267     0.001231895472    -0.002151000987
       8       -0.000040185876     0.000009247705    -0.000043831442
       9       -0.000015781755     0.000046549540    -0.000017424109
      10       -0.000025929152     0.000019481205     0.000006954869
      11       -0.000008638876    -0.000012293237    -0.000017880516
      12        0.000004681632     0.000026840410     0.000063475323

  **** Optimization is complete! (in 7 steps) ****
    Final optimized geometry and variables:
    Molecular point group: c1

    Geometry (in Angstrom), charge = 0, multiplicity = 1:

    H           -0.001278931571     2.036869095104     0.720144030691
    O            0.090922273595     1.897936697145    -0.207489268185
    C            0.022188290284     0.560332621515    -0.528617422219
    C           -1.292449194321    -0.084922977899    -0.016382350746
    C            1.284998369887    -0.162717895401    -0.065159111193
    H           -0.003466253811     0.508882091101    -1.605627032174
    F           -1.889503102692     0.698042949252     0.851754160230
    F           -2.121989600751    -0.260098539419    -1.020006333926
    F           -1.113790879183    -1.249038215674     0.555837950324
    F            2.340426060408     0.443294967173    -0.548023992395
    F            1.313570780220    -1.405413314227    -0.479720123955
    F            1.385681585734    -0.157229460604     1.247214182120

  Mulliken Charges: (a.u.)
   Center  Symbol    Alpha    Beta     Spin     Total
       1     H     0.38145  0.38145  0.00000  0.23711
       2     O     4.18536  4.18536  0.00000 -0.37072
       3     C     3.02278  3.02278  0.00000 -0.04556
       4     C     2.67345  2.67345  0.00000  0.65310
       5     C     2.67844  2.67844  0.00000  0.64311
       6     H     0.42725  0.42725  0.00000  0.14550
       7     F     4.60728  4.60728  0.00000 -0.21455
       8     F     4.60531  4.60531  0.00000 -0.21061
       9     F     4.60044  4.60044  0.00000 -0.20088
      10     F     4.60098  4.60098  0.00000 -0.20197
      11     F     4.60528  4.60528  0.00000 -0.21057
      12     F     4.61198  4.61198  0.00000 -0.22396

   Total alpha = 41.00000, Total beta = 41.00000, Total charge = -0.00000

*** Psi4 exiting successfully. Buy a developer a beer!
