                              Psi4 1.0.54 Driver

  ==> Input File <==

--------------------------------------------------------------------------
set {
	reference rhf
	basis cc-pvtz
}

set_num_threads( 4 )
memory 2 gb

molecule MOL {
0 1

O	 -1.305050	 0.935861	 -0.737313
C	 -1.081510	 0.147522	 0.122720
C	 0.327029	 -0.064006	 0.641890
C	 -2.177816	 -0.695404	 0.729235
C	 1.349460	 -0.017068	 -0.500215
H	 0.399029	 -1.014606	 1.159950
H	 0.538021	 0.726928	 1.350471
C	 2.779782	 -0.209014	 -0.009215
H	 1.115007	 -0.782959	 -1.233891
H	 1.259071	 0.936707	 -1.006644
H	 3.481860	 -0.160270	 -0.833072
H	 2.903471	 -1.171535	 0.475559
H	 3.052569	 0.559584	 0.705428
H	 -1.897505	 -1.742861	 0.732961
H	 -3.097309	 -0.560248	 0.180817
H	 -2.325300	 -0.399584	 1.762962

	symmetry c1
}
set optking {
	frozen_dihedral = ("
		4 2 3 5
	")
}

ee,wfn = optimize('scf', return_wfn=True)
oeprop( wfn, 'DIPOLE', 'QUADRUPOLE', 'MULLIKEN_CHARGES')
f=open( 'psi4out.xyz', 'w' )
f.write( "16  " )
f.write( str(ee) + "\n" )
f.write( MOL.save_string_xyz() )
f.close()
--------------------------------------------------------------------------

    Molecular point group: c1
  Charge       = 0
  Multiplicity = 1
  Basis Set: CC-PVTZ
  Basis Set:
  @DF-RHF Final Energy:  -270.12909859283292
    Total Energy =                       -270.1290985928332020
    Molecular point group: c1
  Basis Set: CC-PVTZ
  Basis Set:
  Basis Set: CC-PVTZ
  Basis Set:
  @DF-RHF Final Energy:  -270.06954929872126
    Total Energy =                       -270.0695492987212560
  Basis Set: CC-PVTZ
  Basis Set:
  Basis Set: CC-PVTZ
  Basis Set:
  @DF-RHF Final Energy:  -270.12610071320387
    Total Energy =                       -270.1261007132038685
  Basis Set: CC-PVTZ
  Basis Set:
  Basis Set: CC-PVTZ
  Basis Set:
  @DF-RHF Final Energy:  -270.12931066589294
    Total Energy =                       -270.1293106658926604
  Basis Set: CC-PVTZ
  Basis Set:
  @DF-RHF Final Energy:  -270.12822215746428
    Total Energy =                       -270.1282221574645632
  @DF-RHF Final Energy:  -270.12976584912161
    Total Energy =                       -270.1297658491215543
  @DF-RHF Final Energy:  -270.12986962171834
    Total Energy =                       -270.1298696217182851
  Basis Set: CC-PVTZ
  Basis Set:
  @DF-RHF Final Energy:  -270.12983164933223
    Total Energy =                       -270.1298316493321181
  Basis Set: CC-PVTZ
  Basis Set:
  Basis Set: CC-PVTZ
  Basis Set:
  @DF-RHF Final Energy:  -270.12989110199248
    Total Energy =                       -270.1298911019925981
  Basis Set: CC-PVTZ
  Basis Set:
  Basis Set: CC-PVTZ
  Basis Set:
  @DF-RHF Final Energy:  -270.12989654846820
    Total Energy =                       -270.1298965484681958
  Basis Set: CC-PVTZ
  Basis Set:
  Charge       = 0
  Multiplicity = 1
  Basis Set: CC-PVTZ
  Basis Set:

    Orbital Energies (a.u.)
    -----------------------

    Doubly Occupied:

       1A    -20.537947     2A    -11.321070     3A    -11.229909
       4A    -11.227751     5A    -11.221876     6A    -11.213336
       7A     -1.398647     8A     -1.079108     9A     -1.016496
      10A     -0.948419    11A     -0.825895    12A     -0.734233
      13A     -0.659011    14A     -0.650686    15A     -0.621940
      16A     -0.602518    17A     -0.570898    18A     -0.561434
      19A     -0.545945    20A     -0.507983    21A     -0.496943
      22A     -0.482349    23A     -0.475626    24A     -0.401543

  @DF-RHF Final Energy:  -270.12989718579712

   => Energetics <=

    Nuclear Repulsion Energy =            237.2116787558770170
    One-Electron Energy =                -836.0200226049240655
    Two-Electron Energy =                 328.6784466632499289
    DFT Exchange-Correlation Energy =       0.0000000000000000
    Empirical Dispersion Energy =           0.0000000000000000
    PCM Polarization Energy =               0.0000000000000000
    EFP Energy =                            0.0000000000000000
    Total Energy =                       -270.1298971857971765
    Molecular point group: c1
  Basis Set: CC-PVTZ
  Basis Set:

  -Total Gradient:
     Atom            X                  Y                   Z
    ------   -----------------  -----------------  -----------------
       1        0.000007439530    -0.000045595648     0.000023043930
       2       -0.000303641911     0.000275192183     0.001122232638
       3        0.000205692717     0.001006585324     0.000243616079
       4        0.000177654020    -0.000376848385    -0.000943787715
       5       -0.000093011254    -0.000862379519    -0.000466608350
       6        0.000007663188     0.000010382005    -0.000009823005
       7        0.000002999986     0.000003386930     0.000000390268
       8        0.000020360322    -0.000009535409     0.000014303398
       9        0.000001054912     0.000005495136     0.000007202901
      10       -0.000003882354    -0.000015616696     0.000007731538
      11       -0.000003052538     0.000001430283    -0.000004217245
      12       -0.000005462905     0.000014393512     0.000000457755
      13       -0.000006168807    -0.000006680761    -0.000008698410
      14        0.000003582568     0.000001079081    -0.000004391692
      15       -0.000015856851    -0.000006075488     0.000000229616
      16        0.000004629376     0.000004787458     0.000018318295

  **** Optimization is complete! (in 11 steps) ****
    Final optimized geometry and variables:
    Molecular point group: c1

    Geometry (in Angstrom), charge = 0, multiplicity = 1:

    O           -1.357673588351     1.106061624725    -0.384769990813
    C           -1.082786929378     0.057214097716     0.099752904501
    C            0.342547485550    -0.281435372191     0.500004520818
    C           -2.132346841033    -0.998342940467     0.348635640325
    C            1.384393428984     0.206406100614    -0.503596847052
    H            0.436629639125    -1.350829169153     0.655891933859
    H            0.509400683788     0.186486215971     1.467813690249
    C            2.810795644114    -0.084864346560    -0.051228508939
    H            1.203127144624    -0.268311539948    -1.463097418962
    H            1.251802310513     1.268687479167    -0.658288641625
    H            3.528113473284     0.263422937231    -0.784801762058
    H            2.972837613663    -1.148501484190     0.089793926426
    H            3.032223237347     0.410116184581     0.888465798785
    H           -1.927451768335    -1.861403668949    -0.276681316475
    H           -3.113327694161    -0.610012854142     0.121843535911
    H           -2.094094369387    -1.333968915411     1.379495934531

  Mulliken Charges: (a.u.)
   Center  Symbol    Alpha    Beta     Spin     Total
       1     O     4.17407  4.17407  0.00000 -0.34814
       2     C     2.85923  2.85923  0.00000  0.28153
       3     C     3.10413  3.10413  0.00000 -0.20827
       4     C     3.15286  3.15286  0.00000 -0.30573
       5     C     3.08318  3.08318  0.00000 -0.16637
       6     H     0.44706  0.44706  0.00000  0.10589
       7     H     0.44445  0.44445  0.00000  0.11110
       8     C     3.14962  3.14962  0.00000 -0.29925
       9     H     0.45321  0.45321  0.00000  0.09359
      10     H     0.43904  0.43904  0.00000  0.12192
      11     H     0.44606  0.44606  0.00000  0.10788
      12     H     0.45656  0.45656  0.00000  0.08688
      13     H     0.45438  0.45438  0.00000  0.09123
      14     H     0.44980  0.44980  0.00000  0.10040
      15     H     0.43636  0.43636  0.00000  0.12727
      16     H     0.44997  0.44997  0.00000  0.10006

   Total alpha = 24.00000, Total beta = 24.00000, Total charge =  0.00000

*** Psi4 exiting successfully. Buy a developer a beer!
