  ==> Input File <==

--------------------------------------------------------------------------
set {
	reference rhf
	basis 6-31G*
}

set_num_threads( 4 )
memory 2 gb

molecule MOL {
0 1

O	 -2.439739	 -0.935931	 -0.423848
C	 -1.921153	 0.064240	 -0.045697
C	 -2.624470	 1.379923	 0.150949
O	 -0.632575	 0.154573	 0.251549
H	 -2.168117	 2.136577	 -0.476876
H	 -3.669540	 1.273223	 -0.098610
H	 -2.519365	 1.700893	 1.180846
C	 0.160891	 -1.019931	 0.106212
C	 1.589627	 -0.672828	 0.480843
H	 0.089836	 -1.367806	 -0.916050
H	 -0.238459	 -1.792301	 0.749618
C	 2.555691	 -0.653873	 -0.705227
H	 1.923213	 -1.406596	 1.211759
H	 1.597004	 0.292329	 0.980519
C	 3.989145	 -0.327470	 -0.288488
H	 2.534654	 -1.622793	 -1.200050
H	 2.214408	 0.073461	 -1.434521
H	 4.653908	 -0.319154	 -1.146424
H	 4.370373	 -1.059303	 0.418168
H	 4.047188	 0.649011	 0.183947

	symmetry c1
}
set optking {
	frozen_dihedral = ("
		12 9 8 10
	")
}

ee = optimize('scf')
oeprop('DIPOLE', 'QUADRUPOLE', 'MULLIKEN_CHARGES')
f=open( 'psi4out.xyz', 'w' )
f.write( "20  " )
f.write( str(ee) + "\n" )
f.write( MOL.save_string_xyz() )
f.close()
--------------------------------------------------------------------------

    Molecular point group: c1
  Charge       = 0
  Multiplicity = 1
  Basis Set: 6-31G*
  Basis Set:
  @DF-RHF Final Energy:  -383.94001986179620
    Total Energy =                       -383.9400198617962587
    Molecular point group: c1
  Basis Set: 6-31G*
  Basis Set:
  Basis Set: 6-31G*
  Basis Set:
  @DF-RHF Final Energy:  -383.94024192219382
    Total Energy =                       -383.9402419221939908
  Basis Set: 6-31G*
  Basis Set:
  Basis Set: 6-31G*
  Basis Set:
  @DF-RHF Final Energy:  -383.94022699274245
    Total Energy =                       -383.9402269927429643
  Basis Set: 6-31G*
  Basis Set:
  Basis Set: 6-31G*
  Basis Set:
  @DF-RHF Final Energy:  -383.94042422981903
    Total Energy =                       -383.9404242298188592
  Basis Set: 6-31G*
  Basis Set:
  Basis Set: 6-31G*
  Basis Set:
  @DF-RHF Final Energy:  -383.94042100978038
    Total Energy =                       -383.9404210097801524
  Basis Set: 6-31G*
  Basis Set:
  Basis Set: 6-31G*
  Basis Set:
  @DF-RHF Final Energy:  -383.94042706974562
    Total Energy =                       -383.9404270697458514
  Basis Set: 6-31G*
  Basis Set:
  Charge       = 0
  Multiplicity = 1
  Basis Set: 6-31G*
  Basis Set:

    Orbital Energies (a.u.)
    -----------------------

    Doubly Occupied:

       1A    -20.600552     2A    -20.543039     3A    -11.373282
       4A    -11.282306     5A    -11.232668     6A    -11.224706
       7A    -11.224077     8A    -11.214735     9A     -1.466522
      10A     -1.360684    11A     -1.085246    12A     -1.028576
      13A     -0.979556    14A     -0.881625    15A     -0.807847
      16A     -0.779682    17A     -0.688750    18A     -0.680892
      19A     -0.666537    20A     -0.632472    21A     -0.601784
      22A     -0.592409    23A     -0.570668    24A     -0.554029
      25A     -0.544225    26A     -0.523878    27A     -0.513384
      28A     -0.481844    29A     -0.479647    30A     -0.474871
      31A     -0.447166    32A     -0.436657

  @DF-RHF Final Energy:  -383.94042698905969

   => Energetics <=

    Nuclear Repulsion Energy =            380.9328017606773074
    One-Electron Energy =               -1277.7978200608167754
    Two-Electron Energy =                 512.9245913110795527
    DFT Exchange-Correlation Energy =       0.0000000000000000
    Empirical Dispersion Energy =           0.0000000000000000
    PCM Polarization Energy =               0.0000000000000000
    EFP Energy =                            0.0000000000000000
    Total Energy =                       -383.9404269890599153
    Molecular point group: c1
  Basis Set: 6-31G*
  Basis Set:

  -Total Gradient:
     Atom            X                  Y                   Z
    ------   -----------------  -----------------  -----------------
       1       -0.000000419759     0.000006818329     0.000004547787
       2       -0.000009504397    -0.000013890379     0.000035423577
       3        0.000000757391    -0.000001113446    -0.000007383852
       4       -0.000036393146     0.000040037420     0.000042857019
       5       -0.000003841960     0.000010960085    -0.000005710829
       6       -0.000000602192     0.000003290441    -0.000003032774
       7        0.000007924454    -0.000010927838    -0.000007890710
       8        0.000752410417    -0.004290318295     0.000988278499
       9       -0.000661572698     0.003560720280    -0.000524537266
      10       -0.000396611733     0.002738277578    -0.000790960118
      11       -0.000007078011     0.000021304998     0.000032925217
      12        0.000405104178    -0.002031973071     0.000247889479
      13       -0.000027154186    -0.000028112706    -0.000014517146
      14       -0.000011727432    -0.000017595974    -0.000000408326
      15       -0.000005814879     0.000025192720    -0.000010620130
      16       -0.000002747171    -0.000004753673     0.000018612149
      17       -0.000007788782    -0.000007895529    -0.000009139262
      18        0.000000650541     0.000002720069     0.000001235022
      19       -0.000000877558    -0.000002468881     0.000000518231
      20        0.000005286929    -0.000000272129     0.000001913434

  **** Optimization is complete! (in 7 steps) ****
    Final optimized geometry and variables:
    Molecular point group: c1

    Geometry (in Angstrom), charge = 0, multiplicity = 1:

    O           -2.519795118513    -0.677528154478    -0.372657351966
    C           -1.991662681586     0.317739543220     0.006716469803
    C           -2.683345530543     1.640449462692     0.199667111101
    O           -0.705659963853     0.394457799504     0.314521329180
    H           -2.214418636690     2.393291330667    -0.423417720640
    H           -3.727422952293     1.544482598705    -0.058394308652
    H           -2.583257345022     1.958868640359     1.230879507248
    C            0.076359203023    -0.793461694873     0.176215680514
    C            1.519443609335    -0.454840203884     0.559143403235
    H           -0.000589233427    -1.118142181706    -0.852348209914
    H           -0.350283467150    -1.559830152109     0.806859712780
    C            2.474137154134    -0.413987267712    -0.636587380274
    H            1.881913114508    -1.192077755836     1.270835939781
    H            1.523014508838     0.498849068820     1.075144403708
    C            3.903553882047    -0.050799253241    -0.239578628189
    H            2.470616025439    -1.382783769044    -1.130989878955
    H            2.105441920843     0.304162874154    -1.365732570702
    H            4.558845032368    -0.035232673059    -1.104581963209
    H            4.308218420633    -0.767910219459     0.469173327687
    H            3.943732035816     0.930483500863     0.224422619861

  Mulliken Charges: (a.u.)
   Center  Symbol    Alpha    Beta     Spin     Total
       1     O     4.28425  4.28425  0.00000 -0.56850
       2     C     2.61986  2.61986  0.00000  0.76027
       3     C     3.28145  3.28145  0.00000 -0.56290
       4     O     4.31026  4.31026  0.00000 -0.62052
       5     H     0.40092  0.40092  0.00000  0.19816
       6     H     0.39709  0.39709  0.00000  0.20582
       7     H     0.40077  0.40077  0.00000  0.19846
       8     C     3.00323  3.00323  0.00000 -0.00646
       9     C     3.16853  3.16853  0.00000 -0.33705
      10     H     0.40762  0.40762  0.00000  0.18476
      11     H     0.40772  0.40772  0.00000  0.18455
      12     C     3.15785  3.15785  0.00000 -0.31570
      13     H     0.41744  0.41744  0.00000  0.16513
      14     H     0.40534  0.40534  0.00000  0.18933
      15     C     3.24083  3.24083  0.00000 -0.48166
      16     H     0.42073  0.42073  0.00000  0.15854
      17     H     0.41827  0.41827  0.00000  0.16345
      18     H     0.41711  0.41711  0.00000  0.16579
      19     H     0.42084  0.42084  0.00000  0.15832
      20     H     0.41990  0.41990  0.00000  0.16020

   Total alpha = 32.00000, Total beta = 32.00000, Total charge =  0.00000
