  ==> Input File <==

--------------------------------------------------------------------------
set {
	reference rhf
	basis cc-pvtz
}

set_num_threads( 4 )
memory 2 gb

molecule MOL {
0 1

H	 -3.436473	 1.252944	 -1.023892
O	 -3.458596	 0.315260	 -0.960865
C	 -3.176635	 -0.080824	 0.355601
C	 -1.763371	 0.265266	 0.799691
H	 -3.321825	 -1.153438	 0.379502
H	 -3.895468	 0.357385	 1.043382
C	 -0.673390	 -0.426948	 -0.013392
H	 -1.631049	 1.344913	 0.747560
H	 -1.664587	 -0.001624	 1.849167
C	 0.737842	 -0.043159	 0.423759
H	 -0.806103	 -0.190518	 -1.063345
H	 -0.797221	 -1.503753	 0.074146
C	 1.824000	 -0.743224	 -0.390623
H	 0.850588	 1.033777	 0.343840
H	 0.868587	 -0.286314	 1.476203
C	 3.255957	 -0.453067	 0.062319
H	 1.718250	 -0.470599	 -1.438164
H	 1.658105	 -1.815850	 -0.339904
C	 4.340879	 -0.985410	 -0.870793
H	 3.399474	 -0.889611	 1.045990
H	 3.382275	 0.619336	 0.186475
H	 4.236163	 -2.055581	 -1.018593
H	 5.326412	 -0.805226	 -0.456667
H	 4.306596	 -0.512346	 -1.844775

	symmetry c1
}
set optking {
	frozen_dihedral = ("
		20 16 13 17
	")
}

ee = optimize('scf')
oeprop('DIPOLE', 'QUADRUPOLE', 'MULLIKEN_CHARGES')
f=open( 'psi4out.xyz', 'w' )
f.write( "24  " )
f.write( str(ee) + "\n" )
f.write( MOL.save_string_xyz() )
f.close()
--------------------------------------------------------------------------

    Molecular point group: c1
  Charge       = 0
  Multiplicity = 1
  Basis Set: CC-PVTZ
  Basis Set:
  @DF-RHF Final Energy:  -349.38149675256409
    Total Energy =                       -349.3814967525644875
    Molecular point group: c1
  Basis Set: CC-PVTZ
  Basis Set:
  Basis Set: CC-PVTZ
  Basis Set:
  @DF-RHF Final Energy:  -349.38181113438634
    Total Energy =                       -349.3818111343861119
  Basis Set: CC-PVTZ
  Basis Set:
  Basis Set: CC-PVTZ
  Basis Set:
  @DF-RHF Final Energy:  -349.38183343324687
    Total Energy =                       -349.3818334332473228
  Basis Set: CC-PVTZ
  Basis Set:
  Charge       = 0
  Multiplicity = 1
  Basis Set: CC-PVTZ
  Basis Set:

    Orbital Energies (a.u.)
    -----------------------

    Doubly Occupied:

       1A    -20.546319     2A    -11.265555     3A    -11.215229
       4A    -11.211695     5A    -11.210679     6A    -11.209158
       7A    -11.209017     8A    -11.205208     9A     -1.364170
      10A     -1.089896    11A     -1.050294    12A     -0.989095
      13A     -0.914694    14A     -0.842856    15A     -0.798009
      16A     -0.788543    17A     -0.681763    18A     -0.658366
      19A     -0.631943    20A     -0.615921    21A     -0.593486
      22A     -0.586008    23A     -0.547003    24A     -0.544326
      25A     -0.532190    26A     -0.500181    27A     -0.496155
      28A     -0.471764    29A     -0.468842    30A     -0.461062
      31A     -0.458519    32A     -0.456387    33A     -0.420833

  @DF-RHF Final Energy:  -349.38183427413520

   => Energetics <=

    Nuclear Repulsion Energy =            380.9947254370051155
    One-Electron Energy =               -1228.6827839995587510
    Two-Electron Energy =                 498.3062242884186617
    DFT Exchange-Correlation Energy =       0.0000000000000000
    Empirical Dispersion Energy =           0.0000000000000000
    PCM Polarization Energy =               0.0000000000000000
    EFP Energy =                            0.0000000000000000
    Total Energy =                       -349.3818342741349170
    Molecular point group: c1
  Basis Set: CC-PVTZ
  Basis Set:

  -Total Gradient:
     Atom            X                  Y                   Z
    ------   -----------------  -----------------  -----------------
       1        0.000000830659    -0.000001632555    -0.000000193610
       2       -0.000005939038     0.000004636821    -0.000012978279
       3        0.000013385928     0.000008763186    -0.000010706354
       4       -0.000015496403     0.000022566715    -0.000034478097
       5        0.000002674499    -0.000003113859     0.000004803826
       6        0.000007381255     0.000000703144     0.000004439669
       7       -0.000076747298     0.000033394568     0.000040734123
       8       -0.000001179820     0.000014950990     0.000012397760
       9        0.000008268646    -0.000014045402    -0.000008923657
      10       -0.000077374959    -0.000057133202     0.000019266069
      11        0.000002536787    -0.000013127580    -0.000004260353
      12        0.000027924927     0.000007636265     0.000025064885
      13       -0.000496556667     0.001783347800     0.000469599820
      14        0.000009091047     0.000009794745     0.000014158161
      15        0.000007211855    -0.000025707878    -0.000028762011
      16       -0.000744248336     0.001573531892     0.000817672956
      17        0.000573818266    -0.001735138740    -0.000461120448
      18        0.000016828197    -0.000006558069    -0.000011248259
      19        0.000114456829     0.000019095409     0.000017996471
      20        0.000589932950    -0.001567737807    -0.000762025118
      21       -0.000002835823    -0.000030507921    -0.000007869614
      22        0.000001563840     0.000015798287    -0.000006643569
      23        0.000043735333    -0.000038235972    -0.000045788544
      24        0.000000737316    -0.000001280838    -0.000031135829

  **** Optimization is complete! (in 4 steps) ****
    Final optimized geometry and variables:
    Molecular point group: c1

    Geometry (in Angstrom), charge = 0, multiplicity = 1:

    H           -3.492351314593     1.537949083499    -0.926767014314
    O           -3.526317395909     0.600055512269    -0.873106064515
    C           -3.255486209842     0.187832700776     0.440663291078
    C           -1.840046476733     0.511761343978     0.894402008394
    H           -3.414284529580    -0.883055424196     0.453192110643
    H           -3.971977387362     0.628249744133     1.129476735910
    C           -0.755077632787    -0.184559819769     0.078194246176
    H           -1.694287904254     1.590221905506     0.854831151719
    H           -1.748878763354     0.232109162533     1.941226467583
    C            0.658528407770     0.177565897392     0.524651221009
    H           -0.880843295791     0.064262190089    -0.969733430748
    H           -0.891528452805    -1.260734808240     0.154211243573
    C            1.746666397337    -0.513773049794    -0.290664235213
    H            0.791481924365     1.254812604103     0.456266646052
    H            0.782353929414    -0.076551713048     1.575077245392
    C            3.163782472357    -0.177182144463     0.167364472992
    H            1.636968809440    -0.258163858131    -1.341856974972
    H            1.606076487423    -1.590993971835    -0.235437006548
    C            4.237815624312    -0.715791817533    -0.773390245290
    H            3.326603357486    -0.592550248330     1.158071463825
    H            3.272282280808     0.899838872118     0.258294887145
    H            4.165705303117    -1.793967386992    -0.872413662351
    H            5.232453065383    -0.483928439274    -0.409831956863
    H            4.139854298641    -0.287589473972    -1.765418265771

  Mulliken Charges: (a.u.)
   Center  Symbol    Alpha    Beta     Spin     Total
       1     H     0.39531  0.39531  0.00000  0.20938
       2     O     4.20371  4.20371  0.00000 -0.40743
       3     C     2.97755  2.97755  0.00000  0.04490
       4     C     3.10263  3.10263  0.00000 -0.20526
       5     H     0.45889  0.45889  0.00000  0.08221
       6     H     0.46030  0.46030  0.00000  0.07941
       7     C     3.08793  3.08793  0.00000 -0.17587
       8     H     0.45908  0.45908  0.00000  0.08184
       9     H     0.45329  0.45329  0.00000  0.09342
      10     C     3.08820  3.08820  0.00000 -0.17640
      11     H     0.44643  0.44643  0.00000  0.10715
      12     H     0.45535  0.45535  0.00000  0.08930
      13     C     3.08641  3.08641  0.00000 -0.17281
      14     H     0.45545  0.45545  0.00000  0.08910
      15     H     0.45602  0.45602  0.00000  0.08796
      16     C     3.08403  3.08403  0.00000 -0.16806
      17     H     0.45493  0.45493  0.00000  0.09014
      18     H     0.45476  0.45476  0.00000  0.09048
      19     C     3.15031  3.15031  0.00000 -0.30062
      20     H     0.45459  0.45459  0.00000  0.09081
      21     H     0.45558  0.45558  0.00000  0.08884
      22     H     0.45512  0.45512  0.00000  0.08975
      23     H     0.44890  0.44890  0.00000  0.10221
      24     H     0.45522  0.45522  0.00000  0.08957

   Total alpha = 33.00000, Total beta = 33.00000, Total charge =  0.00000
