  ==> Input File <==

--------------------------------------------------------------------------
set {
	reference rhf
	basis 6-31G*
}

set_num_threads( 4 )
memory 2 gb

molecule MOL {
0 1

O	 1.846825	 1.296220	 0.000415
C	 1.705091	 0.115954	 0.001797
C	 0.381791	 -0.609817	 0.001258
O	 2.721346	 -0.737485	 -0.000216
C	 -0.823008	 0.326187	 0.001381
H	 0.371250	 -1.265087	 -0.865474
H	 0.370908	 -1.265746	 0.867490
C	 -0.804528	 1.295863	 1.183941
H	 -1.734003	 -0.263601	 0.022037
H	 -0.844470	 0.881608	 -0.931012
C	 -2.006554	 2.241765	 1.200165
H	 -0.779414	 0.732848	 2.115810
H	 0.112478	 1.882683	 1.158963
C	 -1.986905	 3.211204	 2.381289
H	 -2.923384	 1.657124	 1.227711
H	 -2.032515	 2.805522	 0.270304
H	 -1.995527	 2.677258	 3.327355
H	 -2.850970	 3.868146	 2.364863
H	 -1.097271	 3.834512	 2.362577
C	 4.024888	 -0.184556	 -0.001949
H	 4.179030	 0.422472	 -0.882452
H	 4.701782	 -1.024608	 -0.003642
H	 4.181981	 0.421185	 0.878906

	symmetry c1
}
set optking {
	frozen_dihedral = ("
		9 5 3 6
	")
}

ee = optimize('scf')
oeprop('DIPOLE', 'QUADRUPOLE', 'MULLIKEN_CHARGES')
f=open( 'psi4out.xyz', 'w' )
f.write( "23  " )
f.write( str(ee) + "\n" )
f.write( MOL.save_string_xyz() )
f.close()
--------------------------------------------------------------------------

    Molecular point group: c1
  Charge       = 0
  Multiplicity = 1
  Basis Set: 6-31G*
  Basis Set:
  @DF-RHF Final Energy:  -422.97187608212147
    Total Energy =                       -422.9718760821217529
    Molecular point group: c1
  Basis Set: 6-31G*
  Basis Set:
  Basis Set: 6-31G*
  Basis Set:
  @DF-RHF Final Energy:  -422.97452341548427
    Total Energy =                       -422.9745234154843274
  Basis Set: 6-31G*
  Basis Set:
  Basis Set: 6-31G*
  Basis Set:
  @DF-RHF Final Energy:  -422.97492281469476
    Total Energy =                       -422.9749228146952191
  Basis Set: 6-31G*
  Basis Set:
  Basis Set: 6-31G*
  Basis Set:
  @DF-RHF Final Energy:  -422.97502370740790
    Total Energy =                       -422.9750237074076722
  Basis Set: 6-31G*
  Basis Set:
  @DF-RHF Final Energy:  -422.97520525095791
    Total Energy =                       -422.9752052509568330
  @DF-RHF Final Energy:  -422.97523228038801
    Total Energy =                       -422.9752322803878997
  Basis Set: 6-31G*
  Basis Set:
  @DF-RHF Final Energy:  -422.97525362084770
    Total Energy =                       -422.9752536208475249
  Basis Set: 6-31G*
  Basis Set:
  Basis Set: 6-31G*
  Basis Set:
  @DF-RHF Final Energy:  -422.97530688418419
    Total Energy =                       -422.9753068841845334
  Basis Set: 6-31G*
  Basis Set:
  Basis Set: 6-31G*
  Basis Set:
  @DF-RHF Final Energy:  -422.97538191423985
    Total Energy =                       -422.9753819142403017
  Basis Set: 6-31G*
  Basis Set:
  Charge       = 0
  Multiplicity = 1
  Basis Set: 6-31G*
  Basis Set:

    Orbital Energies (a.u.)
    -----------------------

    Doubly Occupied:

       1A    -20.605059     2A    -20.545002     3A    -11.372852
       4A    -11.281347     5A    -11.235955     6A    -11.221093
       7A    -11.213322     8A    -11.211219     9A    -11.206394
      10A     -1.470220    11A     -1.362916    12A     -1.090880
      13A     -1.041329    14A     -0.985907    15A     -0.930818
      16A     -0.843697    17A     -0.794209    18A     -0.766027
      19A     -0.699682    20A     -0.680835    21A     -0.671426
      22A     -0.641994    23A     -0.612526    24A     -0.599379
      25A     -0.568383    26A     -0.560040    27A     -0.552562
      28A     -0.527976    29A     -0.522825    30A     -0.501389
      31A     -0.492271    32A     -0.467884    33A     -0.464027
      34A     -0.454785    35A     -0.451064    36A     -0.434114

  @DF-RHF Final Energy:  -422.97538133528235

   => Energetics <=

    Nuclear Repulsion Energy =            463.9410602108495141
    One-Electron Energy =               -1495.6700643005879101
    Two-Electron Energy =                 608.7536227544557050
    DFT Exchange-Correlation Energy =       0.0000000000000000
    Empirical Dispersion Energy =           0.0000000000000000
    PCM Polarization Energy =               0.0000000000000000
    EFP Energy =                            0.0000000000000000
    Total Energy =                       -422.9753813352825773
    Molecular point group: c1
  Basis Set: 6-31G*
  Basis Set:

  -Total Gradient:
     Atom            X                  Y                   Z
    ------   -----------------  -----------------  -----------------
       1        0.000031392133     0.000017994246     0.000051688065
       2       -0.000003318528    -0.000017338709    -0.000080656583
       3       -0.001933035369    -0.002182082640     0.002702142059
       4        0.000048758717     0.000044364846     0.000005812362
       5        0.000132212042     0.000244570172    -0.003770047461
       6        0.001478389606     0.001834952721    -0.001528543072
       7       -0.000007685703    -0.000030213948    -0.000070079769
       8       -0.000065424738    -0.000183735724    -0.000045428416
       9        0.000011965580     0.000095313413     0.002725189881
      10        0.000051366853    -0.000048485841     0.000073379406
      11        0.000010091768     0.000066280363    -0.000044908868
      12        0.000070159054     0.000045431171    -0.000025477546
      13        0.000151635605     0.000174716685    -0.000054196030
      14       -0.000037180913    -0.000063155049     0.000066279309
      15        0.000026817021    -0.000007115324    -0.000054175908
      16        0.000037967171     0.000021277128     0.000026107992
      17        0.000012785831     0.000011238175     0.000026856923
      18       -0.000008061257    -0.000023937857     0.000012885766
      19       -0.000016084079    -0.000001275894    -0.000026817435
      20       -0.000002804128     0.000002420381     0.000034466998
      21       -0.000005065175     0.000000169869    -0.000011352210
      22        0.000009698395     0.000002815416    -0.000007887991
      23        0.000005420113    -0.000004203598    -0.000005237467

  **** Optimization is complete! (in 10 steps) ****
    Final optimized geometry and variables:
    Molecular point group: c1

    Geometry (in Angstrom), charge = 0, multiplicity = 1:

    O            1.308023708397     0.417098251220    -1.087227007903
    C            1.118122194381    -0.676729674287    -0.659875350220
    C           -0.231067389289    -1.348090996474    -0.542325798030
    O            2.097057189928    -1.480654334697    -0.267823851896
    C           -1.409258777235    -0.374762718640    -0.505842418701
    H           -0.301575548667    -1.983426586903    -1.423285855510
    H           -0.222200390590    -2.004025770488     0.319989762634
    C           -1.400946095068     0.564656734360     0.703721786764
    H           -2.322098603026    -0.964590741514    -0.470748554770
    H           -1.428396919309     0.204351000818    -1.422308390057
    C           -2.635641538631     1.466215364915     0.759197078955
    H           -1.350151933617    -0.027625201772     1.616996246916
    H           -0.509053657903     1.182640087807     0.680440466396
    C           -2.642177915417     2.391924828440     1.975131342700
    H           -3.533462462676     0.851431451653     0.769213656552
    H           -2.683620526897     2.063349738670    -0.148611547372
    H           -2.624800377911     1.823787557342     2.901116613319
    H           -3.529119925356     3.017868195957     1.988247725491
    H           -1.775203667572     3.046229950860     1.973033456047
    C            3.419880562795    -0.989465374073    -0.389283828709
    H            3.647899204175    -0.763021253653    -1.420906560530
    H            4.061609350418    -1.778096948989    -0.028581371983
    H            3.549849062443    -0.098126925090     0.207287990225

  Mulliken Charges: (a.u.)
   Center  Symbol    Alpha    Beta     Spin     Total
       1     O     4.28807  4.28807  0.00000 -0.57615
       2     C     2.60579  2.60579  0.00000  0.78843
       3     C     3.20884  3.20884  0.00000 -0.41767
       4     O     4.30584  4.30584  0.00000 -0.61168
       5     C     3.15315  3.15315  0.00000 -0.30630
       6     H     0.39822  0.39822  0.00000  0.20356
       7     H     0.40050  0.40050  0.00000  0.19899
       8     C     3.15923  3.15923  0.00000 -0.31847
       9     H     0.41934  0.41934  0.00000  0.16133
      10     H     0.40858  0.40858  0.00000  0.18284
      11     C     3.15200  3.15200  0.00000 -0.30400
      12     H     0.42710  0.42710  0.00000  0.14580
      13     H     0.40768  0.40768  0.00000  0.18464
      14     C     3.23944  3.23944  0.00000 -0.47889
      15     H     0.42478  0.42478  0.00000  0.15044
      16     H     0.42035  0.42035  0.00000  0.15930
      17     H     0.42272  0.42272  0.00000  0.15456
      18     H     0.41961  0.41961  0.00000  0.16079
      19     H     0.42003  0.42003  0.00000  0.15994
      20     C     3.09267  3.09267  0.00000 -0.18533
      21     H     0.40908  0.40908  0.00000  0.18184
      22     H     0.40831  0.40831  0.00000  0.18339
      23     H     0.40868  0.40868  0.00000  0.18264

   Total alpha = 36.00000, Total beta = 36.00000, Total charge =  0.00000
