  ==> Input File <==

--------------------------------------------------------------------------
set {
	reference rhf
	basis 6-31G*
}

set_num_threads( 4 )
memory 2 gb

molecule MOL {
0 1

H	 -0.462281	 -0.099844	 2.590680
O	 0.343645	 -0.123078	 2.092887
C	 0.283465	 0.841315	 1.082794
C	 -0.793441	 0.596080	 0.058728
H	 1.253869	 0.834089	 0.599609
H	 0.154084	 1.837050	 1.505639
C	 -1.530462	 -0.493172	 -0.025500
H	 -0.941228	 1.398600	 -0.647390
H	 -1.092586	 -1.461565	 -0.186463
H	 -2.602122	 -0.450675	 0.050101

	symmetry c1
}
set optking {
	frozen_dihedral = ("
		3 4 7 9
	")
}

ee = optimize('scf')
oeprop('DIPOLE', 'QUADRUPOLE', 'MULLIKEN_CHARGES')
f=open( 'psi4out.xyz', 'w' )
f.write( "10  " )
f.write( str(ee) + "\n" )
f.write( MOL.save_string_xyz() )
f.close()
--------------------------------------------------------------------------

    Molecular point group: c1
  Charge       = 0
  Multiplicity = 1
  Basis Set: 6-31G*
  Basis Set:
  @DF-RHF Final Energy:  -191.83524901920794
    Total Energy =                       -191.8352490192079358
    Molecular point group: c1
  Basis Set: 6-31G*
  Basis Set:
  Basis Set: 6-31G*
  Basis Set:
  @DF-RHF Final Energy:  -191.86188484898278
    Total Energy =                       -191.8618848489826689
  Basis Set: 6-31G*
  Basis Set:
  Basis Set: 6-31G*
  Basis Set:
  @DF-RHF Final Energy:  -191.88390392839159
    Total Energy =                       -191.8839039283916463
  Basis Set: 6-31G*
  Basis Set:
  Basis Set: 6-31G*
  Basis Set:
  @DF-RHF Final Energy:  -191.88846575153119
    Total Energy =                       -191.8884657515311574
  Basis Set: 6-31G*
  Basis Set:
  @DF-RHF Final Energy:  -191.88885136522418
    Total Energy =                       -191.8888513652241841
  @DF-RHF Final Energy:  -191.88887693153015
    Total Energy =                       -191.8888769315301488
  @DF-RHF Final Energy:  -191.88889648345321
    Total Energy =                       -191.8888964834532089
  @DF-RHF Final Energy:  -191.86986697816161
    Total Energy =                       -191.8698669781615251
  @DF-RHF Final Energy:  -191.84325789433785
    Total Energy =                       -191.8432578943377962
  @DF-RHF Final Energy:  -191.87799897204565
    Total Energy =                       -191.8779989720455319
  @DF-RHF Final Energy:  -191.84006988275277
    Total Energy =                       -191.8400698827526298
  @DF-RHF Final Energy:  -191.87875740912452
    Total Energy =                       -191.8787574091245176
  @DF-RHF Final Energy:  -191.84286031752077
    Total Energy =                       -191.8428603175207741
  @DF-RHF Final Energy:  -191.88048541625119
    Total Energy =                       -191.8804854162511333
  @DF-RHF Final Energy:  -191.84683545776292
    Total Energy =                       -191.8468354577629214
  @DF-RHF Final Energy:  -191.88041982897374
    Total Energy =                       -191.8804198289737712
  @DF-RHF Final Energy:  -191.85056897423112
    Total Energy =                       -191.8505689742311802
  @DF-RHF Final Energy:  -191.88091836758832
    Total Energy =                       -191.8809183675884356
  @DF-RHF Final Energy:  -191.85234212087119
    Total Energy =                       -191.8523421208712136
  @DF-RHF Final Energy:  -191.78197965948698
    Total Energy =                       -191.7819796594870354
  @DF-RHF Final Energy:  -191.85106690555006
    Total Energy =                       -191.8510669055500557
  @DF-RHF Final Energy:  -191.87464064931527
    Total Energy =                       -191.8746406493152676
  @DF-RHF Final Energy:  -191.85206082450850
    Total Energy =                       -191.8520608245085270
  @DF-RHF Final Energy:  -191.87608837010697
    Total Energy =                       -191.8760883701069133
  @DF-RHF Final Energy:  -191.85322500522255
    Total Energy =                       -191.8532250052226118
  @DF-RHF Final Energy:  -191.87677956534142
    Total Energy =                       -191.8767795653413657
  @DF-RHF Final Energy:  -191.85354226843918
    Total Energy =                       -191.8535422684392415
  @DF-RHF Final Energy:  -191.87599977670686
    Total Energy =                       -191.8759997767068626
  @DF-RHF Final Energy:  -191.85413181966641
    Total Energy =                       -191.8541318196664349
  @DF-RHF Final Energy:  -191.87545818665524
    Total Energy =                       -191.8754581866552655
  @DF-RHF Final Energy:  -191.85508529780191
    Total Energy =                       -191.8550852978017929
  @DF-RHF Final Energy:  -191.87749835652630
    Total Energy =                       -191.8774983565263597
  @DF-RHF Final Energy:  -191.85610621789363
    Total Energy =                       -191.8561062178935686
  @DF-RHF Final Energy:  -191.87763089839117
    Total Energy =                       -191.8776308983912031
  @DF-RHF Final Energy:  -191.85664225995191
    Total Energy =                       -191.8566422599519115
  @DF-RHF Final Energy:  -191.87656631635747
    Total Energy =                       -191.8765663163574686
  Basis Set: 6-31G*
  Basis Set:
  @DF-RHF Final Energy:  -191.85707453497167
    Total Energy =                       -191.8570745349716731
  Basis Set: 6-31G*
  Basis Set:
  Basis Set: 6-31G*
  Basis Set:
  @DF-RHF Final Energy:  -191.87700194171947
    Total Energy =                       -191.8770019417194419
  Basis Set: 6-31G*
  Basis Set:
  Basis Set: 6-31G*
  Basis Set:
  @DF-RHF Final Energy:  -191.85808343400220
    Total Energy =                       -191.8580834340022534
  Basis Set: 6-31G*
  Basis Set:
  Charge       = 0
  Multiplicity = 1
  Basis Set: 6-31G*
  Basis Set:

    Orbital Energies (a.u.)
    -----------------------

    Doubly Occupied:

       1A    -20.559388     2A    -11.289340     3A    -11.244246
       4A    -11.229353     5A     -1.384914     6A     -1.060260
       7A     -0.944226     8A     -0.774864     9A     -0.693330
      10A     -0.650282    11A     -0.627365    12A     -0.579770
      13A     -0.526943    14A     -0.504029    15A     -0.444033
      16A     -0.354503

  @DF-RHF Final Energy:  -191.87588465468218

   => Energetics <=

    Nuclear Repulsion Energy =            116.5407169560095468
    One-Electron Energy =                -491.0995055026886007
    Two-Electron Energy =                 182.6829038919969435
    DFT Exchange-Correlation Energy =       0.0000000000000000
    Empirical Dispersion Energy =           0.0000000000000000
    PCM Polarization Energy =               0.0000000000000000
    EFP Energy =                            0.0000000000000000
    Total Energy =                       -191.8758846546821246
    Molecular point group: c1
  Basis Set: 6-31G*
  Basis Set:

  -Total Gradient:
     Atom            X                  Y                   Z
    ------   -----------------  -----------------  -----------------
       1        0.036617830818     0.017841920797    -0.028501115513
       2       -0.033534560564    -0.009066975466     0.023628581297
       3       -0.004730303443     0.017727546464    -0.002756031468
       4        0.039754694753    -0.034056683840     0.025597644911
       5       -0.001737492033    -0.001626212240     0.002445436599
       6       -0.001736507303    -0.003769015373    -0.000827425979
       7       -0.046551049057     0.033036368364     0.012519681842
       8       -0.001203888913    -0.006319435813    -0.009035154050
       9        0.014914406276    -0.016817320966    -0.021322161947
      10       -0.001793130536     0.003049808073    -0.001749455692

    Molecular point group: c1

    Geometry (in Angstrom), charge = 0, multiplicity = 1:

    H           -0.037877132808    -0.717447362578     1.372091895683
    O            0.795955129906    -0.359561378774     1.109419597787
    C            0.582727985584     0.705576585601     0.232944912796
    C           -0.275465692754     0.307928035667    -0.987387041996
    H            1.567694390065     1.106580894402     0.007633169396
    H            0.061273220878     1.524392375384     0.726652957828
    C           -1.206475155840    -0.604486001704    -0.640833884778
    H           -0.211499500983     0.979090262486    -1.818796927483
    H           -1.103796871172    -1.574808834354    -0.232851619779
    H           -2.201406117952    -0.481421958522    -1.048711113581

  Mulliken Charges: (a.u.)
   Center  Symbol    Alpha    Beta     Spin     Total
       1     H     0.27918  0.27918  0.00000  0.44163
       2     O     4.36066  4.36066  0.00000 -0.72131
       3     C     3.00549  3.00549  0.00000 -0.01097
       4     C     3.07797  3.07797  0.00000 -0.15595
       5     H     0.40634  0.40634  0.00000  0.18732
       6     H     0.41573  0.41573  0.00000  0.16854
       7     C     3.20437  3.20437  0.00000 -0.40875
       8     H     0.42447  0.42447  0.00000  0.15106
       9     H     0.41307  0.41307  0.00000  0.17386
      10     H     0.41272  0.41272  0.00000  0.17456

   Total alpha = 16.00000, Total beta = 16.00000, Total charge =  0.00000
