  ==> Input File <==

--------------------------------------------------------------------------
set {
	reference rhf
	basis 6-31G*
}

set_num_threads( 1 )
memory 2 gb

molecule MOL {
0 1

H	 -2.172150	 0.880146	 0.502514
C	 -2.018062	 -0.000025	 -0.114509
O	 -0.774054	 0.001095	 -0.743181
H	 -2.760490	 0.003458	 -0.901350
H	 -2.173624	 -0.884374	 0.496163
C	 0.324311	 -0.646102	 -0.125717
C	 1.471614	 -0.428044	 -1.109668
C	 0.661176	 0.001352	 1.221322
C	 0.058789	 -2.145444	 0.043360
H	 1.644640	 0.632709	 -1.252132
H	 1.225021	 -0.861091	 -2.072495
H	 2.388047	 -0.883681	 -0.748826
H	 0.776838	 1.073676	 1.103965
H	 1.590675	 -0.401639	 1.610206
H	 -0.106744	 -0.179512	 1.965729
H	 -0.248295	 -2.581323	 -0.901500
H	 0.959269	 -2.651489	 0.375907
H	 -0.714283	 -2.343854	 0.777951

	symmetry c1
}
set optking {
	frozen_dihedral = ("
		2 3 6 7
	")
}

ee = energy('scf')
oeprop('DIPOLE', 'QUADRUPOLE', 'MULLIKEN_CHARGES')
f=open( 'psi4out.xyz', 'w' )
f.write( "18  " )
f.write( str(ee) + "\n" )
f.write( MOL.save_string_xyz() )
f.close()
--------------------------------------------------------------------------

    Molecular point group: c1

    Geometry (in Angstrom), charge = 0, multiplicity = 1:

       Center              X                  Y                   Z               Mass
    ------------   -----------------  -----------------  -----------------  -----------------
           H         -2.104094958577     1.412140409853     0.638127663071     1.007825032070
           C         -1.950006958577     0.531969409853     0.021104663071    12.000000000000
           O         -0.705998958577     0.533089409853    -0.607567336929    15.994914619560
           H         -2.692434958577     0.535452409853    -0.765736336929     1.007825032070
           H         -2.105568958577    -0.352379590147     0.631776663071     1.007825032070
           C          0.392366041423    -0.114107590147     0.009896663071    12.000000000000
           C          1.539669041423     0.103950409853    -0.974054336929    12.000000000000
           C          0.729231041423     0.533346409853     1.356935663071    12.000000000000
           C          0.126844041423    -1.613449590147     0.178973663071    12.000000000000
           H          1.712695041423     1.164703409853    -1.116518336929     1.007825032070
           H          1.293076041423    -0.329096590147    -1.936881336929     1.007825032070
           H          2.456102041423    -0.351686590147    -0.613212336929     1.007825032070
           H          0.844893041423     1.605670409853     1.239578663071     1.007825032070
           H          1.658730041423     0.130355409853     1.745819663071     1.007825032070
           H         -0.038688958577     0.352482409853     2.101342663071     1.007825032070
           H         -0.180239958577    -2.049328590147    -0.765886336929     1.007825032070
           H          1.027324041423    -2.119494590147     0.511520663071     1.007825032070
           H         -0.646227958577    -1.811859590147     0.913564663071     1.007825032070

  Charge       = 0
  Multiplicity = 1
  Basis Set: 6-31G*
  Basis Set:

    Orbital Energies (a.u.)
    -----------------------

    Doubly Occupied:

       1A    -20.545806     2A    -11.281655     3A    -11.260212
       4A    -11.208988     5A    -11.208622     6A    -11.203267
       7A     -1.369681     8A     -1.073079     9A     -0.946096
      10A     -0.939793    11A     -0.912207    12A     -0.752607
      13A     -0.655625    14A     -0.644085    15A     -0.638153
      16A     -0.591246    17A     -0.573393    18A     -0.552666
      19A     -0.536334    20A     -0.523587    21A     -0.515044
      22A     -0.488625    23A     -0.486220    24A     -0.438584
      25A     -0.402843

  @DF-RHF Final Energy:  -271.17391667689049

   => Energetics <=

    Nuclear Repulsion Energy =            272.3027983940933154
    One-Electron Energy =                -907.4562605512810478
    Two-Electron Energy =                 363.9795454802970198
    DFT Exchange-Correlation Energy =       0.0000000000000000
    Empirical Dispersion Energy =           0.0000000000000000
    PCM Polarization Energy =               0.0000000000000000
    EFP Energy =                            0.0000000000000000
    Total Energy =                       -271.1739166768907126

  Mulliken Charges: (a.u.)
   Center  Symbol    Alpha    Beta     Spin     Total
       1     H     0.42639  0.42639  0.00000  0.14721
       2     C     3.07745  3.07745  0.00000 -0.15489
       3     O     4.31950  4.31950  0.00000 -0.63900
       4     H     0.41548  0.41548  0.00000  0.16903
       5     H     0.43088  0.43088  0.00000  0.13823
       6     C     2.84393  2.84393  0.00000  0.31215
       7     C     3.23308  3.23308  0.00000 -0.46616
       8     C     3.24586  3.24586  0.00000 -0.49173
       9     C     3.24704  3.24704  0.00000 -0.49408
      10     H     0.41401  0.41401  0.00000  0.17198
      11     H     0.41412  0.41412  0.00000  0.17176
      12     H     0.42517  0.42517  0.00000  0.14966
      13     H     0.41326  0.41326  0.00000  0.17349
      14     H     0.42010  0.42010  0.00000  0.15980
      15     H     0.42090  0.42090  0.00000  0.15819
      16     H     0.41317  0.41317  0.00000  0.17367
      17     H     0.41948  0.41948  0.00000  0.16103
      18     H     0.42017  0.42017  0.00000  0.15966

   Total alpha = 25.00000, Total beta = 25.00000, Total charge = -0.00000
