  ==> Input File <==

--------------------------------------------------------------------------
set {
	reference rhf
	basis 6-31G*
}

set_num_threads( 4 )
memory 2 gb

molecule MOL {
0 1

H	 -3.892951	 0.981613	 -0.358725
C	 -3.196921	 0.361773	 0.172313
C	 -2.076860	 -0.007332	 -0.404944
H	 -3.439953	 0.057760	 1.173024
O	 -1.180634	 -0.819263	 0.215062
H	 -1.811520	 0.292194	 -1.403480
C	 0.051604	 -1.018856	 -0.387932
C	 1.043764	 0.054862	 -0.001873
H	 -0.017620	 -1.041351	 -1.469781
H	 0.437898	 -1.966374	 -0.042284
F	 1.955320	 0.176319	 -0.955876
F	 0.459465	 1.232207	 0.147405
F	 1.668081	 -0.229239	 1.122362

	symmetry c1
}
set optking {
	frozen_dihedral = ("
		11 8 7 9
	")
}

ee = optimize('scf')
oeprop('DIPOLE', 'QUADRUPOLE', 'MULLIKEN_CHARGES')
f=open( 'psi4out.xyz', 'w' )
f.write( "13  " )
f.write( str(ee) + "\n" )
f.write( MOL.save_string_xyz() )
f.close()
--------------------------------------------------------------------------

    Molecular point group: c1
  Charge       = 0
  Multiplicity = 1
  Basis Set: 6-31G*
  Basis Set:
  @DF-RHF Final Energy:  -527.53266479129002
    Total Energy =                       -527.5326647912900171
    Molecular point group: c1
  Basis Set: 6-31G*
  Basis Set:
  Basis Set: 6-31G*
  Basis Set:
  @DF-RHF Final Energy:  -527.53292473568172
    Total Energy =                       -527.5329247356813767
  Basis Set: 6-31G*
  Basis Set:
  Basis Set: 6-31G*
  Basis Set:
  @DF-RHF Final Energy:  -527.53299602224502
    Total Energy =                       -527.5329960222447880
  Basis Set: 6-31G*
  Basis Set:
  Basis Set: 6-31G*
  Basis Set:
  @DF-RHF Final Energy:  -527.53300615191120
    Total Energy =                       -527.5330061519109677
  Basis Set: 6-31G*
  Basis Set:
  Basis Set: 6-31G*
  Basis Set:
  @DF-RHF Final Energy:  -527.53301306846129
    Total Energy =                       -527.5330130684616279
  Basis Set: 6-31G*
  Basis Set:
  Basis Set: 6-31G*
  Basis Set:
  @DF-RHF Final Energy:  -527.53301741798043
    Total Energy =                       -527.5330174179806590
  Basis Set: 6-31G*
  Basis Set:
  Basis Set: 6-31G*
  Basis Set:
  @DF-RHF Final Energy:  -527.53301891497244
    Total Energy =                       -527.5330189149723310
  Basis Set: 6-31G*
  Basis Set:
  Charge       = 0
  Multiplicity = 1
  Basis Set: 6-31G*
  Basis Set:

    Orbital Energies (a.u.)
    -----------------------

    Doubly Occupied:

       1A    -26.343942     2A    -26.342554     3A    -26.342329
       4A    -20.608713     5A    -11.504128     6A    -11.318746
       7A    -11.299532     8A    -11.215555     9A     -1.742106
      10A     -1.639515    11A     -1.638523    12A     -1.438727
      13A     -1.083061    14A     -1.015785    15A     -0.925710
      16A     -0.837740    17A     -0.829952    18A     -0.821924
      19A     -0.789680    20A     -0.725640    21A     -0.713867
      22A     -0.695759    23A     -0.675092    24A     -0.659823
      25A     -0.655211    26A     -0.643144    27A     -0.629692
      28A     -0.584562    29A     -0.562087    30A     -0.525815
      31A     -0.512581    32A     -0.351256

  @DF-RHF Final Energy:  -527.53301919753244

   => Energetics <=

    Nuclear Repulsion Energy =            412.5869209037998644
    One-Electron Energy =               -1548.8943817335016320
    Two-Electron Energy =                 608.7744416321693279
    DFT Exchange-Correlation Energy =       0.0000000000000000
    Empirical Dispersion Energy =           0.0000000000000000
    PCM Polarization Energy =               0.0000000000000000
    EFP Energy =                            0.0000000000000000
    Total Energy =                       -527.5330191975324396
    Molecular point group: c1
  Basis Set: 6-31G*
  Basis Set:

  -Total Gradient:
     Atom            X                  Y                   Z
    ------   -----------------  -----------------  -----------------
       1        0.000003195211     0.000000969278     0.000001282899
       2        0.000002346498     0.000003348457     0.000000914891
       3       -0.000025288907    -0.000041177799     0.000002754719
       4        0.000003259790    -0.000000975868     0.000002208865
       5       -0.000033777555     0.000016188095     0.000022818476
       6        0.000008511219     0.000002166709    -0.000008869530
       7       -0.005164468257     0.005299630438    -0.000609852207
       8        0.003778934350    -0.004598849739     0.002652315358
       9        0.003700091515    -0.003639068075    -0.000015134468
      10       -0.000023709817     0.000004582611     0.000001239481
      11       -0.002286377157     0.002948978806    -0.002074381954
      12        0.000042879057     0.000003226819     0.000020315737
      13       -0.000005595940     0.000000980278     0.000004387737

  **** Optimization is complete! (in 8 steps) ****
    Final optimized geometry and variables:
    Molecular point group: c1

    Geometry (in Angstrom), charge = 0, multiplicity = 1:

    H           -3.944547312336     0.953259453560    -0.348167348159
    C           -3.259002321034     0.314918092346     0.174491859396
    C           -2.090406015688     0.036517588817    -0.355322441806
    H           -3.550393932668    -0.078110415615     1.130400168599
    O           -1.196279067844    -0.778798802304     0.263143324736
    H           -1.777200262686     0.425282086724    -1.307951706144
    C            0.017976817162    -1.008314309607    -0.359140637211
    C            1.059971698341     0.045058298508    -0.014751254909
    H           -0.054823565402    -1.076690547521    -1.438300132461
    H            0.390136378544    -1.957151351668     0.000385417865
    F            1.979689323811     0.093070207453    -0.968291454816
    F            0.528214985098     1.250694990054     0.075601234856
    F            1.671323710177    -0.209688884709     1.125694737576

  Mulliken Charges: (a.u.)
   Center  Symbol    Alpha    Beta     Spin     Total
       1     H     0.40711  0.40711  0.00000  0.18578
       2     C     3.23709  3.23709  0.00000 -0.47419
       3     C     2.89263  2.89263  0.00000  0.21474
       4     H     0.40215  0.40215  0.00000  0.19569
       5     O     4.29998  4.29998  0.00000 -0.59996
       6     H     0.40693  0.40693  0.00000  0.18614
       7     C     3.07473  3.07473  0.00000 -0.14946
       8     C     2.45015  2.45015  0.00000  1.09970
       9     H     0.40290  0.40290  0.00000  0.19419
      10     H     0.38831  0.38831  0.00000  0.22338
      11     F     4.68403  4.68403  0.00000 -0.36807
      12     F     4.67752  4.67752  0.00000 -0.35504
      13     F     4.67645  4.67645  0.00000 -0.35291

   Total alpha = 32.00000, Total beta = 32.00000, Total charge =  0.00000
