                              Psi4 1.0.54 Driver

  ==> Input File <==

--------------------------------------------------------------------------
set {
	reference rhf
	basis cc-pvtz
}

set_num_threads( 4 )
memory 2 gb

molecule MOL {
0 1

H	 -4.230490	 0.539120	 0.036347
O	 -3.515344	 -0.019331	 -0.206334
C	 -2.302495	 0.528880	 0.237377
C	 -1.175919	 -0.398179	 -0.171904
H	 -2.148249	 1.514084	 -0.197772
H	 -2.310958	 0.646392	 1.319019
C	 0.195798	 0.106284	 0.266725
H	 -1.202104	 -0.515461	 -1.250690
H	 -1.366206	 -1.378720	 0.252651
C	 1.329989	 -0.826128	 -0.155243
H	 0.359311	 1.097237	 -0.145574
H	 0.211903	 0.218143	 1.348765
C	 2.719469	 -0.407661	 0.328312
H	 1.339157	 -0.911192	 -1.239376
H	 1.118770	 -1.821945	 0.224115
C	 3.241333	 0.893460	 -0.276750
H	 3.418068	 -1.204721	 0.093022
H	 2.711545	 -0.323360	 1.411947
H	 3.253973	 0.841079	 -1.360797
H	 2.634229	 1.745083	 0.005829
H	 4.254033	 1.092409	 0.054958

	symmetry c1
}
ee,wfn = energy('scf', return_wfn=True)
oeprop( wfn, 'DIPOLE', 'QUADRUPOLE', 'MULLIKEN_CHARGES')
oeprop( wfn, 'GRID_ESP')
f=open( 'psi4out.xyz', 'w' )
f.write( "21  " )
f.write( str(ee) + "\n" )
f.write( MOL.save_string_xyz() )
f.close()
--------------------------------------------------------------------------

    Molecular point group: c1

    Geometry (in Angstrom), charge = 0, multiplicity = 1:

       Center              X                  Y                   Z               Mass
    ------------   -----------------  -----------------  -----------------  -----------------
           H         -4.230258780471     0.539111593287     0.036359965359     1.007825032070
           O         -3.515112780471    -0.019339406713    -0.206321034641    15.994914619560
           C         -2.302263780471     0.528871593287     0.237389965359    12.000000000000
           C         -1.175687780471    -0.398187406713    -0.171891034641    12.000000000000
           H         -2.148017780471     1.514075593287    -0.197759034641     1.007825032070
           H         -2.310726780471     0.646383593287     1.319031965359     1.007825032070
           C          0.196029219529     0.106275593287     0.266737965359    12.000000000000
           H         -1.201872780471    -0.515469406713    -1.250677034641     1.007825032070
           H         -1.365974780471    -1.378728406713     0.252663965359     1.007825032070
           C          1.330220219529    -0.826136406713    -0.155230034641    12.000000000000
           H          0.359542219529     1.097228593287    -0.145561034641     1.007825032070
           H          0.212134219529     0.218134593287     1.348777965359     1.007825032070
           C          2.719700219529    -0.407669406713     0.328324965359    12.000000000000
           H          1.339388219529    -0.911200406713    -1.239363034641     1.007825032070
           H          1.119001219529    -1.821953406713     0.224127965359     1.007825032070
           C          3.241564219529     0.893451593287    -0.276737034641    12.000000000000
           H          3.418299219529    -1.204729406713     0.093034965359     1.007825032070
           H          2.711776219529    -0.323368406713     1.411959965359     1.007825032070
           H          3.254204219529     0.841070593287    -1.360784034641     1.007825032070
           H          2.634460219529     1.745074593287     0.005841965359     1.007825032070
           H          4.254264219529     1.092400593287     0.054970965359     1.007825032070

  Charge       = 0
  Multiplicity = 1
  Basis Set: CC-PVTZ
  Basis Set:

    Orbital Energies (a.u.)
    -----------------------

    Doubly Occupied:

       1A    -20.545383     2A    -11.264943     3A    -11.213208
       4A    -11.213095     5A    -11.211317     6A    -11.208958
       7A    -11.206104     8A     -1.363213     9A     -1.087418
      10A     -1.034439    11A     -0.955525    12A     -0.876439
      13A     -0.807582    14A     -0.779307    15A     -0.696176
      16A     -0.662869    17A     -0.623053    18A     -0.608266
      19A     -0.588600    20A     -0.571107    21A     -0.537573
      22A     -0.520822    23A     -0.511881    24A     -0.487577
      25A     -0.480147    26A     -0.460845    27A     -0.456139
      28A     -0.444253    29A     -0.437374

  @DF-RHF Final Energy:  -310.33305827257021

   => Energetics <=

    Nuclear Repulsion Energy =            312.9220986837555643
    One-Electron Energy =               -1040.8029704766549912
    Two-Electron Energy =                 417.5478135203293277
    DFT Exchange-Correlation Energy =       0.0000000000000000
    Empirical Dispersion Energy =           0.0000000000000000
    PCM Polarization Energy =               0.0000000000000000
    EFP Energy =                            0.0000000000000000
    Total Energy =                       -310.3330582725700424

  Mulliken Charges: (a.u.)
   Center  Symbol    Alpha    Beta     Spin     Total
       1     H     0.39762  0.39762  0.00000  0.20477
       2     O     4.19426  4.19426  0.00000 -0.38853
       3     C     2.96327  2.96327  0.00000  0.07347
       4     C     3.08382  3.08382  0.00000 -0.16765
       5     H     0.47499  0.47499  0.00000  0.05002
       6     H     0.47494  0.47494  0.00000  0.05011
       7     C     3.10324  3.10324  0.00000 -0.20649
       8     H     0.45095  0.45095  0.00000  0.09811
       9     H     0.45054  0.45054  0.00000  0.09891
      10     C     3.09427  3.09427  0.00000 -0.18853
      11     H     0.45360  0.45360  0.00000  0.09279
      12     H     0.45548  0.45548  0.00000  0.08904
      13     C     3.08986  3.08986  0.00000 -0.17971
      14     H     0.45314  0.45314  0.00000  0.09371
      15     H     0.44882  0.44882  0.00000  0.10237
      16     C     3.15236  3.15236  0.00000 -0.30471
      17     H     0.44845  0.44845  0.00000  0.10311
      18     H     0.45500  0.45500  0.00000  0.09001
      19     H     0.45463  0.45463  0.00000  0.09074
      20     H     0.45427  0.45427  0.00000  0.09146
      21     H     0.44649  0.44649  0.00000  0.10703

   Total alpha = 29.00000, Total beta = 29.00000, Total charge =  0.00000

*** Psi4 exiting successfully. Buy a developer a beer!
