                              Psi4 1.0.54 Driver

  ==> Input File <==

--------------------------------------------------------------------------
set {
	reference rhf
	basis cc-pvtz
}

set_num_threads( 4 )
memory 2 gb

molecule MOL {
0 1

O	 1.240251	 0.347017	 0.952826
C	 0.576499	 0.134701	 -0.003900
C	 -0.765656	 -0.550508	 -0.002152
O	 0.941767	 0.472651	 -1.229600
C	 -1.945526	 0.411052	 0.000603
H	 -0.794329	 -1.203792	 -0.868145
H	 -0.791555	 -1.205429	 0.862701
C	 -3.282915	 -0.321280	 0.002596
H	 -1.880300	 1.059126	 -0.864925
H	 -1.877207	 1.057892	 0.866807
H	 -3.388495	 -0.952755	 -0.873419
H	 -4.107811	 0.380864	 0.004116
H	 -3.385717	 -0.953283	 0.878571
C	 2.188284	 1.122071	 -1.379464
H	 2.201815	 2.052030	 -0.830786
H	 2.299924	 1.310646	 -2.434768
H	 2.991091	 0.492295	 -1.026016

	symmetry c1
}
set optking {
	frozen_dihedral = ("
		1 2 3 6
	")
}

ee,wfn = optimize('scf', return_wfn=True)
oeprop( wfn, 'DIPOLE', 'QUADRUPOLE', 'MULLIKEN_CHARGES')
f=open( 'psi4out.xyz', 'w' )
f.write( "17  " )
f.write( str(ee) + "\n" )
f.write( MOL.save_string_xyz() )
f.close()
--------------------------------------------------------------------------

    Molecular point group: c1
  Charge       = 0
  Multiplicity = 1
  Basis Set: CC-PVTZ
  Basis Set:
  @DF-RHF Final Energy:  -345.03357371857328
    Total Energy =                       -345.0335737185733933
    Molecular point group: c1
  Basis Set: CC-PVTZ
  Basis Set:
  Basis Set: CC-PVTZ
  Basis Set:
  @DF-RHF Final Energy:  -345.03315902178332
    Total Energy =                       -345.0331590217829216
  Basis Set: CC-PVTZ
  Basis Set:
  Basis Set: CC-PVTZ
  Basis Set:
  @DF-RHF Final Energy:  -345.03378761659161
    Total Energy =                       -345.0337876165916668
  Basis Set: CC-PVTZ
  Basis Set:
  Basis Set: CC-PVTZ
  Basis Set:
  @DF-RHF Final Energy:  -345.03422228016581
    Total Energy =                       -345.0342222801656931
  Basis Set: CC-PVTZ
  Basis Set:
  Basis Set: CC-PVTZ
  Basis Set:
  @DF-RHF Final Energy:  -345.03425102609532
    Total Energy =                       -345.0342510260956033
  Basis Set: CC-PVTZ
  Basis Set:
  Charge       = 0
  Multiplicity = 1
  Basis Set: CC-PVTZ
  Basis Set:

    Orbital Energies (a.u.)
    -----------------------

    Doubly Occupied:

       1A    -20.597492     2A    -20.532676     3A    -11.363606
       4A    -11.278667     5A    -11.232706     6A    -11.230584
       7A    -11.216959     8A     -1.472016     9A     -1.364800
      10A     -1.085629    11A     -1.000560    12A     -0.942371
      13A     -0.831088    14A     -0.776096    15A     -0.699664
      16A     -0.683227    17A     -0.676343    18A     -0.638090
      19A     -0.596925    20A     -0.582470    21A     -0.552527
      22A     -0.545603    23A     -0.527657    24A     -0.508991
      25A     -0.489356    26A     -0.485226    27A     -0.458288
      28A     -0.435375

  @DF-RHF Final Energy:  -345.03425248900663

   => Energetics <=

    Nuclear Repulsion Energy =            314.5761866139868630
    One-Electron Energy =               -1093.6108931570774985
    Two-Electron Energy =                 434.0004540540835478
    DFT Exchange-Correlation Energy =       0.0000000000000000
    Empirical Dispersion Energy =           0.0000000000000000
    PCM Polarization Energy =               0.0000000000000000
    EFP Energy =                            0.0000000000000000
    Total Energy =                       -345.0342524890070308
    Molecular point group: c1
  Basis Set: CC-PVTZ
  Basis Set:

  -Total Gradient:
     Atom            X                  Y                   Z
    ------   -----------------  -----------------  -----------------
       1       -0.000094245099     0.000077011841    -0.000054008026
       2        0.000173577135    -0.000141460369     0.000242727507
       3       -0.000021877586     0.000013081980    -0.000021938289
       4       -0.000016371435     0.000056008035    -0.000205036332
       5        0.000024143057     0.000009280266     0.000011811113
       6       -0.000024733513     0.000034073070    -0.000046118855
       7        0.000017777931    -0.000026322906     0.000033231888
       8       -0.000002859673    -0.000021168210    -0.000003635276
       9       -0.000003566724     0.000022028709    -0.000019852196
      10       -0.000008061153     0.000025586501     0.000011803236
      11       -0.000005006201    -0.000020793622    -0.000016541355
      12       -0.000012207346     0.000024940758    -0.000003456287
      13       -0.000002551579    -0.000018196139     0.000024169647
      14       -0.000000553663    -0.000020503166     0.000035036106
      15       -0.000018443509     0.000014884551     0.000009084192
      16       -0.000023196676    -0.000007549435    -0.000005533462
      17        0.000018176039    -0.000020901862     0.000008256390

  **** Optimization is complete! (in 6 steps) ****
    Final optimized geometry and variables:
    Molecular point group: c1

    Geometry (in Angstrom), charge = 0, multiplicity = 1:

    O            1.387664530569     0.245699078211     1.148928065253
    C            0.720781292978    -0.071101544020     0.223095995984
    C           -0.548843006721    -0.875390601953     0.315783375551
    O            1.001162877970     0.273324329712    -1.023315433647
    C           -1.788952723723     0.024582699015     0.266318035059
    H           -0.577252571438    -1.584189077424    -0.502516173295
    H           -0.518986239791    -1.419740949204     1.249205141142
    C           -3.082316401319    -0.773193228195     0.385308368165
    H           -1.788457870610     0.583701550433    -0.662488806739
    H           -1.732201825108     0.749316322281     1.071556715045
    H           -3.177207244003    -1.488287183552    -0.424755726102
    H           -3.944698945964    -0.118169697357     0.352073848004
    H           -3.118806193045    -1.322864401259     1.319492203400
    C            2.149733572364     1.069925506129    -1.232635303656
    H            2.063681935352     2.008587788822    -0.705573739465
    H            2.202558802097     1.242803519092    -2.295306894051
    H            3.036563513343     0.555441446943    -0.893621103269

  Mulliken Charges: (a.u.)
   Center  Symbol    Alpha    Beta     Spin     Total
       1     O     4.20206  4.20206  0.00000 -0.40412
       2     C     2.80593  2.80593  0.00000  0.38814
       3     C     3.07781  3.07781  0.00000 -0.15563
       4     O     4.15037  4.15037  0.00000 -0.30074
       5     C     3.09343  3.09343  0.00000 -0.18687
       6     H     0.44565  0.44565  0.00000  0.10870
       7     H     0.43897  0.43897  0.00000  0.12205
       8     C     3.15115  3.15115  0.00000 -0.30231
       9     H     0.44621  0.44621  0.00000  0.10759
      10     H     0.44533  0.44533  0.00000  0.10933
      11     H     0.45416  0.45416  0.00000  0.09168
      12     H     0.44615  0.44615  0.00000  0.10770
      13     H     0.45284  0.45284  0.00000  0.09432
      14     C     3.03708  3.03708  0.00000 -0.07416
      15     H     0.45454  0.45454  0.00000  0.09091
      16     H     0.44549  0.44549  0.00000  0.10901
      17     H     0.45281  0.45281  0.00000  0.09438

   Total alpha = 28.00000, Total beta = 28.00000, Total charge = -0.00000

*** Psi4 exiting successfully. Buy a developer a beer!
