  ==> Input File <==

--------------------------------------------------------------------------
set {
	reference rhf
	basis 6-31G*
}

set_num_threads( 4 )
memory 2 gb

molecule MOL {
0 1

H	 1.136379	 0.211822	 1.465562
C	 1.135357	 0.094285	 0.374742
C	 0.065331	 0.871482	 -0.349150
O	 1.941633	 -0.601957	 -0.151457
C	 -1.164872	 1.134065	 0.531266
H	 -0.200114	 0.330313	 -1.250032
H	 0.503667	 1.823180	 -0.646293
C	 -1.934944	 -0.137798	 0.888723
H	 -1.822736	 1.820356	 0.007596
H	 -0.855946	 1.644814	 1.440849
H	 -2.282920	 -0.645374	 -0.005596
H	 -2.801440	 0.094277	 1.499168
H	 -1.318954	 -0.838967	 1.443978

	symmetry c1
}
set optking {
	frozen_dihedral = ("
		6 3 2 4
	")
}

ee = optimize('scf')
oeprop('DIPOLE', 'QUADRUPOLE', 'MULLIKEN_CHARGES')
f=open( 'psi4out.xyz', 'w' )
f.write( "13  " )
f.write( str(ee) + "\n" )
f.write( MOL.save_string_xyz() )
f.close()
--------------------------------------------------------------------------

    Molecular point group: c1
  Charge       = 0
  Multiplicity = 1
  Basis Set: 6-31G*
  Basis Set:
  @DF-RHF Final Energy:  -230.98389167988236
    Total Energy =                       -230.9838916798823050
    Molecular point group: c1
  Basis Set: 6-31G*
  Basis Set:
  Basis Set: 6-31G*
  Basis Set:
  @DF-RHF Final Energy:  -230.98225304526443
    Total Energy =                       -230.9822530452646561
  Basis Set: 6-31G*
  Basis Set:
  Basis Set: 6-31G*
  Basis Set:
  @DF-RHF Final Energy:  -230.98402205082238
    Total Energy =                       -230.9840220508222615
  Basis Set: 6-31G*
  Basis Set:
  Basis Set: 6-31G*
  Basis Set:
  @DF-RHF Final Energy:  -230.98407143583947
    Total Energy =                       -230.9840714358394109
  Basis Set: 6-31G*
  Basis Set:
  Basis Set: 6-31G*
  Basis Set:
  @DF-RHF Final Energy:  -230.98404905698948
    Total Energy =                       -230.9840490569895337
  Basis Set: 6-31G*
  Basis Set:
  Basis Set: 6-31G*
  Basis Set:
  @DF-RHF Final Energy:  -230.98407441143380
    Total Energy =                       -230.9840744114338236
  Basis Set: 6-31G*
  Basis Set:
  Basis Set: 6-31G*
  Basis Set:
  @DF-RHF Final Energy:  -230.98407547491445
    Total Energy =                       -230.9840754749146186
  Basis Set: 6-31G*
  Basis Set:
  Charge       = 0
  Multiplicity = 1
  Basis Set: 6-31G*
  Basis Set:

    Orbital Energies (a.u.)
    -----------------------

    Doubly Occupied:

       1A    -20.562324     2A    -11.327858     3A    -11.237489
       4A    -11.236179     5A    -11.223947     6A     -1.402966
       7A     -1.087617     8A     -0.972610     9A     -0.848462
      10A     -0.791612    11A     -0.659407    12A     -0.648293
      13A     -0.634523    14A     -0.593488    15A     -0.566172
      16A     -0.529054    17A     -0.508463    18A     -0.493242
      19A     -0.482262    20A     -0.410371

  @DF-RHF Final Energy:  -230.98407559393610

   => Energetics <=

    Nuclear Repulsion Energy =            172.8655387299405675
    One-Electron Energy =                -655.2665495372471014
    Two-Electron Energy =                 251.4169352133706354
    DFT Exchange-Correlation Energy =       0.0000000000000000
    Empirical Dispersion Energy =           0.0000000000000000
    PCM Polarization Energy =               0.0000000000000000
    EFP Energy =                            0.0000000000000000
    Total Energy =                       -230.9840755939358985
    Molecular point group: c1
  Basis Set: 6-31G*
  Basis Set:

  -Total Gradient:
     Atom            X                  Y                   Z
    ------   -----------------  -----------------  -----------------
       1        0.000016098247     0.000026833008     0.000004751493
       2       -0.001307855438    -0.001639229069     0.000303937546
       3        0.001393058155     0.001208772974    -0.000800087191
       4        0.000771216155     0.001017013909    -0.000118255310
       5       -0.000052953989    -0.000006135333    -0.000032243853
       6       -0.000826487933    -0.000605450258     0.000610803268
       7       -0.000004468118    -0.000026341250    -0.000005877197
       8        0.000018541835     0.000030740214     0.000011087695
       9       -0.000018024140     0.000010144820     0.000019351415
      10       -0.000006773749    -0.000021900252     0.000005946015
      11        0.000012652198     0.000010395455    -0.000007411176
      12       -0.000001659649     0.000005501924    -0.000005769643
      13        0.000006656422    -0.000010346141     0.000013766939

  **** Optimization is complete! (in 8 steps) ****
    Final optimized geometry and variables:
    Molecular point group: c1

    Geometry (in Angstrom), charge = 0, multiplicity = 1:

    H            1.183858646592    -0.027050634420     1.205529351023
    C            1.140771854324    -0.162547611413     0.117869507614
    C            0.052964995351     0.606710081020    -0.596173866666
    O            1.943395636360    -0.845635486434    -0.430149490111
    C           -1.178695643815     0.876244664983     0.272659188538
    H           -0.211209697719     0.060014264383    -1.495100942279
    H            0.497922157150     1.548760818483    -0.912701272464
    C           -1.957587759011    -0.392726857200     0.622310939120
    H           -1.832171712021     1.566444590146    -0.251505560163
    H           -0.873878974220     1.382731559562     1.186067661896
    H           -2.305475929205    -0.894459605576    -0.275650689919
    H           -2.825022815532    -0.161198222583     1.231460958019
    H           -1.347551693077    -1.100124073854     1.177517128599

  Mulliken Charges: (a.u.)
   Center  Symbol    Alpha    Beta     Spin     Total
       1     H     0.43063  0.43063  0.00000  0.13875
       2     C     2.83418  2.83418  0.00000  0.33165
       3     C     3.20742  3.20742  0.00000 -0.41483
       4     O     4.23897  4.23897  0.00000 -0.47794
       5     C     3.16604  3.16604  0.00000 -0.33208
       6     H     0.39913  0.39913  0.00000  0.20174
       7     H     0.40062  0.40062  0.00000  0.19876
       8     C     3.24297  3.24297  0.00000 -0.48594
       9     H     0.41199  0.41199  0.00000  0.17603
      10     H     0.41885  0.41885  0.00000  0.16230
      11     H     0.41613  0.41613  0.00000  0.16775
      12     H     0.41414  0.41414  0.00000  0.17173
      13     H     0.41894  0.41894  0.00000  0.16211

   Total alpha = 20.00000, Total beta = 20.00000, Total charge = -0.00000
