  ==> Input File <==

--------------------------------------------------------------------------
set {
	reference rhf
	basis 6-31G*
}

set_num_threads( 4 )
memory 2 gb

molecule MOL {
0 1

H	 2.845955	 -0.323208	 0.022310
C	 1.900140	 0.071967	 -0.330070
C	 0.778463	 -0.508087	 0.517968
H	 1.782469	 -0.206877	 -1.370777
H	 1.922247	 1.149867	 -0.254252
N	 -0.540928	 0.005139	 0.058438
H	 0.716718	 -1.581298	 0.454712
H	 0.859711	 -0.198647	 1.550086
O	 -0.716634	 0.106396	 -1.115508
O	 -1.337122	 0.280179	 0.903972

	symmetry c1
}
set optking {
	frozen_dihedral = ("
		9 6 3 2
	")
}

ee = optimize('scf')
oeprop('DIPOLE', 'QUADRUPOLE', 'MULLIKEN_CHARGES')
f=open( 'psi4out.xyz', 'w' )
f.write( "10  " )
f.write( str(ee) + "\n" )
f.write( MOL.save_string_xyz() )
f.close()
--------------------------------------------------------------------------

    Molecular point group: c1
  Charge       = 0
  Multiplicity = 1
  Basis Set: 6-31G*
  Basis Set:
  @DF-RHF Final Energy:  -282.70002292375921
    Total Energy =                       -282.7000229237593203
    Molecular point group: c1
  Basis Set: 6-31G*
  Basis Set:
  Basis Set: 6-31G*
  Basis Set:
  @DF-RHF Final Energy:  -282.69610217566719
    Total Energy =                       -282.6961021756673063
  Basis Set: 6-31G*
  Basis Set:
  Basis Set: 6-31G*
  Basis Set:
  @DF-RHF Final Energy:  -282.70012131631250
    Total Energy =                       -282.7001213163124476
  Basis Set: 6-31G*
  Basis Set:
  Basis Set: 6-31G*
  Basis Set:
  @DF-RHF Final Energy:  -282.70044753042612
    Total Energy =                       -282.7004475304260609
  Basis Set: 6-31G*
  Basis Set:
  Basis Set: 6-31G*
  Basis Set:
  @DF-RHF Final Energy:  -282.70045198143936
    Total Energy =                       -282.7004519814394712
  Basis Set: 6-31G*
  Basis Set:
  Charge       = 0
  Multiplicity = 1
  Basis Set: 6-31G*
  Basis Set:

    Orbital Energies (a.u.)
    -----------------------

    Doubly Occupied:

       1A    -20.603323     2A    -20.602164     3A    -15.849559
       4A    -11.304626     5A    -11.248486     6A     -1.633074
       7A     -1.418509     8A     -1.126213     9A     -0.967421
      10A     -0.835190    11A     -0.761733    12A     -0.742752
      13A     -0.726640    14A     -0.647585    15A     -0.591833
      16A     -0.563980    17A     -0.541151    18A     -0.486451
      19A     -0.478301    20A     -0.450746

  @DF-RHF Final Energy:  -282.70045404424468

   => Energetics <=

    Nuclear Repulsion Energy =            186.0973446326195244
    One-Electron Energy =                -754.4361256185610500
    Two-Electron Energy =                 285.6383269416969028
    DFT Exchange-Correlation Energy =       0.0000000000000000
    Empirical Dispersion Energy =           0.0000000000000000
    PCM Polarization Energy =               0.0000000000000000
    EFP Energy =                            0.0000000000000000
    Total Energy =                       -282.7004540442446228
    Molecular point group: c1
  Basis Set: 6-31G*
  Basis Set:

  -Total Gradient:
     Atom            X                  Y                   Z
    ------   -----------------  -----------------  -----------------
       1        0.000012990415     0.000002400168    -0.000004853021
       2        0.000001088705    -0.000065839992    -0.000064097778
       3        0.000028785416     0.000134554795     0.000075056951
       4        0.000002359207     0.000007902270     0.000008884140
       5        0.000006921716    -0.000004771243    -0.000005652490
       6       -0.000054321455    -0.000200186099    -0.000144903411
       7       -0.000008778937    -0.000004248537     0.000004223723
       8       -0.000013627816     0.000005439383    -0.000007262182
       9        0.000069078629     0.000108809185     0.000077569383
      10       -0.000044495880     0.000015940066     0.000061034685

  **** Optimization is complete! (in 6 steps) ****
    Final optimized geometry and variables:
    Molecular point group: c1

    Geometry (in Angstrom), charge = 0, multiplicity = 1:

    H            2.858270266353    -0.316056420955     0.039783036541
    C            1.919304827382     0.071316263054    -0.339420614398
    C            0.788760956280    -0.485094493845     0.506941818078
    H            1.813158616027    -0.221230543823    -1.373791756238
    H            1.951643649328     1.152976162845    -0.284508580483
    N           -0.542297073282     0.016050670872     0.061015041454
    H            0.716606674513    -1.561661580762     0.423645076675
    H            0.863108706348    -0.215005023881     1.547003920560
    O           -0.734605126973     0.103846922964    -1.112569287886
    O           -1.339175142206     0.265685660988     0.911284079400

  Mulliken Charges: (a.u.)
   Center  Symbol    Alpha    Beta     Spin     Total
       1     H     0.40798  0.40798  0.00000  0.18403
       2     C     3.25424  3.25424  0.00000 -0.50849
       3     C     3.09518  3.09518  0.00000 -0.19035
       4     H     0.39313  0.39313  0.00000  0.21374
       5     H     0.40397  0.40397  0.00000  0.19205
       6     N     3.21859  3.21859  0.00000  0.56282
       7     H     0.38529  0.38529  0.00000  0.22942
       8     H     0.38488  0.38488  0.00000  0.23024
       9     O     4.22891  4.22891  0.00000 -0.45782
      10     O     4.22782  4.22782  0.00000 -0.45565

   Total alpha = 20.00000, Total beta = 20.00000, Total charge =  0.00000
