                              Psi4 1.0.54 Driver

  ==> Input File <==

--------------------------------------------------------------------------
set {
	reference rhf
	basis cc-pvtz
}

set_num_threads( 4 )
memory 2 gb

molecule MOL {
0 1

O	 -2.440701	 -0.934798	 -0.415053
C	 -1.922978	 0.063265	 -0.045005
C	 -2.632749	 1.372204	 0.158357
O	 -0.637375	 0.157174	 0.243149
H	 -2.187724	 2.129143	 -0.474664
H	 -3.677681	 1.257276	 -0.079438
H	 -2.516788	 1.693160	 1.185542
C	 0.162530	 -1.009518	 0.097799
C	 1.587210	 -0.664190	 0.477086
H	 0.096803	 -1.356267	 -0.924704
H	 -0.233803	 -1.785900	 0.736810
C	 2.256770	 0.342732	 -0.454344
H	 2.154716	 -1.590834	 0.479041
H	 1.598751	 -0.289614	 1.496104
C	 2.218437	 1.765730	 0.092669
H	 3.289587	 0.045949	 -0.616537
H	 1.772014	 0.313787	 -1.423373
H	 2.703384	 2.458338	 -0.585201
H	 2.723304	 1.832783	 1.050795
H	 1.196979	 2.102762	 0.234263

	symmetry c1
}
set optking {
	frozen_dihedral = ("
		16 12 9 8
	")
}

ee,wfn = optimize('scf', return_wfn=True)
oeprop( wfn, 'DIPOLE', 'QUADRUPOLE', 'MULLIKEN_CHARGES')
f=open( 'psi4out.xyz', 'w' )
f.write( "20  " )
f.write( str(ee) + "\n" )
f.write( MOL.save_string_xyz() )
f.close()
--------------------------------------------------------------------------

    Molecular point group: c1
  Charge       = 0
  Multiplicity = 1
  Basis Set: CC-PVTZ
  Basis Set:
  @DF-RHF Final Energy:  -384.08300406305352
    Total Energy =                       -384.0830040630530675
    Molecular point group: c1
  Basis Set: CC-PVTZ
  Basis Set:
  Basis Set: CC-PVTZ
  Basis Set:
  @DF-RHF Final Energy:  -384.08337570336988
    Total Energy =                       -384.0833757033697111
  Basis Set: CC-PVTZ
  Basis Set:
  Basis Set: CC-PVTZ
  Basis Set:
  @DF-RHF Final Energy:  -384.08333176058142
    Total Energy =                       -384.0833317605815864
  Basis Set: CC-PVTZ
  Basis Set:
  Basis Set: CC-PVTZ
  Basis Set:
  @DF-RHF Final Energy:  -384.08340983347057
    Total Energy =                       -384.0834098334705686
  Basis Set: CC-PVTZ
  Basis Set:
  Basis Set: CC-PVTZ
  Basis Set:
  @DF-RHF Final Energy:  -384.08344214866793
    Total Energy =                       -384.0834421486680412
  Basis Set: CC-PVTZ
  Basis Set:
  Basis Set: CC-PVTZ
  Basis Set:
  @DF-RHF Final Energy:  -384.08344412276602
    Total Energy =                       -384.0834441227659681
  Basis Set: CC-PVTZ
  Basis Set:
  Charge       = 0
  Multiplicity = 1
  Basis Set: CC-PVTZ
  Basis Set:

    Orbital Energies (a.u.)
    -----------------------

    Doubly Occupied:

       1A    -20.594832     2A    -20.533258     3A    -11.367201
       4A    -11.280543     5A    -11.232214     6A    -11.223978
       7A    -11.220029     8A    -11.207631     9A     -1.471530
      10A     -1.365709    11A     -1.085029    12A     -1.028091
      13A     -0.981696    14A     -0.884791    15A     -0.807144
      16A     -0.778629    17A     -0.693870    18A     -0.688721
      19A     -0.670319    20A     -0.620029    21A     -0.604089
      22A     -0.597593    23A     -0.575727    24A     -0.556143
      25A     -0.540760    26A     -0.534765    27A     -0.512285
      28A     -0.480948    29A     -0.477075    30A     -0.469127
      31A     -0.452175    32A     -0.441680

  @DF-RHF Final Energy:  -384.08344497319769

   => Energetics <=

    Nuclear Repulsion Energy =            392.4147166981960595
    One-Electron Energy =               -1301.0410989471065477
    Two-Electron Energy =                 524.5429372757121200
    DFT Exchange-Correlation Energy =       0.0000000000000000
    Empirical Dispersion Energy =           0.0000000000000000
    PCM Polarization Energy =               0.0000000000000000
    EFP Energy =                            0.0000000000000000
    Total Energy =                       -384.0834449731983113
    Molecular point group: c1
  Basis Set: CC-PVTZ
  Basis Set:

  -Total Gradient:
     Atom            X                  Y                   Z
    ------   -----------------  -----------------  -----------------
       1        0.000031864618     0.000034321862     0.000036292627
       2       -0.000000060556     0.000059857793    -0.000030883581
       3       -0.000016384107    -0.000006457421    -0.000012221539
       4       -0.000040140290    -0.000015822960    -0.000005479678
       5       -0.000008145644    -0.000033649895     0.000030800092
       6        0.000005631485     0.000012864158     0.000008051911
       7       -0.000004787546    -0.000017735596    -0.000029186452
       8        0.000434150299    -0.000949855888    -0.000748535397
       9       -0.000683666000     0.001103474062     0.000762799434
      10       -0.000002474712    -0.000007464086    -0.000005717889
      11        0.000008798458     0.000009973709    -0.000005791842
      12        0.000765987492     0.000710900046     0.001360476078
      13        0.000011550498     0.000007285115     0.000002705848
      14        0.000001913229    -0.000002588857    -0.000001568271
      15       -0.000014607406    -0.000002344091     0.000012621486
      16       -0.000500617918    -0.000895461123    -0.001368303654
      17        0.000001234924    -0.000008100808    -0.000010242519
      18        0.000001586410    -0.000004298974     0.000000706273
      19        0.000002856546     0.000006380642     0.000004893151
      20        0.000005310219    -0.000001277690    -0.000001416074

  **** Optimization is complete! (in 7 steps) ****
    Final optimized geometry and variables:
    Molecular point group: c1

    Geometry (in Angstrom), charge = 0, multiplicity = 1:

    O           -2.252893703226    -1.088333682844    -0.435926976321
    C           -1.738021724127    -0.084671590668    -0.077744442321
    C           -2.449191545207     1.226913555199     0.099576423718
    O           -0.453792813386     0.013057480276     0.216933545524
    H           -2.003193273717     1.971956450744    -0.546664940596
    H           -3.493397321598     1.106940469675    -0.138825308591
    H           -2.335998060708     1.566936707610     1.120802970791
    C            0.344813680992    -1.157466707323     0.093803498289
    C            1.774684164108    -0.822426722719     0.464259377338
    H            0.279987483018    -1.519620377753    -0.923127010361
    H           -0.055057629901    -1.922733616070     0.744131805331
    C            2.456501841608     0.210189071726    -0.449469868317
    H            2.320230668685    -1.759877157450     0.423893002506
    H            1.810037619117    -0.491934302542     1.497140071444
    C            2.437915349975     1.636697105646     0.092141385205
    H            3.483864370253    -0.092608898907    -0.619907414092
    H            1.981577507364     0.191016268830    -1.426040454034
    H            2.921976693408     2.318568125677    -0.597965732584
    H            2.964764892840     1.697310156613     1.038750473826
    H            1.425232580150     1.982675001290     0.253337517765

  Mulliken Charges: (a.u.)
   Center  Symbol    Alpha    Beta     Spin     Total
       1     O     4.19750  4.19750  0.00000 -0.39500
       2     C     2.80791  2.80791  0.00000  0.38418
       3     C     3.14136  3.14136  0.00000 -0.28273
       4     O     4.15387  4.15387  0.00000 -0.30773
       5     H     0.44590  0.44590  0.00000  0.10819
       6     H     0.43594  0.43594  0.00000  0.12813
       7     H     0.44525  0.44525  0.00000  0.10949
       8     C     2.99211  2.99211  0.00000  0.01577
       9     C     3.09256  3.09256  0.00000 -0.18511
      10     H     0.45168  0.45168  0.00000  0.09665
      11     H     0.44473  0.44473  0.00000  0.11054
      12     C     3.08835  3.08835  0.00000 -0.17670
      13     H     0.44511  0.44511  0.00000  0.10978
      14     H     0.45232  0.45232  0.00000  0.09537
      15     C     3.14770  3.14770  0.00000 -0.29540
      16     H     0.44737  0.44737  0.00000  0.10526
      17     H     0.45452  0.45452  0.00000  0.09096
      18     H     0.45015  0.45015  0.00000  0.09970
      19     H     0.45649  0.45649  0.00000  0.08702
      20     H     0.44918  0.44918  0.00000  0.10164

   Total alpha = 32.00000, Total beta = 32.00000, Total charge = -0.00000

*** Psi4 exiting successfully. Buy a developer a beer!
