  ==> Input File <==

--------------------------------------------------------------------------
set {
	reference rhf
	basis 6-31G*
}

set_num_threads( 1 )
memory 2 gb

molecule MOL {
0 1

O	 -1.278516	 0.323016	 -1.047694
C	 -1.083277	 0.139568	 0.115197
C	 0.323299	 -0.082943	 0.642902
C	 -2.218431	 0.093871	 1.113779
C	 1.355627	 -0.005344	 -0.493127
H	 0.396251	 -1.044647	 1.143147
H	 0.528637	 0.693580	 1.371677
C	 2.786168	 -0.195604	 0.007473
H	 1.132807	 -0.760304	 -1.243899
H	 1.259610	 0.958506	 -0.981915
H	 3.495561	 -0.130713	 -0.811210
H	 2.912696	 -1.165395	 0.480041
H	 3.049284	 0.565503	 0.735850
H	 -2.162378	 -0.805679	 1.719861
H	 -3.167322	 0.130228	 0.597039
H	 -2.143546	 0.941143	 1.790334

	symmetry c1
}
set optking {
	frozen_dihedral = ("
		9 5 3 2
	")
}

ee = energy('scf')
oeprop('DIPOLE', 'QUADRUPOLE', 'MULLIKEN_CHARGES')
f=open( 'psi4out.xyz', 'w' )
f.write( "16  " )
f.write( str(ee) + "\n" )
f.write( MOL.save_string_xyz() )
f.close()
--------------------------------------------------------------------------

    Molecular point group: c1

    Geometry (in Angstrom), charge = 0, multiplicity = 1:

       Center              X                  Y                   Z               Mass
    ------------   -----------------  -----------------  -----------------  -----------------
           O         -1.265201315098     0.277257519865    -1.102477675237    15.994914619560
           C         -1.069962315098     0.093809519865     0.060413324763    12.000000000000
           C          0.336613684902    -0.128701480135     0.588118324763    12.000000000000
           C         -2.205116315098     0.048112519865     1.058995324763    12.000000000000
           C          1.368941684902    -0.051102480135    -0.547910675237    12.000000000000
           H          0.409565684902    -1.090405480135     1.088363324763     1.007825032070
           H          0.541951684902     0.647821519865     1.316893324763     1.007825032070
           C          2.799482684902    -0.241362480135    -0.047310675237    12.000000000000
           H          1.146121684902    -0.806062480135    -1.298682675237     1.007825032070
           H          1.272924684902     0.912747519865    -1.036698675237     1.007825032070
           H          3.508875684902    -0.176471480135    -0.865993675237     1.007825032070
           H          2.926010684902    -1.211153480135     0.425257324763     1.007825032070
           H          3.062598684902     0.519744519865     0.681066324763     1.007825032070
           H         -2.149063315098    -0.851437480135     1.665077324763     1.007825032070
           H         -3.154007315098     0.084469519865     0.542255324763     1.007825032070
           H         -2.130231315098     0.895384519865     1.735550324763     1.007825032070

  Charge       = 0
  Multiplicity = 1
  Basis Set: 6-31G*
  Basis Set:

    Orbital Energies (a.u.)
    -----------------------

    Doubly Occupied:

       1A    -20.550709     2A    -11.326558     3A    -11.231683
       4A    -11.229454     5A    -11.217774     6A    -11.211414
       7A     -1.396631     8A     -1.074238     9A     -1.015352
      10A     -0.946717    11A     -0.820233    12A     -0.731913
      13A     -0.655455    14A     -0.651774    15A     -0.624828
      16A     -0.597569    17A     -0.566895    18A     -0.558335
      19A     -0.548888    20A     -0.494313    21A     -0.489978
      22A     -0.479139    23A     -0.477056    24A     -0.402273

  @DF-RHF Final Energy:  -270.03126309811387

   => Energetics <=

    Nuclear Repulsion Energy =            237.3835035663122142
    One-Electron Energy =                -836.2312308010007200
    Two-Electron Energy =                 328.8164641365748366
    DFT Exchange-Correlation Energy =       0.0000000000000000
    Empirical Dispersion Energy =           0.0000000000000000
    PCM Polarization Energy =               0.0000000000000000
    EFP Energy =                            0.0000000000000000
    Total Energy =                       -270.0312630981136408

  Mulliken Charges: (a.u.)
   Center  Symbol    Alpha    Beta     Spin     Total
       1     O     4.26028  4.26028  0.00000 -0.52056
       2     C     2.73742  2.73742  0.00000  0.52516
       3     C     3.20973  3.20973  0.00000 -0.41947
       4     C     3.28574  3.28574  0.00000 -0.57148
       5     C     3.14796  3.14796  0.00000 -0.29593
       6     H     0.40841  0.40841  0.00000  0.18319
       7     H     0.41001  0.41001  0.00000  0.17997
       8     C     3.24126  3.24126  0.00000 -0.48252
       9     H     0.41175  0.41175  0.00000  0.17651
      10     H     0.41139  0.41139  0.00000  0.17722
      11     H     0.41617  0.41617  0.00000  0.16765
      12     H     0.42331  0.42331  0.00000  0.15338
      13     H     0.42336  0.42336  0.00000  0.15328
      14     H     0.40952  0.40952  0.00000  0.18096
      15     H     0.39631  0.39631  0.00000  0.20738
      16     H     0.40737  0.40737  0.00000  0.18526

   Total alpha = 24.00000, Total beta = 24.00000, Total charge =  0.00000
