                              Psi4 1.0.54 Driver

  ==> Input File <==

--------------------------------------------------------------------------
set {
	reference rhf
	basis cc-pvtz
}

set_num_threads( 4 )
memory 2 gb

molecule MOL {
0 1

H	 -0.428436	 0.356817	 -2.440455
C	 0.062361	 1.128665	 -1.832008
C	 0.062554	 0.862911	 -0.350953
O	 0.545238	 2.073828	 -2.352249
C	 -1.339253	 0.577611	 0.196911
H	 0.521151	 1.705461	 0.150338
H	 0.693752	 -0.008113	 -0.189769
C	 -1.813142	 -0.849710	 -0.061612
H	 -2.032833	 1.276441	 -0.256032
H	 -1.357249	 0.782269	 1.263793
H	 -1.839268	 -1.063526	 -1.124230
H	 -2.810118	 -1.001930	 0.334000
H	 -1.159274	 -1.579980	 0.402282

	symmetry c1
}
set optking {
	frozen_dihedral = ("
		6 3 5 9
	")
}

ee,wfn = optimize('scf', return_wfn=True)
oeprop( wfn, 'DIPOLE', 'QUADRUPOLE', 'MULLIKEN_CHARGES')
f=open( 'psi4out.xyz', 'w' )
f.write( "13  " )
f.write( str(ee) + "\n" )
f.write( MOL.save_string_xyz() )
f.close()
--------------------------------------------------------------------------

    Molecular point group: c1
  Charge       = 0
  Multiplicity = 1
  Basis Set: CC-PVTZ
  Basis Set:
  @DF-RHF Final Energy:  -231.06832497021179
    Total Energy =                       -231.0683249702119610
    Molecular point group: c1
  Basis Set: CC-PVTZ
  Basis Set:
  Basis Set: CC-PVTZ
  Basis Set:
  @DF-RHF Final Energy:  -231.06830307270815
    Total Energy =                       -231.0683030727080052
  Basis Set: CC-PVTZ
  Basis Set:
  Basis Set: CC-PVTZ
  Basis Set:
  @DF-RHF Final Energy:  -231.06559972570687
    Total Energy =                       -231.0655997257067611
  Basis Set: CC-PVTZ
  Basis Set:
  Basis Set: CC-PVTZ
  Basis Set:
  @DF-RHF Final Energy:  -231.06851333393755
    Total Energy =                       -231.0685133339375739
  Basis Set: CC-PVTZ
  Basis Set:
  @DF-RHF Final Energy:  -231.06860525822313
    Total Energy =                       -231.0686052582231582
  @DF-RHF Final Energy:  -231.06860983347121
    Total Energy =                       -231.0686098334711858
  @DF-RHF Final Energy:  -231.06861273987266
    Total Energy =                       -231.0686127398725773
  Basis Set: CC-PVTZ
  Basis Set:
  @DF-RHF Final Energy:  -231.06861511502859
    Total Energy =                       -231.0686151150285923
  Basis Set: CC-PVTZ
  Basis Set:
  Basis Set: CC-PVTZ
  Basis Set:
  @DF-RHF Final Energy:  -231.06861665930316
    Total Energy =                       -231.0686166593032453
  Basis Set: CC-PVTZ
  Basis Set:
  Basis Set: CC-PVTZ
  Basis Set:
  @DF-RHF Final Energy:  -231.06861766720041
    Total Energy =                       -231.0686176672004990
  Basis Set: CC-PVTZ
  Basis Set:
  Charge       = 0
  Multiplicity = 1
  Basis Set: CC-PVTZ
  Basis Set:

    Orbital Energies (a.u.)
    -----------------------

    Doubly Occupied:

       1A    -20.551760     2A    -11.321566     3A    -11.237397
       4A    -11.234624     5A    -11.223909     6A     -1.406644
       7A     -1.087670     8A     -0.975259     9A     -0.851238
      10A     -0.789170    11A     -0.677056    12A     -0.652876
      13A     -0.605152    14A     -0.600058    15A     -0.583685
      16A     -0.530621    17A     -0.507134    18A     -0.494697
      19A     -0.486657    20A     -0.411961

  @DF-RHF Final Energy:  -231.06861776914843

   => Energetics <=

    Nuclear Repulsion Energy =            172.2812835712072683
    One-Electron Energy =                -654.2415318326495708
    Two-Electron Energy =                 250.8916304922938139
    DFT Exchange-Correlation Energy =       0.0000000000000000
    Empirical Dispersion Energy =           0.0000000000000000
    PCM Polarization Energy =               0.0000000000000000
    EFP Energy =                            0.0000000000000000
    Total Energy =                       -231.0686177691484886
    Molecular point group: c1
  Basis Set: CC-PVTZ
  Basis Set:

  -Total Gradient:
     Atom            X                  Y                   Z
    ------   -----------------  -----------------  -----------------
       1        0.000010905599     0.000016385379    -0.000004954953
       2       -0.000002168458    -0.000011654574     0.000013211038
       3       -0.000880266340     0.000981942493    -0.001478966073
       4       -0.000006162621    -0.000006524732    -0.000009393493
       5        0.000503417966     0.000896049498     0.001628946298
       6        0.000638336149    -0.000947677584     0.000968866729
       7        0.000001200902    -0.000004226230    -0.000000317686
       8        0.000000889821    -0.000008640395    -0.000002755137
       9       -0.000268070822    -0.000917390078    -0.001116416509
      10        0.000001290690     0.000000331368    -0.000000038655
      11       -0.000000223546     0.000000426359     0.000000973735
      12        0.000000995700     0.000002392554     0.000001157766
      13       -0.000000145038    -0.000001414060    -0.000000313059

  **** Optimization is complete! (in 11 steps) ****
    Final optimized geometry and variables:
    Molecular point group: c1

    Geometry (in Angstrom), charge = 0, multiplicity = 1:

    H           -0.076216907856    -0.261910170460    -1.580640269054
    C            0.512471584149     0.425171114706    -0.961077694069
    C            0.557524080771     0.108890190428     0.509365119484
    O            1.062124887692     1.344092412153    -1.463201229167
    C           -0.821383707588    -0.210766825751     1.105840345776
    H            1.025652949078     0.941759339702     1.016020855640
    H            1.213052369928    -0.750784113967     0.634431689229
    C           -1.293112651888    -1.640401734858     0.849509224375
    H           -1.556279429382     0.484838992718     0.711187474027
    H           -0.779810907164    -0.038091203657     2.174341956808
    H           -1.367487867019    -1.860063294677    -0.209537363435
    H           -2.270889912075    -1.806613535084     1.285453834017
    H           -0.608022198131    -2.358287530288     1.287259039940

  Mulliken Charges: (a.u.)
   Center  Symbol    Alpha    Beta     Spin     Total
       1     H     0.46413  0.46413  0.00000  0.07175
       2     C     2.90411  2.90411  0.00000  0.19179
       3     C     3.08556  3.08556  0.00000 -0.17113
       4     O     4.16516  4.16516  0.00000 -0.33032
       5     C     3.10088  3.10088  0.00000 -0.20177
       6     H     0.43665  0.43665  0.00000  0.12671
       7     H     0.45156  0.45156  0.00000  0.09688
       8     C     3.14787  3.14787  0.00000 -0.29574
       9     H     0.44836  0.44836  0.00000  0.10328
      10     H     0.44300  0.44300  0.00000  0.11400
      11     H     0.45476  0.45476  0.00000  0.09048
      12     H     0.44477  0.44477  0.00000  0.11046
      13     H     0.45319  0.45319  0.00000  0.09361

   Total alpha = 20.00000, Total beta = 20.00000, Total charge =  0.00000

*** Psi4 exiting successfully. Buy a developer a beer!
