                              Psi4 1.0.54 Driver

  ==> Input File <==

--------------------------------------------------------------------------
set {
	reference rhf
	basis cc-pvtz
}

set_num_threads( 4 )
memory 2 gb

molecule MOL {
0 1

H	 2.029129	 2.763473	 -1.541541
O	 2.858042	 2.361328	 -1.723236
C	 3.323909	 1.675925	 -0.590777
C	 2.559080	 0.393042	 -0.301064
H	 4.360304	 1.441474	 -0.793005
H	 3.305161	 2.326936	 0.281165
C	 1.097413	 0.607861	 0.085238
H	 2.615869	 -0.247952	 -1.175742
H	 3.071497	 -0.126604	 0.505034
C	 0.371152	 -0.699016	 0.400603
H	 0.584781	 1.120409	 -0.721921
H	 1.046892	 1.262445	 0.953715
C	 -1.077308	 -0.537551	 0.865517
H	 0.397128	 -1.342203	 -0.475675
H	 0.924000	 -1.222569	 1.175665
C	 -2.041121	 -0.006551	 -0.194127
H	 -1.436255	 -1.505302	 1.204845
H	 -1.103998	 0.115156	 1.735239
C	 -3.489218	 0.042606	 0.286507
H	 -1.979911	 -0.634507	 -1.080351
H	 -1.741898	 0.989590	 -0.505848
C	 -4.219984	 1.311773	 -0.139038
H	 -4.022855	 -0.824300	 -0.093339
H	 -3.510372	 -0.038577	 1.370031
H	 -4.244251	 1.405725	 -1.219696
H	 -5.244345	 1.313233	 0.215630
H	 -3.732090	 2.196311	 0.257073

	symmetry c1
}
set optking {
	frozen_dihedral = ("
		20 16 19 22
	")
}

ee,wfn = optimize('scf', return_wfn=True)
oeprop( wfn, 'DIPOLE', 'QUADRUPOLE', 'MULLIKEN_CHARGES')
f=open( 'psi4out.xyz', 'w' )
f.write( "27  " )
f.write( str(ee) + "\n" )
f.write( MOL.save_string_xyz() )
f.close()
--------------------------------------------------------------------------

    Molecular point group: c1
  Charge       = 0
  Multiplicity = 1
  Basis Set: CC-PVTZ
  Basis Set:
  @DF-RHF Final Energy:  -388.42319951843740
    Total Energy =                       -388.4231995184371726
    Molecular point group: c1
  Basis Set: CC-PVTZ
  Basis Set:
  Basis Set: CC-PVTZ
  Basis Set:
  @DF-RHF Final Energy:  -388.42346790490620
    Total Energy =                       -388.4234679049058059
  Basis Set: CC-PVTZ
  Basis Set:
  Basis Set: CC-PVTZ
  Basis Set:
  @DF-RHF Final Energy:  -388.42352433730770
    Total Energy =                       -388.4235243373077537
  Basis Set: CC-PVTZ
  Basis Set:
  Basis Set: CC-PVTZ
  Basis Set:
  @DF-RHF Final Energy:  -388.42351274204515
    Total Energy =                       -388.4235127420444087
  Basis Set: CC-PVTZ
  Basis Set:
  Basis Set: CC-PVTZ
  Basis Set:
  @DF-RHF Final Energy:  -388.42352776586478
    Total Energy =                       -388.4235277658643781
  Basis Set: CC-PVTZ
  Basis Set:
  Charge       = 0
  Multiplicity = 1
  Basis Set: CC-PVTZ
  Basis Set:

    Orbital Energies (a.u.)
    -----------------------

    Doubly Occupied:

       1A    -20.545333     2A    -11.264974     3A    -11.216776
       4A    -11.214484     5A    -11.213756     6A    -11.213469
       7A    -11.213240     8A    -11.211815     9A    -11.207819
      10A     -1.363230    11A     -1.095572    12A     -1.061282
      13A     -1.012208    14A     -0.949361    15A     -0.888423
      16A     -0.821250    17A     -0.802556    18A     -0.777851
      19A     -0.696245    20A     -0.651649    21A     -0.632765
      22A     -0.615863    23A     -0.608445    24A     -0.584642
      25A     -0.582736    26A     -0.550970    27A     -0.539237
      28A     -0.534990    29A     -0.505527    30A     -0.494037
      31A     -0.488240    32A     -0.472893    33A     -0.471231
      34A     -0.457128    35A     -0.452577    36A     -0.441147
      37A     -0.425486

  @DF-RHF Final Energy:  -388.42352776574637

   => Energetics <=

    Nuclear Repulsion Energy =            460.8111067491165613
    One-Electron Energy =               -1439.9108537480708492
    Two-Electron Energy =                 590.6762192332080303
    DFT Exchange-Correlation Energy =       0.0000000000000000
    Empirical Dispersion Energy =           0.0000000000000000
    PCM Polarization Energy =               0.0000000000000000
    EFP Energy =                            0.0000000000000000
    Total Energy =                       -388.4235277657462575
    Molecular point group: c1
  Basis Set: CC-PVTZ
  Basis Set:

  -Total Gradient:
     Atom            X                  Y                   Z
    ------   -----------------  -----------------  -----------------
       1        0.000001996137     0.000000899220    -0.000000470629
       2       -0.000000073981    -0.000002072455     0.000000049658
       3       -0.000000119055     0.000002381835     0.000007461769
       4        0.000001436449    -0.000003402711     0.000009860387
       5       -0.000000478311    -0.000000341485     0.000000464581
       6        0.000000784581     0.000002067643    -0.000000224358
       7       -0.000002487106    -0.000005464826    -0.000011825496
       8       -0.000004414663     0.000003602268     0.000000137977
       9        0.000004245276    -0.000004393469    -0.000000919936
      10        0.000010447329     0.000009043468    -0.000003155472
      11        0.000000536384    -0.000007103831     0.000000540172
      12       -0.000002232672     0.000001334942    -0.000004259387
      13       -0.000004776746     0.000009349339     0.000001878793
      14       -0.000004821067     0.000006109128    -0.000003213150
      15        0.000005768232    -0.000004323106    -0.000001391849
      16       -0.000496931267     0.004253964030    -0.001785263264
      17        0.000006240493    -0.000001038833    -0.000002004039
      18       -0.000007041888     0.000001807445     0.000002964312
      19       -0.000957370748    -0.002462337587    -0.002767634152
      20        0.000659000378    -0.003047972932     0.002192897947
      21       -0.000006522763    -0.000007629908     0.000002300659
      22        0.000797563768     0.001253268481     0.002360753439
      23        0.000001667717     0.000001807656    -0.000004626155
      24       -0.000002900943     0.000005989993     0.000002956942
      25        0.000002621719    -0.000001107586     0.000002918555
      26       -0.000002904167    -0.000000562527    -0.000002493118
      27        0.000000766912    -0.000003874190     0.000002295811

  **** Optimization is complete! (in 6 steps) ****
    Final optimized geometry and variables:
    Molecular point group: c1

    Geometry (in Angstrom), charge = 0, multiplicity = 1:

    H            2.110488678851     2.128094977407    -1.359502941920
    O            2.934044658019     1.714769111740    -1.539775026794
    C            3.385244547139     1.016799917555    -0.409130322191
    C            2.600329875494    -0.255920705335    -0.128839547461
    H            4.418822918078     0.768010166488    -0.608563134605
    H            3.372740855184     1.663650860731     0.465971625801
    C            1.139531783302    -0.021744131204     0.249140996240
    H            2.653395691104    -0.894370856849    -1.005538403887
    H            3.100262438991    -0.785821264455     0.678391139346
    C            0.394326415026    -1.318599381693     0.561708388130
    H            0.637813224510     0.496846299591    -0.561029812140
    H            1.093068953804     0.634164080772     1.116774631493
    C           -1.049961419448    -1.136203899959     1.030180927538
    H            0.408661890402    -1.958882282921    -0.316980798763
    H            0.940874350471    -1.853357434237     1.333601871064
    C           -2.006569798688    -0.570249376614    -0.021127566385
    H           -1.428608045944    -2.101725691796     1.354830972705
    H           -1.065162683475    -0.496396687479     1.909763006178
    C           -3.468673773956    -0.541938231655     0.458480283156
    H           -1.927037717102    -1.191677536223    -0.908641389804
    H           -1.696115312702     0.429067814048    -0.303607719572
    C           -4.223974577568     0.715918787790     0.040147483109
    H           -3.991234629111    -1.421751523752     0.098467603535
    H           -3.490117134793    -0.605105551002     1.542452112996
    H           -4.238698346517     0.828336917314    -1.039304930723
    H           -5.252160788815     0.690805077212     0.383123352700
    H           -3.756368639606     1.601954755719     0.456309351169

  Mulliken Charges: (a.u.)
   Center  Symbol    Alpha    Beta     Spin     Total
       1     H     0.39227  0.39227  0.00000  0.21545
       2     O     4.20549  4.20549  0.00000 -0.41098
       3     C     2.97996  2.97996  0.00000  0.04007
       4     C     3.08923  3.08923  0.00000 -0.17846
       5     H     0.44856  0.44856  0.00000  0.10288
       6     H     0.46972  0.46972  0.00000  0.06056
       7     C     3.10273  3.10273  0.00000 -0.20547
       8     H     0.45080  0.45080  0.00000  0.09840
       9     H     0.45523  0.45523  0.00000  0.08954
      10     C     3.09899  3.09899  0.00000 -0.19798
      11     H     0.45566  0.45566  0.00000  0.08868
      12     H     0.45366  0.45366  0.00000  0.09268
      13     C     3.09814  3.09814  0.00000 -0.19628
      14     H     0.45180  0.45180  0.00000  0.09639
      15     H     0.44808  0.44808  0.00000  0.10385
      16     C     3.09263  3.09263  0.00000 -0.18527
      17     H     0.44693  0.44693  0.00000  0.10614
      18     H     0.45411  0.45411  0.00000  0.09177
      19     C     3.08514  3.08514  0.00000 -0.17028
      20     H     0.45192  0.45192  0.00000  0.09617
      21     H     0.45448  0.45448  0.00000  0.09103
      22     C     3.14896  3.14896  0.00000 -0.29792
      23     H     0.45041  0.45041  0.00000  0.09919
      24     H     0.45561  0.45561  0.00000  0.08878
      25     H     0.45419  0.45419  0.00000  0.09162
      26     H     0.44894  0.44894  0.00000  0.10211
      27     H     0.45634  0.45634  0.00000  0.08731

   Total alpha = 37.00000, Total beta = 37.00000, Total charge =  0.00000

*** Psi4 exiting successfully. Buy a developer a beer!
