                              Psi4 1.0.54 Driver

  ==> Input File <==

--------------------------------------------------------------------------
set {
	reference rhf
	basis cc-pvtz
}

set_num_threads( 4 )
memory 2 gb

molecule MOL {
0 1

H	 1.746030	 -0.973717	 0.881347
O	 1.583947	 -0.677544	 -0.001533
C	 0.489979	 0.078084	 0.002623
C	 -0.763662	 -0.754014	 0.000816
O	 0.539051	 1.259395	 -0.000088
C	 -2.038001	 0.074705	 -0.000833
H	 -0.712945	 -1.405886	 -0.864342
H	 -0.715137	 -1.405770	 0.866182
H	 -2.087267	 0.710831	 -0.874232
H	 -2.903419	 -0.576199	 -0.001922
H	 -2.089467	 0.710909	 0.872389

	symmetry c1
}
set optking {
	frozen_dihedral = ("
		1 2 3 5
	")
}

ee,wfn = optimize('scf', return_wfn=True)
oeprop( wfn, 'DIPOLE', 'QUADRUPOLE', 'MULLIKEN_CHARGES')
f=open( 'psi4out.xyz', 'w' )
f.write( "11  " )
f.write( str(ee) + "\n" )
f.write( MOL.save_string_xyz() )
f.close()
--------------------------------------------------------------------------

    Molecular point group: c1
  Charge       = 0
  Multiplicity = 1
  Basis Set: CC-PVTZ
  Basis Set:
  @DF-RHF Final Energy:  -266.93173962322578
    Total Energy =                       -266.9317396232257806
    Molecular point group: c1
  Basis Set: CC-PVTZ
  Basis Set:
  Basis Set: CC-PVTZ
  Basis Set:
  @DF-RHF Final Energy:  -266.93290688027560
    Total Energy =                       -266.9329068802754819
  Basis Set: CC-PVTZ
  Basis Set:
  Basis Set: CC-PVTZ
  Basis Set:
  @DF-RHF Final Energy:  -266.93333325133676
    Total Energy =                       -266.9333332513366486
  Basis Set: CC-PVTZ
  Basis Set:
  Basis Set: CC-PVTZ
  Basis Set:
  @DF-RHF Final Energy:  -266.93336921159141
    Total Energy =                       -266.9333692115912982
  Basis Set: CC-PVTZ
  Basis Set:
  Basis Set: CC-PVTZ
  Basis Set:
  @DF-RHF Final Energy:  -266.93339449389873
    Total Energy =                       -266.9333944938985042
  Basis Set: CC-PVTZ
  Basis Set:
  Charge       = 0
  Multiplicity = 1
  Basis Set: CC-PVTZ
  Basis Set:

    Orbital Energies (a.u.)
    -----------------------

    Doubly Occupied:

       1A    -20.587328     2A    -20.551450     3A    -11.374979
       4A    -11.246321     5A    -11.221059     6A     -1.464382
       7A     -1.372048     8A     -1.066125     9A     -0.910852
      10A     -0.812180    11A     -0.715671    12A     -0.676209
      13A     -0.662346    14A     -0.616518    15A     -0.571424
      16A     -0.531469    17A     -0.522679    18A     -0.502196
      19A     -0.497555    20A     -0.449396

  @DF-RHF Final Energy:  -266.93339583418219

   => Energetics <=

    Nuclear Repulsion Energy =            179.3876950923782942
    One-Electron Energy =                -719.9378064137060846
    Two-Electron Energy =                 273.6167154871454841
    DFT Exchange-Correlation Energy =       0.0000000000000000
    Empirical Dispersion Energy =           0.0000000000000000
    PCM Polarization Energy =               0.0000000000000000
    EFP Energy =                            0.0000000000000000
    Total Energy =                       -266.9333958341823063
    Molecular point group: c1
  Basis Set: CC-PVTZ
  Basis Set:

  -Total Gradient:
     Atom            X                  Y                   Z
    ------   -----------------  -----------------  -----------------
       1        0.000478875514     0.000712782745     0.000123367564
       2       -0.000698942616    -0.000858927466     0.000188666587
       3        0.000215164692     0.000069903709    -0.001059018133
       4        0.000011159572     0.000007731705    -0.000034485989
       5       -0.000025961730     0.000062399576     0.000755843578
       6        0.000009937254     0.000010001728     0.000004587585
       7       -0.000000964025    -0.000000916541     0.000009088619
       8        0.000004000290    -0.000002696866     0.000015244690
       9       -0.000001590299     0.000000738881    -0.000003800716
      10        0.000007624747    -0.000003812303    -0.000003164565
      11        0.000000696604     0.000002794835     0.000003670780

  **** Optimization is complete! (in 6 steps) ****
    Final optimized geometry and variables:
    Molecular point group: c1

    Geometry (in Angstrom), charge = 0, multiplicity = 1:

    H            1.863133894515    -0.937664125254     0.873545647473
    O            1.634822739148    -0.643246062881     0.007576700023
    C            0.491618185498     0.092332835669     0.005587745529
    C           -0.761222629102    -0.744732891557    -0.010532400327
    O            0.521058960459     1.264832493212    -0.027541252226
    C           -2.044799908900     0.068863818480    -0.030874982475
    H           -0.688973383077    -1.396830051078    -0.874370442201
    H           -0.725534392059    -1.402162083358     0.853761754220
    H           -2.085278507472     0.704984962218    -0.904628257464
    H           -2.904211963118    -0.590002226953    -0.046489469859
    H           -2.117326576303     0.704711810453     0.841530983738

  Mulliken Charges: (a.u.)
   Center  Symbol    Alpha    Beta     Spin     Total
       1     H     0.38885  0.38885  0.00000  0.22230
       2     O     4.17258  4.17258  0.00000 -0.34516
       3     C     2.80293  2.80293  0.00000  0.39413
       4     C     3.10437  3.10437  0.00000 -0.20875
       5     O     4.15986  4.15986  0.00000 -0.31971
       6     C     3.13909  3.13909  0.00000 -0.27818
       7     H     0.43750  0.43750  0.00000  0.12500
       8     H     0.45031  0.45031  0.00000  0.09938
       9     H     0.44558  0.44558  0.00000  0.10884
      10     H     0.45008  0.45008  0.00000  0.09984
      11     H     0.44884  0.44884  0.00000  0.10232

   Total alpha = 20.00000, Total beta = 20.00000, Total charge = -0.00000

*** Psi4 exiting successfully. Buy a developer a beer!
