  ==> Input File <==

--------------------------------------------------------------------------
set {
	reference rhf
	basis 6-31G*
}

set_num_threads( 1 )
memory 2 gb

molecule MOL {
0 1

H	 3.639898	 -1.030694	 -0.355058
O	 2.826016	 -1.159218	 0.122261
C	 2.077727	 -0.067559	 -0.035091
C	 0.624473	 -0.343591	 0.253101
O	 2.542965	 0.974826	 -0.363729
C	 -0.265902	 0.883932	 0.072916
H	 0.324016	 -1.163849	 -0.390541
H	 0.565024	 -0.726111	 1.268924
C	 -1.728698	 0.646073	 0.462102
H	 -0.209144	 1.219470	 -0.958188
H	 0.135059	 1.692851	 0.673903
C	 -2.482460	 -0.343073	 -0.431425
H	 -2.245265	 1.602650	 0.432430
H	 -1.779332	 0.308348	 1.496285
C	 -3.960546	 -0.461025	 -0.060175
H	 -2.395034	 -0.026811	 -1.468912
H	 -2.024850	 -1.327147	 -0.371646
H	 -4.472726	 -1.168004	 -0.705284
H	 -4.465146	 0.496508	 -0.151489
H	 -4.081218	 -0.800940	 0.964585

	symmetry c1
}
set optking {
	frozen_dihedral = ("
		16 12 9 6,
		7 4 6 10,
		12 9 6 10,
		5 3 4 7
	")
}

ee = energy('scf')
oeprop('DIPOLE', 'QUADRUPOLE', 'MULLIKEN_CHARGES')
f=open( 'psi4out.xyz', 'w' )
f.write( "20  " )
f.write( str(ee) + "\n" )
f.write( MOL.save_string_xyz() )
f.close()
--------------------------------------------------------------------------

    Molecular point group: c1

    Geometry (in Angstrom), charge = 0, multiplicity = 1:

       Center              X                  Y                   Z               Mass
    ------------   -----------------  -----------------  -----------------  -----------------
           H          3.640675809906    -1.029804921867    -0.352588135490     1.007825032070
           O          2.826793809906    -1.158328921867     0.124730864510    15.994914619560
           C          2.078504809906    -0.066669921867    -0.032621135490    12.000000000000
           C          0.625250809906    -0.342701921867     0.255570864510    12.000000000000
           O          2.543742809906     0.975715078133    -0.361259135490    15.994914619560
           C         -0.265124190094     0.884821078133     0.075385864510    12.000000000000
           H          0.324793809906    -1.162959921867    -0.388071135490     1.007825032070
           H          0.565801809906    -0.725221921867     1.271393864510     1.007825032070
           C         -1.727920190094     0.646962078133     0.464571864510    12.000000000000
           H         -0.208366190094     1.220359078133    -0.955718135490     1.007825032070
           H          0.135836809906     1.693740078133     0.676372864510     1.007825032070
           C         -2.481682190094    -0.342183921867    -0.428955135490    12.000000000000
           H         -2.244487190094     1.603539078133     0.434899864510     1.007825032070
           H         -1.778554190094     0.309237078133     1.498754864510     1.007825032070
           C         -3.959768190094    -0.460135921867    -0.057705135490    12.000000000000
           H         -2.394256190094    -0.025921921867    -1.466442135490     1.007825032070
           H         -2.024072190094    -1.326257921867    -0.369176135490     1.007825032070
           H         -4.471948190094    -1.167114921867    -0.702814135490     1.007825032070
           H         -4.464368190094     0.497397078133    -0.149019135490     1.007825032070
           H         -4.080440190094    -0.800050921867     0.967054864510     1.007825032070

  Charge       = 0
  Multiplicity = 1
  Basis Set: 6-31G*
  Basis Set:

    Orbital Energies (a.u.)
    -----------------------

    Doubly Occupied:

       1A    -20.610875     2A    -20.552260     3A    -11.381019
       4A    -11.240060     5A    -11.222822     6A    -11.220792
       7A    -11.220162     8A    -11.212538     9A     -1.473987
      10A     -1.365748    11A     -1.096162    12A     -1.040881
      13A     -0.960998    14A     -0.868598    15A     -0.816408
      16A     -0.777037    17A     -0.700249    18A     -0.689582
      19A     -0.664969    20A     -0.633827    21A     -0.609534
      22A     -0.591011    23A     -0.569411    24A     -0.554291
      25A     -0.543567    26A     -0.511903    27A     -0.496656
      28A     -0.479596    29A     -0.469786    30A     -0.467673
      31A     -0.457302    32A     -0.443606

  @DF-RHF Final Energy:  -383.94619673625141

   => Energetics <=

    Nuclear Repulsion Energy =            375.9283565880845117
    One-Electron Energy =               -1267.8624916323951766
    Two-Electron Energy =                 507.9879383080598245
    DFT Exchange-Correlation Energy =       0.0000000000000000
    Empirical Dispersion Energy =           0.0000000000000000
    PCM Polarization Energy =               0.0000000000000000
    EFP Energy =                            0.0000000000000000
    Total Energy =                       -383.9461967362508403

  Mulliken Charges: (a.u.)
   Center  Symbol    Alpha    Beta     Spin     Total
       1     H     0.26741  0.26741  0.00000  0.46519
       2     O     4.35229  4.35229  0.00000 -0.70458
       3     C     2.62366  2.62366  0.00000  0.75267
       4     C     3.21271  3.21271  0.00000 -0.42542
       5     O     4.27666  4.27666  0.00000 -0.55333
       6     C     3.15453  3.15453  0.00000 -0.30906
       7     H     0.39785  0.39785  0.00000  0.20430
       8     H     0.39874  0.39874  0.00000  0.20252
       9     C     3.15547  3.15547  0.00000 -0.31094
      10     H     0.41274  0.41274  0.00000  0.17453
      11     H     0.40767  0.40767  0.00000  0.18467
      12     C     3.15486  3.15486  0.00000 -0.30971
      13     H     0.41791  0.41791  0.00000  0.16419
      14     H     0.42352  0.42352  0.00000  0.15297
      15     C     3.23922  3.23922  0.00000 -0.47844
      16     H     0.42167  0.42167  0.00000  0.15666
      17     H     0.42287  0.42287  0.00000  0.15426
      18     H     0.41841  0.41841  0.00000  0.16318
      19     H     0.42060  0.42060  0.00000  0.15879
      20     H     0.42122  0.42122  0.00000  0.15756

   Total alpha = 32.00000, Total beta = 32.00000, Total charge = -0.00000
