  ==> Input File <==

--------------------------------------------------------------------------
set {
	reference rhf
	basis cc-pvtz
}

set_num_threads( 4 )
memory 2 gb

molecule MOL {
0 1

H	 1.274177	 -1.136065	 1.568275
C	 0.362945	 -1.251216	 0.999850
O	 -0.000000	 0.000000	 0.518769
H	 0.542814	 -1.953397	 0.188404
H	 -0.404806	 -1.666535	 1.649406
C	 -1.165153	 0.000000	 -0.236961
H	 -1.229451	 0.882440	 -0.870223
H	 -2.002557	 0.000000	 0.445289
H	 -1.229451	 -0.882440	 -0.870223

	symmetry c1
}
set optking {
	frozen_dihedral = ("
		2 3 6 7
	")
}

ee = optimize('scf')
oeprop('DIPOLE', 'QUADRUPOLE', 'MULLIKEN_CHARGES')
f=open( 'psi4out.xyz', 'w' )
f.write( "9  " )
f.write( str(ee) + "\n" )
f.write( MOL.save_string_xyz() )
f.close()
--------------------------------------------------------------------------

    Molecular point group: c1
  Charge       = 0
  Multiplicity = 1
  Basis Set: CC-PVTZ
  Basis Set:
  @DF-RHF Final Energy:  -154.12526990071240
    Total Energy =                       -154.1252699007124249
    Molecular point group: c1
  Basis Set: CC-PVTZ
  Basis Set:
  Basis Set: CC-PVTZ
  Basis Set:
  @DF-RHF Final Energy:  -154.12609818513317
    Total Energy =                       -154.1260981851331735
  Basis Set: CC-PVTZ
  Basis Set:
  Basis Set: CC-PVTZ
  Basis Set:
  @DF-RHF Final Energy:  -154.12628416737635
    Total Energy =                       -154.1262841673764115
  Basis Set: CC-PVTZ
  Basis Set:
  Charge       = 0
  Multiplicity = 1
  Basis Set: CC-PVTZ
  Basis Set:

    Orbital Energies (a.u.)
    -----------------------

    Doubly Occupied:

       1A    -20.549539     2A    -11.263330     3A    -11.263052
       4A     -1.381685     5A     -0.975860     6A     -0.872736
       7A     -0.663291     8A     -0.655261     9A     -0.646526
      10A     -0.554280    11A     -0.528390    12A     -0.476351
      13A     -0.419399

  @DF-RHF Final Energy:  -154.12628486499915

   => Energetics <=

    Nuclear Repulsion Energy =             84.7976382932918540
    One-Electron Energy =                -377.3484485850518695
    Two-Electron Energy =                 138.4245254267609084
    DFT Exchange-Correlation Energy =       0.0000000000000000
    Empirical Dispersion Energy =           0.0000000000000000
    PCM Polarization Energy =               0.0000000000000000
    EFP Energy =                            0.0000000000000000
    Total Energy =                       -154.1262848649990929
    Molecular point group: c1
  Basis Set: CC-PVTZ
  Basis Set:

  -Total Gradient:
     Atom            X                  Y                   Z
    ------   -----------------  -----------------  -----------------
       1       -0.000020203495     0.000066373296    -0.000018974579
       2        0.000939772826    -0.000427792907    -0.001762858420
       3       -0.001190839220     0.000305809728     0.001955770249
       4        0.000014179953    -0.000021422598    -0.000000019149
       5        0.000005721844     0.000026671317     0.000001436449
       6       -0.000994121448     0.001283801446     0.001559527519
       7        0.001190447034    -0.001236211326    -0.001770033696
       8        0.000026853215     0.000011010116     0.000025916044
       9        0.000028189290    -0.000008239073     0.000009235583

  **** Optimization is complete! (in 4 steps) ****
    Final optimized geometry and variables:
    Molecular point group: c1

    Geometry (in Angstrom), charge = 0, multiplicity = 1:

    H            1.565061533924    -0.694191072101     1.132431028001
    C            0.646519308144    -0.818008974837     0.577284846728
    O            0.278401340980     0.426656264984     0.082940337108
    H            0.815858998292    -1.530109430378    -0.227263900922
    H           -0.110559903038    -1.226443957960     1.244088888532
    C           -0.901898742178     0.429108992349    -0.651528612391
    H           -0.911382123256     1.317196477995    -1.267400618783
    H           -1.775245495426     0.427362446374    -0.003965267589
    H           -0.961405152343    -0.434593539473    -1.310205668896

  Mulliken Charges: (a.u.)
   Center  Symbol    Alpha    Beta     Spin     Total
       1     H     0.44880  0.44880  0.00000  0.10240
       2     C     3.02176  3.02176  0.00000 -0.04353
       3     O     4.16861  4.16861  0.00000 -0.33722
       4     H     0.47206  0.47206  0.00000  0.05589
       5     H     0.47380  0.47380  0.00000  0.05240
       6     C     3.02035  3.02035  0.00000 -0.04071
       7     H     0.45011  0.45011  0.00000  0.09978
       8     H     0.46852  0.46852  0.00000  0.06296
       9     H     0.47599  0.47599  0.00000  0.04802

   Total alpha = 13.00000, Total beta = 13.00000, Total charge =  0.00000
