  ==> Input File <==

--------------------------------------------------------------------------
set {
	reference rhf
	basis 6-31G*
}

set_num_threads( 4 )
memory 2 gb

molecule MOL {
0 1

H	 -4.237249	 0.533851	 0.047188
O	 -3.517110	 -0.026191	 -0.205115
C	 -2.306886	 0.532354	 0.237577
C	 -1.177863	 -0.397191	 -0.171080
H	 -2.156308	 1.517575	 -0.201710
H	 -2.315015	 0.655684	 1.319734
C	 0.198102	 0.111031	 0.262842
H	 -1.208843	 -0.518759	 -1.250427
H	 -1.368741	 -1.376554	 0.258909
C	 1.331804	 -0.827780	 -0.158768
H	 0.361943	 1.100838	 -0.156218
H	 0.217265	 0.229072	 1.345532
C	 2.723619	 -0.410569	 0.329459
H	 1.342964	 -0.912588	 -1.244120
H	 1.116806	 -1.824343	 0.220779
C	 3.243875	 0.895854	 -0.272975
H	 3.424222	 -1.207124	 0.091250
H	 2.714788	 -0.329854	 1.414619
H	 3.251977	 0.848779	 -1.358681
H	 2.637085	 1.747371	 0.016682
H	 4.259473	 1.094070	 0.055697

	symmetry c1
}
set optking {
	frozen_dihedral = ("
		1 2 3 5
	")
}

ee = optimize('scf')
oeprop('DIPOLE', 'QUADRUPOLE', 'MULLIKEN_CHARGES')
f=open( 'psi4out.xyz', 'w' )
f.write( "21  " )
f.write( str(ee) + "\n" )
f.write( MOL.save_string_xyz() )
f.close()
--------------------------------------------------------------------------

    Molecular point group: c1
  Charge       = 0
  Multiplicity = 1
  Basis Set: 6-31G*
  Basis Set:
  @DF-RHF Final Energy:  -310.21283742450413
    Total Energy =                       -310.2128374245039595
    Molecular point group: c1
  Basis Set: 6-31G*
  Basis Set:
  Charge       = 0
  Multiplicity = 1
  Basis Set: 6-31G*
  Basis Set:

    Orbital Energies (a.u.)
    -----------------------

    Doubly Occupied:

       1A    -20.551844     2A    -11.267061     3A    -11.215692
       4A    -11.215163     5A    -11.213596     6A    -11.210666
       7A    -11.208208     8A     -1.358665     9A     -1.086256
      10A     -1.033206    11A     -0.954417    12A     -0.875680
      13A     -0.807208    14A     -0.779020    15A     -0.692439
      16A     -0.661494    17A     -0.622150    18A     -0.607308
      19A     -0.586506    20A     -0.569422    21A     -0.536413
      22A     -0.519863    23A     -0.510804    24A     -0.486862
      25A     -0.479519    26A     -0.460592    27A     -0.455909
      28A     -0.443146    29A     -0.433991

  @DF-RHF Final Energy:  -310.21283739410904

   => Energetics <=

    Nuclear Repulsion Energy =            312.4535884087143245
    One-Electron Energy =               -1039.6466539734910839
    Two-Electron Energy =                 416.9802281706673739
    DFT Exchange-Correlation Energy =       0.0000000000000000
    Empirical Dispersion Energy =           0.0000000000000000
    PCM Polarization Energy =               0.0000000000000000
    EFP Energy =                            0.0000000000000000
    Total Energy =                       -310.2128373941094424
    Molecular point group: c1
  Basis Set: 6-31G*
  Basis Set:

  -Total Gradient:
     Atom            X                  Y                   Z
    ------   -----------------  -----------------  -----------------
       1       -0.000003132096    -0.000024751990     0.000043137344
       2        0.000013263714     0.000028515819    -0.000078157607
       3       -0.000032148901    -0.000002351469     0.000081674656
       4       -0.000007987655     0.000004352401     0.000000734376
       5        0.000019858146    -0.000023149012    -0.000042768774
       6        0.000009468164     0.000007342116     0.000008598191
       7        0.000005751231     0.000009282476    -0.000015223657
       8        0.000004307792     0.000000502338    -0.000000353355
       9       -0.000005234747     0.000001659987    -0.000002044336
      10       -0.000006003694    -0.000007509922     0.000008279891
      11        0.000008119292     0.000009852131    -0.000001791028
      12       -0.000001047278    -0.000002367387    -0.000009594533
      13        0.000004578938    -0.000002782586     0.000000114564
      14        0.000000535472    -0.000003191573     0.000002730065
      15       -0.000010342550     0.000000103241     0.000001781172
      16       -0.000004113345     0.000000114786     0.000003234510
      17        0.000003478536     0.000006556506    -0.000004202342
      18        0.000005257731    -0.000006052012     0.000000764834
      19        0.000000063308    -0.000001960745     0.000003786969
      20       -0.000004985531     0.000002962553    -0.000001575046
      21        0.000000313475     0.000002872339     0.000000874105

  **** Optimization is complete! (in 2 steps) ****
    Final optimized geometry and variables:
    Molecular point group: c1

    Geometry (in Angstrom), charge = 0, multiplicity = 1:

    H           -4.237071933776     0.534078735545     0.047416104384
    O           -3.516992284512    -0.026136500205    -0.204694039072
    C           -2.306688314723     0.532397880768     0.237798123490
    C           -1.177819376847    -0.397194408950    -0.171158719823
    H           -2.156150306842     1.517437519237    -0.201924308362
    H           -2.314404295972     0.655890690352     1.319937956436
    C            0.198424804352     0.111706361998     0.261102982851
    H           -1.209723570561    -0.519533476891    -1.250387198475
    H           -1.368096348348    -1.376294081155     0.259671766149
    C            1.331780974367    -0.828175401005    -0.159025054933
    H            0.362274605173     1.100660388479    -0.159979960258
    H            0.218068471196     0.231880481952     1.343542202710
    C            2.723649076540    -0.411075414659     0.329176356622
    H            1.343241958197    -0.914216932190    -1.244277005672
    H            1.116121739672    -1.824195043254     0.221591140307
    C            3.243240943950     0.896242142690    -0.271895361619
    H            3.424443691894    -1.207087466164     0.089744205304
    H            2.715223014832    -0.331659729837     1.414438405066
    H            3.250701403127     0.850531354800    -1.357658861253
    H            2.636406171830     1.747240169453     0.019188242687
    H            4.258985997334     1.094305029286     0.056416896365

  Mulliken Charges: (a.u.)
   Center  Symbol    Alpha    Beta     Spin     Total
       1     H     0.28117  0.28117  0.00000  0.43765
       2     O     4.37179  4.37179  0.00000 -0.74358
       3     C     2.98972  2.98972  0.00000  0.02055
       4     C     3.15897  3.15897  0.00000 -0.31794
       5     H     0.43291  0.43291  0.00000  0.13419
       6     H     0.43289  0.43289  0.00000  0.13421
       7     C     3.16190  3.16190  0.00000 -0.32379
       8     H     0.41474  0.41474  0.00000  0.17051
       9     H     0.41485  0.41485  0.00000  0.17030
      10     C     3.15177  3.15177  0.00000 -0.30355
      11     H     0.42151  0.42151  0.00000  0.15698
      12     H     0.42412  0.42412  0.00000  0.15177
      13     C     3.15251  3.15251  0.00000 -0.30502
      14     H     0.42299  0.42299  0.00000  0.15402
      15     H     0.42097  0.42097  0.00000  0.15806
      16     C     3.24119  3.24119  0.00000 -0.48237
      17     H     0.42062  0.42062  0.00000  0.15876
      18     H     0.42355  0.42355  0.00000  0.15290
      19     H     0.42197  0.42197  0.00000  0.15607
      20     H     0.42063  0.42063  0.00000  0.15875
      21     H     0.41924  0.41924  0.00000  0.16153

   Total alpha = 29.00000, Total beta = 29.00000, Total charge =  0.00000
