  ==> Input File <==

--------------------------------------------------------------------------
set {
	reference rhf
	basis cc-pvtz
}

set_num_threads( 4 )
memory 2 gb

molecule MOL {
0 1

O	 -2.374409	 1.338660	 -0.336961
C	 -2.104891	 0.204655	 -0.107126
C	 -0.881910	 -0.448129	 -0.720509
C	 -2.949910	 -0.638219	 0.818225
C	 0.308535	 0.519038	 -0.736936
H	 -1.134902	 -0.730048	 -1.734722
H	 -0.619767	 -1.346479	 -0.171771
C	 1.553792	 -0.104872	 -1.363497
H	 0.015748	 1.408737	 -1.280020
H	 0.539432	 0.833374	 0.278041
C	 2.790023	 0.795987	 -1.353831
H	 1.330271	 -0.396231	 -2.386790
H	 1.790298	 -1.021971	 -0.830959
C	 2.676743	 2.043114	 -2.227169
H	 3.640249	 0.211108	 -1.690491
H	 3.011714	 1.089837	 -0.331169
H	 2.449549	 1.779060	 -3.254908
H	 3.608744	 2.596418	 -2.227491
H	 1.900828	 2.714190	 -1.879473
H	 -3.440322	 -1.417144	 0.243099
H	 -3.694377	 -0.025850	 1.303346
H	 -2.331085	 -1.129829	 1.560495

	symmetry c1
}
set optking {
	frozen_dihedral = ("
		6 3 2 1
	")
}

ee = optimize('scf')
oeprop('DIPOLE', 'QUADRUPOLE', 'MULLIKEN_CHARGES')
f=open( 'psi4out.xyz', 'w' )
f.write( "22  " )
f.write( str(ee) + "\n" )
f.write( MOL.save_string_xyz() )
f.close()
--------------------------------------------------------------------------

    Molecular point group: c1
  Charge       = 0
  Multiplicity = 1
  Basis Set: CC-PVTZ
  Basis Set:
  @DF-RHF Final Energy:  -348.22314273715244
    Total Energy =                       -348.2231427371530685
    Molecular point group: c1
  Basis Set: CC-PVTZ
  Basis Set:
  Basis Set: CC-PVTZ
  Basis Set:
  @DF-RHF Final Energy:  -348.22227285678116
    Total Energy =                       -348.2222728567809895
  Basis Set: CC-PVTZ
  Basis Set:
  Basis Set: CC-PVTZ
  Basis Set:
  @DF-RHF Final Energy:  -348.22377696597329
    Total Energy =                       -348.2237769659728883
  Basis Set: CC-PVTZ
  Basis Set:
  Basis Set: CC-PVTZ
  Basis Set:
  @DF-RHF Final Energy:  -348.22393423039796
    Total Energy =                       -348.2239342303979015
  Basis Set: CC-PVTZ
  Basis Set:
  Basis Set: CC-PVTZ
  Basis Set:
  @DF-RHF Final Energy:  -348.22397960270763
    Total Energy =                       -348.2239796027075158
  Basis Set: CC-PVTZ
  Basis Set:
  Basis Set: CC-PVTZ
  Basis Set:
  @DF-RHF Final Energy:  -348.22399620792908
    Total Energy =                       -348.2239962079291899
  Basis Set: CC-PVTZ
  Basis Set:
  Charge       = 0
  Multiplicity = 1
  Basis Set: CC-PVTZ
  Basis Set:

    Orbital Energies (a.u.)
    -----------------------

    Doubly Occupied:

       1A    -20.537559     2A    -11.320726     3A    -11.229276
       4A    -11.227393     5A    -11.218190     6A    -11.216532
       7A    -11.215384     8A    -11.206060     9A     -1.398209
      10A     -1.092779    11A     -1.043682    12A     -1.002120
      13A     -0.936192    14A     -0.855204    15A     -0.783056
      16A     -0.732642    17A     -0.661927    18A     -0.646973
      19A     -0.628436    20A     -0.619411    21A     -0.598846
      22A     -0.581995    23A     -0.563610    24A     -0.546643
      25A     -0.528686    26A     -0.512520    27A     -0.500491
      28A     -0.485955    29A     -0.467686    30A     -0.462105
      31A     -0.458409    32A     -0.399857

  @DF-RHF Final Energy:  -348.22399561349113

   => Energetics <=

    Nuclear Repulsion Energy =            373.0432988095379301
    One-Electron Energy =               -1211.1774774845493994
    Two-Electron Energy =                 489.9101830615204562
    DFT Exchange-Correlation Energy =       0.0000000000000000
    Empirical Dispersion Energy =           0.0000000000000000
    PCM Polarization Energy =               0.0000000000000000
    EFP Energy =                            0.0000000000000000
    Total Energy =                       -348.2239956134910699
    Molecular point group: c1
  Basis Set: CC-PVTZ
  Basis Set:

  -Total Gradient:
     Atom            X                  Y                   Z
    ------   -----------------  -----------------  -----------------
       1       -0.000612640876    -0.000369063138    -0.001108652941
       2        0.000827899597     0.000838140632     0.001358577776
       3       -0.000461717758    -0.001499949252     0.000220778117
       4        0.000097556900     0.000032445273     0.000168380115
       5        0.000101874239     0.000023427302     0.000027197919
       6        0.000312358701     0.001126943585    -0.000437205265
       7       -0.000087513493    -0.000034117165    -0.000101160501
       8       -0.000095669525    -0.000007604367    -0.000128627290
       9        0.000058080020    -0.000138083440     0.000027680102
      10       -0.000058588223     0.000084350393     0.000005310703
      11       -0.000111548071     0.000102106997     0.000138725962
      12        0.000002438220    -0.000021326164    -0.000078881153
      13       -0.000055070166    -0.000003910689     0.000003770344
      14        0.000046309201     0.000020583054    -0.000025809274
      15       -0.000050055250    -0.000027714758     0.000018375516
      16        0.000020597855     0.000027096632     0.000021500941
      17       -0.000008985603     0.000005279251    -0.000023989682
      18        0.000002967906    -0.000000990669    -0.000017835694
      19        0.000067554319    -0.000022320877    -0.000006798814
      20        0.000012201248    -0.000009141366    -0.000032117132
      21        0.000034492997    -0.000036804464    -0.000095680086
      22       -0.000042542233    -0.000089346768     0.000066460338

  **** Optimization is complete! (in 7 steps) ****
    Final optimized geometry and variables:
    Molecular point group: c1

    Geometry (in Angstrom), charge = 0, multiplicity = 1:

    O           -2.286020292369     0.863680842496     0.433482953096
    C           -1.986391618457    -0.259978658944     0.674851631193
    C           -0.741737583114    -0.893900860919     0.079016080243
    C           -2.845112952763    -1.136663184868     1.553668339147
    C            0.456803086498     0.051404844747     0.034210783499
    H           -1.010984909335    -1.184049824053    -0.934488623495
    H           -0.496884554704    -1.806283942045     0.611034011136
    C            1.669873398972    -0.581552614072    -0.643436919357
    H            0.160156009177     0.956116849540    -0.476637725339
    H            0.720416547320     0.342192774778     1.047883546474
    C            2.926282314022     0.290899758876    -0.638190110273
    H            1.415831759740    -0.836180288539    -1.670170124873
    H            1.900837147601    -1.520473248806    -0.146979850229
    C            2.820891752964     1.564254177918    -1.473850744057
    H            3.755674740552    -0.302532019148    -1.010331856242
    H            3.176974693221     0.551471178029     0.386722445690
    H            2.565289066139     1.334061314140    -2.503236806183
    H            3.764554063109     2.097551540907    -1.480409684501
    H            2.067487463297     2.240745709828    -1.089678170114
    H           -3.087700717408    -2.059527406766     1.037492048127
    H           -3.750623238170    -0.617366609365     1.827006992733
    H           -2.293177171298    -1.406489619632     2.448328179379

  Mulliken Charges: (a.u.)
   Center  Symbol    Alpha    Beta     Spin     Total
       1     O     4.17413  4.17413  0.00000 -0.34826
       2     C     2.85948  2.85948  0.00000  0.28103
       3     C     3.10754  3.10754  0.00000 -0.21508
       4     C     3.15290  3.15290  0.00000 -0.30580
       5     C     3.09298  3.09298  0.00000 -0.18597
       6     H     0.44394  0.44394  0.00000  0.11212
       7     H     0.44516  0.44516  0.00000  0.10969
       8     C     3.09646  3.09646  0.00000 -0.19291
       9     H     0.43644  0.43644  0.00000  0.12713
      10     H     0.45296  0.45296  0.00000  0.09408
      11     C     3.09035  3.09035  0.00000 -0.18070
      12     H     0.45347  0.45347  0.00000  0.09307
      13     H     0.45041  0.45041  0.00000  0.09917
      14     C     3.15222  3.15222  0.00000 -0.30443
      15     H     0.44846  0.44846  0.00000  0.10308
      16     H     0.45448  0.45448  0.00000  0.09105
      17     H     0.45502  0.45502  0.00000  0.08995
      18     H     0.44675  0.44675  0.00000  0.10651
      19     H     0.45093  0.45093  0.00000  0.09814
      20     H     0.44994  0.44994  0.00000  0.10012
      21     H     0.43629  0.43629  0.00000  0.12741
      22     H     0.44970  0.44970  0.00000  0.10061

   Total alpha = 32.00000, Total beta = 32.00000, Total charge =  0.00000
