  ==> Input File <==

--------------------------------------------------------------------------
set {
	reference rhf
	basis cc-pvtz
}

set_num_threads( 4 )
memory 2 gb

molecule MOL {
0 1

H	 -1.913970	 -0.049446	 0.519431
N	 -1.173824	 -0.310545	 -0.096857
C	 -0.022588	 0.563366	 0.065815
H	 -0.934714	 -1.257191	 0.113622
C	 1.270420	 -0.230572	 -0.014245
H	 -0.045354	 1.293678	 -0.735129
H	 -0.043155	 1.123061	 1.001180
H	 1.336273	 -0.754933	 -0.959364
H	 2.130728	 0.422015	 0.082222
H	 1.323344	 -0.967006	 0.781773

	symmetry c1
}
set optking {
	frozen_dihedral = ("
		1 2 3 6
	")
}

ee = optimize('scf')
oeprop('DIPOLE', 'QUADRUPOLE', 'MULLIKEN_CHARGES')
f=open( 'psi4out.xyz', 'w' )
f.write( "10  " )
f.write( str(ee) + "\n" )
f.write( MOL.save_string_xyz() )
f.close()
--------------------------------------------------------------------------

    Molecular point group: c1
  Charge       = 0
  Multiplicity = 1
  Basis Set: CC-PVTZ
  Basis Set:
  @DF-RHF Final Energy:  -134.30151387540326
    Total Energy =                       -134.3015138754032876
    Molecular point group: c1
  Basis Set: CC-PVTZ
  Basis Set:
  Basis Set: CC-PVTZ
  Basis Set:
  @DF-RHF Final Energy:  -134.30175240221348
    Total Energy =                       -134.3017524022134523
  Basis Set: CC-PVTZ
  Basis Set:
  Basis Set: CC-PVTZ
  Basis Set:
  @DF-RHF Final Energy:  -134.30179147929098
    Total Energy =                       -134.3017914792910119
  Basis Set: CC-PVTZ
  Basis Set:
  Charge       = 0
  Multiplicity = 1
  Basis Set: CC-PVTZ
  Basis Set:

    Orbital Energies (a.u.)
    -----------------------

    Doubly Occupied:

       1A    -15.525595     2A    -11.240922     3A    -11.210653
       4A     -1.176584     5A     -0.990571     6A     -0.829176
       7A     -0.659685     8A     -0.624930     9A     -0.592760
      10A     -0.525122    11A     -0.503110    12A     -0.493201
      13A     -0.383629

  @DF-RHF Final Energy:  -134.30179279275131

   => Energetics <=

    Nuclear Repulsion Energy =             83.4841153071325408
    One-Electron Energy =                -346.0599403757921664
    Two-Electron Energy =                 128.2740322759083824
    DFT Exchange-Correlation Energy =       0.0000000000000000
    Empirical Dispersion Energy =           0.0000000000000000
    PCM Polarization Energy =               0.0000000000000000
    EFP Energy =                            0.0000000000000000
    Total Energy =                       -134.3017927927512574
    Molecular point group: c1
  Basis Set: CC-PVTZ
  Basis Set:

  -Total Gradient:
     Atom            X                  Y                   Z
    ------   -----------------  -----------------  -----------------
       1        0.001083571246    -0.001870099469     0.002050071099
       2       -0.000991743716     0.001907997793    -0.002868713853
       3       -0.001622064105     0.001530723534     0.002394907423
       4       -0.000022592967     0.000019849956    -0.000037573711
       5        0.000005098111     0.000050334503     0.000088620482
       6        0.001513183225    -0.001640790629    -0.001554012110
       7        0.000036089997    -0.000001986959    -0.000019128734
       8        0.000001112479     0.000019399377    -0.000022728818
       9        0.000005744045    -0.000004739196    -0.000024849591
      10       -0.000008398312    -0.000010688909    -0.000006592188

  **** Optimization is complete! (in 4 steps) ****
    Final optimized geometry and variables:
    Molecular point group: c1

    Geometry (in Angstrom), charge = 0, multiplicity = 1:

    H           -1.937060531024    -0.037455164879     0.502189507375
    N           -1.191218454717    -0.296729245939    -0.106673479937
    C           -0.029889961707     0.571475956642     0.070584521357
    H           -0.961891942733    -1.241165333039     0.120221686326
    C            1.268264518181    -0.216206374122    -0.013850896360
    H           -0.025026736668     1.313748260312    -0.720597280647
    H           -0.062945991826     1.105747189835     1.016345829515
    H            1.323721891325    -0.758486408008    -0.951410429535
    H            2.125191699076     0.444410284840     0.043027933987
    H            1.344104377616    -0.934072806721     0.796863894117

  Mulliken Charges: (a.u.)
   Center  Symbol    Alpha    Beta     Spin     Total
       1     H     0.43045  0.43045  0.00000  0.13909
       2     N     3.68763  3.68763  0.00000 -0.37526
       3     C     3.01256  3.01256  0.00000 -0.02511
       4     H     0.43177  0.43177  0.00000  0.13646
       5     C     3.14637  3.14637  0.00000 -0.29273
       6     H     0.46337  0.46337  0.00000  0.07325
       7     H     0.46686  0.46686  0.00000  0.06627
       8     H     0.44991  0.44991  0.00000  0.10017
       9     H     0.45161  0.45161  0.00000  0.09678
      10     H     0.45947  0.45947  0.00000  0.08106

   Total alpha = 13.00000, Total beta = 13.00000, Total charge =  0.00000
