                              Psi4 1.0.54 Driver

  ==> Input File <==

--------------------------------------------------------------------------
set {
	reference rhf
	basis cc-pvtz
}

set_num_threads( 4 )
memory 2 gb

molecule MOL {
0 1

H	 1.200127	 -4.639381	 -3.224886
C	 1.220142	 -4.004667	 -2.346907
C	 0.022202	 -3.061758	 -2.324246
H	 1.227494	 -4.649397	 -1.474378
H	 2.155431	 -3.455017	 -2.358618
C	 0.010991	 -2.149963	 -1.106267
H	 -0.900641	 -3.630855	 -2.340181
H	 0.025908	 -2.453576	 -3.225733
N	 -1.148891	 -1.284867	 -1.101958
H	 -0.017762	 -2.755700	 -0.205476
H	 0.947257	 -1.585146	 -1.067908
C	 -1.215959	 -0.382435	 0.027143
H	 -1.183364	 -0.763182	 -1.952826
C	 -2.451944	 0.502410	 -0.038737
H	 -1.250693	 -0.979565	 0.933458
H	 -0.324089	 0.246329	 0.106519
C	 -3.752217	 -0.292550	 0.005776
H	 -2.407325	 1.093801	 -0.946480
H	 -2.431979	 1.206234	 0.790023
H	 -3.817783	 -0.982946	 -0.828547
H	 -4.612613	 0.364348	 -0.042306
H	 -3.830160	 -0.871666	 0.919868

	symmetry c1
}
set optking {
	frozen_dihedral = ("
		15 12 14 18
	")
}

ee,wfn = optimize('scf', return_wfn=True)
oeprop( wfn, 'DIPOLE', 'QUADRUPOLE', 'MULLIKEN_CHARGES')
f=open( 'psi4out.xyz', 'w' )
f.write( "22  " )
f.write( str(ee) + "\n" )
f.write( MOL.save_string_xyz() )
f.close()
--------------------------------------------------------------------------

    Molecular point group: c1
  Charge       = 0
  Multiplicity = 1
  Basis Set: CC-PVTZ
  Basis Set:
  @DF-RHF Final Energy:  -290.48937266624557
    Total Energy =                       -290.4893726662453446
    Molecular point group: c1
  Basis Set: CC-PVTZ
  Basis Set:
  Basis Set: CC-PVTZ
  Basis Set:
  @DF-RHF Final Energy:  -290.48954901101462
    Total Energy =                       -290.4895490110148444
  Basis Set: CC-PVTZ
  Basis Set:
  Basis Set: CC-PVTZ
  Basis Set:
  @DF-RHF Final Energy:  -290.48958775453514
    Total Energy =                       -290.4895877545352505
  Basis Set: CC-PVTZ
  Basis Set:
  Basis Set: CC-PVTZ
  Basis Set:
  @DF-RHF Final Energy:  -290.48958900300624
    Total Energy =                       -290.4895890030064152
  Basis Set: CC-PVTZ
  Basis Set:
  Charge       = 0
  Multiplicity = 1
  Basis Set: CC-PVTZ
  Basis Set:

    Orbital Energies (a.u.)
    -----------------------

    Doubly Occupied:

       1A    -15.528747     2A    -11.236764     3A    -11.236746
       4A    -11.212437     5A    -11.212312     6A    -11.207907
       7A    -11.199155     8A     -1.208124     9A     -1.059389
      10A     -1.023463    11A     -0.927039    12A     -0.875954
      13A     -0.807862    14A     -0.791217    15A     -0.662121
      16A     -0.634985    17A     -0.613168    18A     -0.611922
      19A     -0.572635    20A     -0.565099    21A     -0.537928
      22A     -0.526614    23A     -0.502577    24A     -0.488928
      25A     -0.481152    26A     -0.471779    27A     -0.467202
      28A     -0.451824    29A     -0.361075

  @DF-RHF Final Energy:  -290.48958911885489

   => Energetics <=

    Nuclear Repulsion Energy =            317.8676399091889948
    One-Electron Energy =               -1021.7622073756890586
    Two-Electron Energy =                 413.4049783476449420
    DFT Exchange-Correlation Energy =       0.0000000000000000
    Empirical Dispersion Energy =           0.0000000000000000
    PCM Polarization Energy =               0.0000000000000000
    EFP Energy =                            0.0000000000000000
    Total Energy =                       -290.4895891188551786
    Molecular point group: c1
  Basis Set: CC-PVTZ
  Basis Set:

  -Total Gradient:
     Atom            X                  Y                   Z
    ------   -----------------  -----------------  -----------------
       1        0.000000001345     0.000000610869     0.000000106181
       2        0.000000744931     0.000004604217    -0.000002429002
       3        0.000002616641    -0.000002529225     0.000000304774
       4       -0.000001239139     0.000000029359     0.000000122586
       5        0.000001253943    -0.000000800312     0.000000660706
       6       -0.000009290882    -0.000003728623     0.000000717067
       7       -0.000000449772     0.000001961010     0.000002014318
       8       -0.000000185187    -0.000002106915    -0.000002506800
       9        0.000012657141     0.000008667507     0.000012886257
      10        0.000002415775     0.000000904881     0.000003968567
      11       -0.000000774139    -0.000001412268    -0.000002172700
      12       -0.000197383130    -0.000288035872    -0.000212478253
      13       -0.000005149592     0.000001937850    -0.000000526461
      14       -0.000199988047    -0.000297078282    -0.000190506128
      15        0.000198547792     0.000289210048     0.000199621674
      16        0.000007274552    -0.000008277192    -0.000006987487
      17       -0.000011378722     0.000012666479     0.000005791513
      18        0.000204077321     0.000291560065     0.000196509640
      19       -0.000004000986     0.000006485680     0.000002530302
      20        0.000000604368    -0.000003479905    -0.000004137050
      21        0.000004196053    -0.000008188696    -0.000000475210
      22       -0.000004550266    -0.000003000680    -0.000003014496

  **** Optimization is complete! (in 5 steps) ****
    Final optimized geometry and variables:
    Molecular point group: c1

    Geometry (in Angstrom), charge = 0, multiplicity = 1:

    H            2.265682884985    -3.111762977653    -2.234176961280
    C            2.272072280053    -2.484676150097    -1.350525920756
    C            1.081893662103    -1.531779447285    -1.345604153847
    H            2.255096392943    -3.136715531210    -0.483590417142
    H            3.211896246765    -1.942876337702    -1.337379109708
    C            1.051566609031    -0.631335772450    -0.119528813014
    H            0.155061480973    -2.093057047209    -1.387374329049
    H            1.110904063282    -0.915318634461    -2.240990410369
    N           -0.099910593021     0.244600265698    -0.132129517941
    H            0.997767946092    -1.245087015218     0.774567566960
    H            1.991722979290    -0.075240201437    -0.055448648869
    C           -0.176557407912     1.143810697207     0.999929133668
    H           -0.111935392976     0.772385732894    -0.980229607197
    C           -1.416250655937     2.028872034279     0.948940423078
    H           -0.200806728400     0.545062046429     1.905693127894
    H            0.709686747384     1.779346290879     1.075842356284
    C           -2.732572112645     1.261968207592     1.022031250752
    H           -1.389032158370     2.627165475503     0.040821707579
    H           -1.360942136837     2.734049336865     1.772812570070
    H           -2.825926414819     0.564386207801     0.200964897312
    H           -3.577140741747     1.941203968413     0.990394308784
    H           -2.798202987681     0.695723513326     1.945507807248

  Mulliken Charges: (a.u.)
   Center  Symbol    Alpha    Beta     Spin     Total
       1     H     0.44766  0.44766  0.00000  0.10468
       2     C     3.15367  3.15367  0.00000 -0.30735
       3     C     3.08093  3.08093  0.00000 -0.16186
       4     H     0.45470  0.45470  0.00000  0.09061
       5     H     0.45608  0.45608  0.00000  0.08783
       6     C     3.02070  3.02070  0.00000 -0.04139
       7     H     0.44899  0.44899  0.00000  0.10202
       8     H     0.45964  0.45964  0.00000  0.08072
       9     N     3.63942  3.63942  0.00000 -0.27884
      10     H     0.45951  0.45951  0.00000  0.08097
      11     H     0.47515  0.47515  0.00000  0.04971
      12     C     3.03738  3.03738  0.00000 -0.07476
      13     H     0.44482  0.44482  0.00000  0.11036
      14     C     3.08708  3.08708  0.00000 -0.17415
      15     H     0.45755  0.45755  0.00000  0.08491
      16     H     0.46467  0.46467  0.00000  0.07066
      17     C     3.14465  3.14465  0.00000 -0.28930
      18     H     0.45800  0.45800  0.00000  0.08399
      19     H     0.45140  0.45140  0.00000  0.09719
      20     H     0.44859  0.44859  0.00000  0.10281
      21     H     0.45164  0.45164  0.00000  0.09672
      22     H     0.45777  0.45777  0.00000  0.08446

   Total alpha = 29.00000, Total beta = 29.00000, Total charge = -0.00000

*** Psi4 exiting successfully. Buy a developer a beer!
