                              Psi4 1.0.54 Driver

  ==> Input File <==

--------------------------------------------------------------------------
set {
	reference rhf
	basis cc-pvtz
}

set_num_threads( 4 )
memory 2 gb

molecule MOL {
0 1

H	 2.273589	 -0.207524	 0.442249
O	 1.583947	 -0.677544	 -0.001533
C	 0.489979	 0.078084	 0.002623
C	 -0.763662	 -0.754014	 0.000816
O	 0.539051	 1.259395	 -0.000088
C	 -2.038001	 0.074705	 -0.000833
H	 -0.712945	 -1.405886	 -0.864342
H	 -0.715137	 -1.405770	 0.866182
H	 -2.087267	 0.710831	 -0.874232
H	 -2.903419	 -0.576199	 -0.001922
H	 -2.089467	 0.710909	 0.872389

	symmetry c1
}
set optking {
	frozen_dihedral = ("
		1 2 3 5
	")
}

ee,wfn = optimize('scf', return_wfn=True)
oeprop( wfn, 'DIPOLE', 'QUADRUPOLE', 'MULLIKEN_CHARGES')
f=open( 'psi4out.xyz', 'w' )
f.write( "11  " )
f.write( str(ee) + "\n" )
f.write( MOL.save_string_xyz() )
f.close()
--------------------------------------------------------------------------

    Molecular point group: c1
  Charge       = 0
  Multiplicity = 1
  Basis Set: CC-PVTZ
  Basis Set:
  @DF-RHF Final Energy:  -266.94837138699506
    Total Energy =                       -266.9483713869951202
    Molecular point group: c1
  Basis Set: CC-PVTZ
  Basis Set:
  Basis Set: CC-PVTZ
  Basis Set:
  @DF-RHF Final Energy:  -266.94453256341319
    Total Energy =                       -266.9445325634130768
  Basis Set: CC-PVTZ
  Basis Set:
  Basis Set: CC-PVTZ
  Basis Set:
  @DF-RHF Final Energy:  -266.94869181090837
    Total Energy =                       -266.9486918109084286
  Basis Set: CC-PVTZ
  Basis Set:
  Basis Set: CC-PVTZ
  Basis Set:
  @DF-RHF Final Energy:  -266.94877136156219
    Total Energy =                       -266.9487713615620805
  Basis Set: CC-PVTZ
  Basis Set:
  Basis Set: CC-PVTZ
  Basis Set:
  @DF-RHF Final Energy:  -266.94878038713409
    Total Energy =                       -266.9487803871342635
  Basis Set: CC-PVTZ
  Basis Set:
  Charge       = 0
  Multiplicity = 1
  Basis Set: CC-PVTZ
  Basis Set:

    Orbital Energies (a.u.)
    -----------------------

    Doubly Occupied:

       1A    -20.601262     2A    -20.543734     3A    -11.374544
       4A    -11.242580     5A    -11.218602     6A     -1.474801
       7A     -1.371072     8A     -1.065899     9A     -0.917553
      10A     -0.804301    11A     -0.707352    12A     -0.691037
      13A     -0.663443    14A     -0.606919    15A     -0.584823
      16A     -0.531632    17A     -0.527132    18A     -0.505815
      19A     -0.486816    20A     -0.448787

  @DF-RHF Final Energy:  -266.94878092474414

   => Energetics <=

    Nuclear Repulsion Energy =            179.9952640536689330
    One-Electron Energy =                -721.1518857633730022
    Two-Electron Energy =                 274.2078407849597852
    DFT Exchange-Correlation Energy =       0.0000000000000000
    Empirical Dispersion Energy =           0.0000000000000000
    PCM Polarization Energy =               0.0000000000000000
    EFP Energy =                            0.0000000000000000
    Total Energy =                       -266.9487809247442556
    Molecular point group: c1
  Basis Set: CC-PVTZ
  Basis Set:

  -Total Gradient:
     Atom            X                  Y                   Z
    ------   -----------------  -----------------  -----------------
       1       -0.002011663066    -0.004140102586     0.008195079387
       2        0.002070912494     0.005179049149    -0.014067016497
       3        0.000745819413    -0.001327641939     0.014382236367
       4        0.000029583898     0.000017025152     0.000073274926
       5       -0.000832164830     0.000241828388    -0.008478996352
       6        0.000000946937    -0.000006279515    -0.000020103753
       7       -0.000035284271     0.000056238668    -0.000063298102
       8        0.000029562072    -0.000024551711    -0.000034012749
       9        0.000002740658    -0.000001208841     0.000004612053
      10        0.000002083889     0.000003226563     0.000004856949
      11       -0.000002537190     0.000002416672     0.000003367771

  **** Optimization is complete! (in 6 steps) ****
    Final optimized geometry and variables:
    Molecular point group: c1

    Geometry (in Angstrom), charge = 0, multiplicity = 1:

    H            2.318853836090    -0.230912287111     0.305651334038
    O            1.587132711235    -0.674968358695    -0.093747934162
    C            0.490912039905     0.080911765901     0.022988339584
    C           -0.762783337180    -0.750853092793     0.011323705200
    O            0.536376848655     1.259937847987     0.056583421604
    C           -2.038876044256     0.074506392223    -0.009470359475
    H           -0.699604694714    -1.409268049555    -0.848055825469
    H           -0.722609923908    -1.397560112666     0.881512604349
    H           -2.080615098801     0.703792633528    -0.888453222970
    H           -2.903291941652    -0.577862226095    -0.014589001339
    H           -2.100697158476     0.717661504328     0.857976204113

  Mulliken Charges: (a.u.)
   Center  Symbol    Alpha    Beta     Spin     Total
       1     H     0.38074  0.38074  0.00000  0.23851
       2     O     4.16591  4.16591  0.00000 -0.33183
       3     C     2.80373  2.80373  0.00000  0.39253
       4     C     3.10029  3.10029  0.00000 -0.20059
       5     O     4.18380  4.18380  0.00000 -0.36761
       6     C     3.13912  3.13912  0.00000 -0.27823
       7     H     0.43886  0.43886  0.00000  0.12227
       8     H     0.44208  0.44208  0.00000  0.11584
       9     H     0.44778  0.44778  0.00000  0.10444
      10     H     0.44975  0.44975  0.00000  0.10050
      11     H     0.44792  0.44792  0.00000  0.10416

   Total alpha = 20.00000, Total beta = 20.00000, Total charge =  0.00000

*** Psi4 exiting successfully. Buy a developer a beer!
