  ==> Input File <==

--------------------------------------------------------------------------
set {
	reference rhf
	basis 6-31G*
}

set_num_threads( 4 )
memory 2 gb

molecule MOL {
0 1

H	 -1.070890	 -1.366565	 0.180696
O	 -1.422729	 -0.573567	 -0.196946
C	 -0.731407	 0.539437	 0.309156
C	 0.680193	 0.672443	 -0.251532
H	 -1.319765	 1.404033	 0.030086
H	 -0.700012	 0.506517	 1.397677
C	 0.786873	 1.656771	 -1.416617
H	 1.343306	 0.982475	 0.550844
H	 1.011791	 -0.311428	 -0.576465
H	 0.532049	 2.666132	 -1.107669
H	 1.797752	 1.687888	 -1.809201
H	 0.125609	 1.376167	 -2.232862

	symmetry c1
}
set optking {
	frozen_dihedral = ("
		8 4 3 2
	")
}

ee = optimize('scf')
oeprop('DIPOLE', 'QUADRUPOLE', 'MULLIKEN_CHARGES')
f=open( 'psi4out.xyz', 'w' )
f.write( "12  " )
f.write( str(ee) + "\n" )
f.write( MOL.save_string_xyz() )
f.close()
--------------------------------------------------------------------------

    Molecular point group: c1
  Charge       = 0
  Multiplicity = 1
  Basis Set: 6-31G*
  Basis Set:
  @DF-RHF Final Energy:  -193.10522465503627
    Total Energy =                       -193.1052246550361815
    Molecular point group: c1
  Basis Set: 6-31G*
  Basis Set:
  Basis Set: 6-31G*
  Basis Set:
  @DF-RHF Final Energy:  -193.10568242531750
    Total Energy =                       -193.1056824253175819
  Basis Set: 6-31G*
  Basis Set:
  Basis Set: 6-31G*
  Basis Set:
  @DF-RHF Final Energy:  -193.10574603684225
    Total Energy =                       -193.1057460368421062
  Basis Set: 6-31G*
  Basis Set:
  Basis Set: 6-31G*
  Basis Set:
  @DF-RHF Final Energy:  -193.10574797734861
    Total Energy =                       -193.1057479773486421
  Basis Set: 6-31G*
  Basis Set:
  Charge       = 0
  Multiplicity = 1
  Basis Set: 6-31G*
  Basis Set:

    Orbital Energies (a.u.)
    -----------------------

    Doubly Occupied:

       1A    -20.552146     2A    -11.268052     3A    -11.219892
       4A    -11.211998     5A     -1.359154     6A     -1.048923
       7A     -0.918816     8A     -0.818945     9A     -0.682251
      10A     -0.627257    11A     -0.624118    12A     -0.571793
      13A     -0.531847    14A     -0.521789    15A     -0.485899
      16A     -0.466550    17A     -0.427032

  @DF-RHF Final Energy:  -193.10574847757647

   => Energetics <=

    Nuclear Repulsion Energy =            131.6920634033888859
    One-Electron Energy =                -522.9227000236871845
    Two-Electron Energy =                 198.1248881427218578
    DFT Exchange-Correlation Energy =       0.0000000000000000
    Empirical Dispersion Energy =           0.0000000000000000
    PCM Polarization Energy =               0.0000000000000000
    EFP Energy =                            0.0000000000000000
    Total Energy =                       -193.1057484775764408
    Molecular point group: c1
  Basis Set: 6-31G*
  Basis Set:

  -Total Gradient:
     Atom            X                  Y                   Z
    ------   -----------------  -----------------  -----------------
       1       -0.000000062221    -0.000028434375     0.000000125700
       2        0.001324934058    -0.002144020223     0.002933820909
       3       -0.001494390277     0.001957359250    -0.003675110011
       4       -0.000677505994     0.005145070053    -0.000308728099
       5       -0.000000561977    -0.000029856673    -0.000040139773
       6       -0.000037575235    -0.000060492279     0.000016859121
       7        0.000039872720     0.000003729522     0.000077603723
       8        0.000814753206    -0.004718820970     0.001007087065
       9        0.000058191607    -0.000070555158    -0.000035924391
      10        0.000013794745    -0.000030539065     0.000004084541
      11       -0.000037341174     0.000033064365     0.000020910292
      12       -0.000004109457    -0.000056504446    -0.000000589077

  **** Optimization is complete! (in 5 steps) ****
    Final optimized geometry and variables:
    Molecular point group: c1

    Geometry (in Angstrom), charge = 0, multiplicity = 1:

    H           -0.805112853835    -1.891614783990     0.455618439093
    O           -1.229473510343    -1.092480393627     0.177212291781
    C           -0.533611822065     0.007625447244     0.706692566613
    C            0.890449071752     0.144103425354     0.147320744194
    H           -1.127487037625     0.878937274307     0.462589842884
    H           -0.504417595623    -0.065620528380     1.792110363936
    C            0.995191622928     1.093231535037    -1.043895167959
    H            1.573365660574     0.435345895762     0.941318901029
    H            1.221117615659    -0.846619457270    -0.158865744350
    H            0.729071168913     2.107638212600    -0.760959052929
    H            2.003415213166     1.115000447306    -1.444974983282
    H            0.324308483217     0.781859288310    -1.838434693480

  Mulliken Charges: (a.u.)
   Center  Symbol    Alpha    Beta     Spin     Total
       1     H     0.28331  0.28331  0.00000  0.43338
       2     O     4.36933  4.36933  0.00000 -0.73866
       3     C     2.99808  2.99808  0.00000  0.00385
       4     C     3.16643  3.16643  0.00000 -0.33286
       5     H     0.41419  0.41419  0.00000  0.17162
       6     H     0.42924  0.42924  0.00000  0.14152
       7     C     3.24284  3.24284  0.00000 -0.48569
       8     H     0.42115  0.42115  0.00000  0.15770
       9     H     0.42248  0.42248  0.00000  0.15503
      10     H     0.42125  0.42125  0.00000  0.15750
      11     H     0.41894  0.41894  0.00000  0.16212
      12     H     0.41276  0.41276  0.00000  0.17447

   Total alpha = 17.00000, Total beta = 17.00000, Total charge =  0.00000
