                              Psi4 1.0.54 Driver

  ==> Input File <==

--------------------------------------------------------------------------
set {
	reference rhf
	basis cc-pvtz
}

set_num_threads( 4 )
memory 2 gb

molecule MOL {
0 1

H	 0.150432	 4.202442	 -0.606510
O	 -0.214580	 3.574635	 -1.202769
C	 -0.184951	 2.294728	 -0.636110
C	 1.220793	 1.727888	 -0.616888
H	 -0.591014	 2.294486	 0.370489
H	 -0.818265	 1.665471	 -1.244905
O	 1.172093	 0.457955	 -0.054438
H	 1.876564	 2.378637	 -0.036038
H	 1.612123	 1.691941	 -1.631355
C	 2.395478	 -0.199028	 -0.000366
H	 2.505946	 -0.901710	 -0.823354
H	 3.174616	 0.545641	 -0.071768
H	 2.513730	 -0.742241	 0.934223

	symmetry c1
}
set optking {
	frozen_dihedral = ("
		4 7 10 13
	")
}

ee,wfn = optimize('scf', return_wfn=True)
oeprop( wfn, 'DIPOLE', 'QUADRUPOLE', 'MULLIKEN_CHARGES')
f=open( 'psi4out.xyz', 'w' )
f.write( "13  " )
f.write( str(ee) + "\n" )
f.write( MOL.save_string_xyz() )
f.close()
--------------------------------------------------------------------------

    Molecular point group: c1
  Charge       = 0
  Multiplicity = 1
  Basis Set: CC-PVTZ
  Basis Set:
  @DF-RHF Final Energy:  -268.05863634940636
    Total Energy =                       -268.0586363494062425
    Molecular point group: c1
  Basis Set: CC-PVTZ
  Basis Set:
  Basis Set: CC-PVTZ
  Basis Set:
  @DF-RHF Final Energy:  -268.05938806811173
    Total Energy =                       -268.0593880681116161
  Basis Set: CC-PVTZ
  Basis Set:
  Basis Set: CC-PVTZ
  Basis Set:
  @DF-RHF Final Energy:  -268.05960826286389
    Total Energy =                       -268.0596082628640602
  Basis Set: CC-PVTZ
  Basis Set:
  Charge       = 0
  Multiplicity = 1
  Basis Set: CC-PVTZ
  Basis Set:

    Orbital Energies (a.u.)
    -----------------------

    Doubly Occupied:

       1A    -20.553365     2A    -20.552594     3A    -11.269610
       4A    -11.267442     5A    -11.267037     6A     -1.388752
       7A     -1.368600     8A     -1.019465     9A     -0.914171
      10A     -0.842622    11A     -0.711193    12A     -0.674555
      13A     -0.661550    14A     -0.637856    15A     -0.599057
      16A     -0.568615    17A     -0.551051    18A     -0.490100
      19A     -0.483551    20A     -0.441288    21A     -0.420826

  @DF-RHF Final Energy:  -268.05960963660516

   => Energetics <=

    Nuclear Repulsion Energy =            190.2644242331916757
    One-Electron Energy =                -743.2814748873635153
    Two-Electron Energy =                 284.9574410175664525
    DFT Exchange-Correlation Energy =       0.0000000000000000
    Empirical Dispersion Energy =           0.0000000000000000
    PCM Polarization Energy =               0.0000000000000000
    EFP Energy =                            0.0000000000000000
    Total Energy =                       -268.0596096366053871
    Molecular point group: c1
  Basis Set: CC-PVTZ
  Basis Set:

  -Total Gradient:
     Atom            X                  Y                   Z
    ------   -----------------  -----------------  -----------------
       1       -0.000000457154     0.000005924324    -0.000001272858
       2        0.000022967221    -0.000006444413     0.000003219777
       3       -0.000032334330    -0.000034285522     0.000016229344
       4        0.000408968275     0.000817372156     0.001809688351
       5       -0.000006336663    -0.000002075693    -0.000001724055
       6       -0.000006279174    -0.000001034410     0.000003474788
       7       -0.000150468440    -0.000715825378    -0.002337605897
       8        0.000005167765    -0.000031071322     0.000011621592
       9        0.000001673361    -0.000026958692     0.000020422461
      10       -0.001276811591    -0.001967285775    -0.000561824638
      11       -0.000001165736    -0.000032932759    -0.000004959091
      12        0.000016993724     0.000003642480     0.000000209928
      13        0.001018082739     0.001990975003     0.001042520300

  **** Optimization is complete! (in 4 steps) ****
    Final optimized geometry and variables:
    Molecular point group: c1

    Geometry (in Angstrom), charge = 0, multiplicity = 1:

    H           -0.723524673495     2.610965179262    -0.071546021846
    O           -1.090994568297     1.991934039778    -0.675418843480
    C           -1.061357468669     0.704252891830    -0.126287142690
    C            0.343640847800     0.135596306790    -0.119881846077
    H           -1.463275805823     0.690762114475     0.881911959063
    H           -1.698165948871     0.084261652330    -0.740888045863
    O            0.292035041550    -1.138975924034     0.433568051674
    H            1.002071209504     0.779045088563     0.464712730590
    H            0.727847210894     0.111325752425    -1.137282036713
    C            1.502489990929    -1.828171817196     0.489425591236
    H            1.583537543991    -2.537635497601    -0.327695277571
    H            2.350206768910    -1.151134605178     0.440942606154
    H            1.557209102180    -2.356865853972     1.431776967183

  Mulliken Charges: (a.u.)
   Center  Symbol    Alpha    Beta     Spin     Total
       1     H     0.39414  0.39414  0.00000  0.21172
       2     O     4.20214  4.20214  0.00000 -0.40428
       3     C     2.97489  2.97489  0.00000  0.05022
       4     C     2.96486  2.96486  0.00000  0.07028
       5     H     0.46719  0.46719  0.00000  0.06562
       6     H     0.45265  0.45265  0.00000  0.09469
       7     O     4.17925  4.17925  0.00000 -0.35851
       8     H     0.48110  0.48110  0.00000  0.03779
       9     H     0.47011  0.47011  0.00000  0.05978
      10     C     3.02791  3.02791  0.00000 -0.05582
      11     H     0.46061  0.46061  0.00000  0.07877
      12     H     0.47278  0.47278  0.00000  0.05444
      13     H     0.45235  0.45235  0.00000  0.09530

   Total alpha = 21.00000, Total beta = 21.00000, Total charge =  0.00000

*** Psi4 exiting successfully. Buy a developer a beer!
