                              Psi4 1.0.54 Driver

  ==> Input File <==

--------------------------------------------------------------------------
set {
	reference rhf
	basis cc-pvtz
}

set_num_threads( 4 )
memory 2 gb

molecule MOL {
0 1

H	 -3.294565	 0.569785	 0.000000
C	 -2.246225	 0.343737	 0.000000
C	 -1.809462	 -0.973484	 0.000000
C	 -1.312577	 1.353775	 0.000000
H	 -2.523539	 -1.775124	 0.000000
C	 -0.467257	 -1.267606	 0.000000
H	 -1.631287	 2.379013	 0.000000
C	 0.046966	 1.074396	 0.000000
H	 -0.119372	 -2.281828	 0.000000
C	 0.471772	 -0.241514	 0.000000
H	 0.748162	 1.882966	 0.000000
O	 1.760432	 -0.625184	 0.000000
C	 2.601036	 -0.244605	 -1.047236
H	 2.253510	 -0.633763	 -1.997756
H	 3.569926	 -0.664951	 -0.828309
H	 2.690492	 0.833959	 -1.113606

	symmetry c1
}
set optking {
	frozen_dihedral = ("
		13 12 10 8
	")
}

ee,wfn = optimize('scf', return_wfn=True)
oeprop( wfn, 'DIPOLE', 'QUADRUPOLE', 'MULLIKEN_CHARGES')
f=open( 'psi4out.xyz', 'w' )
f.write( "16  " )
f.write( str(ee) + "\n" )
f.write( MOL.save_string_xyz() )
f.close()
--------------------------------------------------------------------------

    Molecular point group: c1
  Charge       = 0
  Multiplicity = 1
  Basis Set: CC-PVTZ
  Basis Set:
  @DF-RHF Final Energy:  -344.69987670610834
    Total Energy =                       -344.6998767061085118
    Molecular point group: c1
  Basis Set: CC-PVTZ
  Basis Set:
  Basis Set: CC-PVTZ
  Basis Set:
  @DF-RHF Final Energy:  -344.57182564150389
    Total Energy =                       -344.5718256415035512
  Basis Set: CC-PVTZ
  Basis Set:
  Basis Set: CC-PVTZ
  Basis Set:
  @DF-RHF Final Energy:  -344.68043427820777
    Total Energy =                       -344.6804342782075992
  Basis Set: CC-PVTZ
  Basis Set:
  Basis Set: CC-PVTZ
  Basis Set:
  @DF-RHF Final Energy:  -344.70070688221438
    Total Energy =                       -344.7007068822144333
  Basis Set: CC-PVTZ
  Basis Set:
  Basis Set: CC-PVTZ
  Basis Set:
  @DF-RHF Final Energy:  -344.70093692632128
    Total Energy =                       -344.7009369263212193
  Basis Set: CC-PVTZ
  Basis Set:
  Basis Set: CC-PVTZ
  Basis Set:
  @DF-RHF Final Energy:  -344.70099906089791
    Total Energy =                       -344.7009990608981980
  Basis Set: CC-PVTZ
  Basis Set:
  Basis Set: CC-PVTZ
  Basis Set:
  @DF-RHF Final Energy:  -344.70100591651010
    Total Energy =                       -344.7010059165100415
  Basis Set: CC-PVTZ
  Basis Set:
  Charge       = 0
  Multiplicity = 1
  Basis Set: CC-PVTZ
  Basis Set:

    Orbital Energies (a.u.)
    -----------------------

    Doubly Occupied:

       1A    -20.569420     2A    -11.287529     3A    -11.275095
       4A    -11.232188     5A    -11.231113     6A    -11.224540
       7A    -11.222375     8A    -11.221594     9A     -1.407631
      10A     -1.152577    11A     -1.022369    12A     -1.018467
      13A     -0.937588    14A     -0.837859    15A     -0.809845
      16A     -0.720116    17A     -0.669555    18A     -0.667141
      19A     -0.644706    20A     -0.616781    21A     -0.597331
      22A     -0.586347    23A     -0.532384    24A     -0.512926
      25A     -0.508862    26A     -0.487194    27A     -0.446420
      28A     -0.340194    29A     -0.321370

  @DF-RHF Final Energy:  -344.70100647334391

   => Energetics <=

    Nuclear Repulsion Energy =            348.6281292694753802
    One-Electron Energy =               -1158.4552282254121565
    Two-Electron Energy =                 465.1260924825931511
    DFT Exchange-Correlation Energy =       0.0000000000000000
    Empirical Dispersion Energy =           0.0000000000000000
    PCM Polarization Energy =               0.0000000000000000
    EFP Energy =                            0.0000000000000000
    Total Energy =                       -344.7010064733436252
    Molecular point group: c1
  Basis Set: CC-PVTZ
  Basis Set:

  -Total Gradient:
     Atom            X                  Y                   Z
    ------   -----------------  -----------------  -----------------
       1        0.000004595798    -0.000011608357     0.000004188520
       2       -0.000002153477     0.000075050212    -0.000083178298
       3        0.000073368622    -0.000024411234     0.000054971663
       4       -0.000052220905    -0.000037649004     0.000060775229
       5       -0.000013909410     0.000010654569    -0.000011597448
       6       -0.000022116405    -0.000014945597     0.000009156118
       7       -0.000002487813    -0.000000334851    -0.000007894799
       8        0.000001305060     0.000056053205     0.000203314503
       9        0.000006196108     0.000003398855    -0.000009078831
      10       -0.000040355818    -0.000178436398    -0.000368423201
      11        0.000007021033    -0.000013965595    -0.000001034300
      12        0.000002516325     0.000345262885     0.000243288515
      13        0.000018569683    -0.000218507847    -0.000112924484
      14        0.000014713756     0.000014986078     0.000002300762
      15       -0.000003192809    -0.000000987128     0.000001169853
      16        0.000008150259    -0.000004559794     0.000014966198

  **** Optimization is complete! (in 8 steps) ****
    Final optimized geometry and variables:
    Molecular point group: c1

    Geometry (in Angstrom), charge = 0, multiplicity = 1:

    H           -3.297411939536    -0.429732745871    -0.199296249059
    C           -2.238484230441    -0.301488621888    -0.085414858356
    C           -1.455842521636    -1.338655227315     0.385849414943
    C           -1.643987968533     0.904919591174    -0.402060623271
    H           -1.906654900873    -2.279257512132     0.639448995596
    C           -0.091702373876    -1.177018778662     0.530609108155
    H           -2.243149348180     1.720670221201    -0.759737220519
    C           -0.281102459741     1.078888452267    -0.253253823662
    H            0.526069045549    -1.973168732994     0.897370557903
    C            0.497257095396     0.031997647920     0.209097942351
    H            0.170275559402     2.024259321947    -0.481979084618
    O            1.831889995384     0.165091228911     0.410825154993
    C            2.622288525658     0.509846636792    -0.694782205500
    H            2.480337808879    -0.194547204615    -1.507155642186
    H            3.649705883425     0.473531030237    -0.366076468292
    H            2.404831138197     1.509091213860    -1.052086602540

  Mulliken Charges: (a.u.)
   Center  Symbol    Alpha    Beta     Spin     Total
       1     H     0.42372  0.42372  0.00000  0.15256
       2     C     3.09086  3.09086  0.00000 -0.18172
       3     C     3.06371  3.06371  0.00000 -0.12742
       4     C     3.06646  3.06646  0.00000 -0.13292
       5     H     0.42229  0.42229  0.00000  0.15543
       6     C     3.11255  3.11255  0.00000 -0.22509
       7     H     0.42246  0.42246  0.00000  0.15507
       8     C     3.11828  3.11828  0.00000 -0.23656
       9     H     0.41789  0.41789  0.00000  0.16422
      10     C     2.85588  2.85588  0.00000  0.28823
      11     H     0.42227  0.42227  0.00000  0.15545
      12     O     4.17407  4.17407  0.00000 -0.34813
      13     C     3.03621  3.03621  0.00000 -0.07242
      14     H     0.46481  0.46481  0.00000  0.07039
      15     H     0.44389  0.44389  0.00000  0.11221
      16     H     0.46465  0.46465  0.00000  0.07069

   Total alpha = 29.00000, Total beta = 29.00000, Total charge =  0.00000

*** Psi4 exiting successfully. Buy a developer a beer!
