  ==> Input File <==

--------------------------------------------------------------------------
set {
	reference rhf
	basis 6-31G*
}

set_num_threads( 4 )
memory 2 gb

molecule MOL {
0 1

H	 -0.422506	 -1.459103	 -0.564999
N	 -0.626943	 -0.667432	 -0.000092
C	 -1.979713	 -0.158776	 0.000050
C	 0.375042	 -0.121757	 0.730956
H	 -2.520245	 -0.492427	 -0.879443
H	 -1.934741	 0.918111	 -0.004428
H	 -2.517790	 -0.485056	 0.883818
C	 1.714108	 -0.815401	 0.580138
O	 0.225223	 0.833030	 1.442400
H	 2.044741	 -0.788627	 -0.453457
H	 2.440179	 -0.311625	 1.200402
H	 1.643247	 -1.855479	 0.882713

	symmetry c1
}
set optking {
	frozen_dihedral = ("
		4 2 3 5
	")
}

ee = optimize('scf')
oeprop('DIPOLE', 'QUADRUPOLE', 'MULLIKEN_CHARGES')
f=open( 'psi4out.xyz', 'w' )
f.write( "12  " )
f.write( str(ee) + "\n" )
f.write( MOL.save_string_xyz() )
f.close()
--------------------------------------------------------------------------

    Molecular point group: c1
  Charge       = 0
  Multiplicity = 1
  Basis Set: 6-31G*
  Basis Set:
  @DF-RHF Final Energy:  -247.00516719397766
    Total Energy =                       -247.0051671939777975
    Molecular point group: c1
  Basis Set: 6-31G*
  Basis Set:
  Basis Set: 6-31G*
  Basis Set:
  @DF-RHF Final Energy:  -247.00554216010335
    Total Energy =                       -247.0055421601033459
  Basis Set: 6-31G*
  Basis Set:
  Basis Set: 6-31G*
  Basis Set:
  @DF-RHF Final Energy:  -247.00559961811206
    Total Energy =                       -247.0055996181122282
  Basis Set: 6-31G*
  Basis Set:
  Basis Set: 6-31G*
  Basis Set:
  @DF-RHF Final Energy:  -247.00562301086447
    Total Energy =                       -247.0056230108647810
  Basis Set: 6-31G*
  Basis Set:
  @DF-RHF Final Energy:  -247.00563426279982
    Total Energy =                       -247.0056342627999584
  @DF-RHF Final Energy:  -247.00564408268269
    Total Energy =                       -247.0056440826828066
  @DF-RHF Final Energy:  -247.00565253797612
    Total Energy =                       -247.0056525379762888
  @DF-RHF Final Energy:  -247.00567167850224
    Total Energy =                       -247.0056716785024946
  @DF-RHF Final Energy:  -247.00568097204743
    Total Energy =                       -247.0056809720475712
  @DF-RHF Final Energy:  -247.00568315093494
    Total Energy =                       -247.0056831509351127
  @DF-RHF Final Energy:  -247.00568866056767
    Total Energy =                       -247.0056886605675572
  @DF-RHF Final Energy:  -247.00576174935327
    Total Energy =                       -247.0057617493531552
  @DF-RHF Final Energy:  -247.00578198629231
    Total Energy =                       -247.0057819862921633
  Basis Set: 6-31G*
  Basis Set:
  @DF-RHF Final Energy:  -247.00569753793047
    Total Energy =                       -247.0056975379305300
  Basis Set: 6-31G*
  Basis Set:
  Basis Set: 6-31G*
  Basis Set:
  @DF-RHF Final Energy:  -247.00580872068809
    Total Energy =                       -247.0058087206881510
  Basis Set: 6-31G*
  Basis Set:
  Basis Set: 6-31G*
  Basis Set:
  @DF-RHF Final Energy:  -247.00581178090911
    Total Energy =                       -247.0058117809091982
  Basis Set: 6-31G*
  Basis Set:
  Charge       = 0
  Multiplicity = 1
  Basis Set: 6-31G*
  Basis Set:

    Orbital Energies (a.u.)
    -----------------------

    Doubly Occupied:

       1A    -20.514329     2A    -15.582590     3A    -11.342015
       4A    -11.254862     5A    -11.230099     6A     -1.383664
       7A     -1.228443     8A     -1.015138     9A     -0.932485
      10A     -0.787666    11A     -0.689082    12A     -0.648160
      13A     -0.632678    14A     -0.584932    15A     -0.579625
      16A     -0.554854    17A     -0.546454    18A     -0.503184
      19A     -0.412632    20A     -0.385522

  @DF-RHF Final Energy:  -247.00581238567301

   => Energetics <=

    Nuclear Repulsion Energy =            181.4627058619510365
    One-Electron Energy =                -695.3202100348162276
    Two-Electron Energy =                 266.8516917871920668
    DFT Exchange-Correlation Energy =       0.0000000000000000
    Empirical Dispersion Energy =           0.0000000000000000
    PCM Polarization Energy =               0.0000000000000000
    EFP Energy =                            0.0000000000000000
    Total Energy =                       -247.0058123856731527
    Molecular point group: c1
  Basis Set: 6-31G*
  Basis Set:

  -Total Gradient:
     Atom            X                  Y                   Z
    ------   -----------------  -----------------  -----------------
       1        0.000006969063    -0.000015379820    -0.000002886948
       2       -0.000031554633    -0.000107951672     0.000113415279
       3       -0.000045935208    -0.000096137958     0.000017163427
       4        0.000053992870     0.000090809369    -0.000139548707
       5        0.000039283948     0.000121461573    -0.000039790995
       6       -0.000008705483    -0.000001232688     0.000005040499
       7       -0.000001218445    -0.000001807888    -0.000004014660
       8        0.000009195570     0.000035046285    -0.000004025678
       9       -0.000006371796     0.000012129105     0.000041717159
      10        0.000000673531    -0.000018511891     0.000000047203
      11       -0.000007502061    -0.000006564325     0.000008574891
      12       -0.000008827358    -0.000011860089     0.000004308529

  **** Optimization is complete! (in 17 steps) ****
    Final optimized geometry and variables:
    Molecular point group: c1

    Geometry (in Angstrom), charge = 0, multiplicity = 1:

    H           -0.315097688347    -1.128012789982    -1.283972707143
    N           -0.517930470947    -0.372729406006    -0.672041465877
    C           -1.886900419182     0.082537100606    -0.570311678109
    C            0.439168477903     0.043842575660     0.188514467032
    H           -2.382398403990    -0.074641132736    -1.519788500948
    H           -1.896657686493     1.136714221145    -0.338597331962
    H           -2.435098186400    -0.443908021096     0.204578219497
    C            1.794443145628    -0.613259404864     0.029653772788
    O            0.233179349984     0.870076905428     1.035053647565
    H            1.953201738701    -1.026327708503    -0.959809299283
    H            2.561669215295     0.117580884026     0.244054103662
    H            1.881731977980    -1.414130900920     0.756974122926

  Mulliken Charges: (a.u.)
   Center  Symbol    Alpha    Beta     Spin     Total
       1     H     0.30997  0.30997  0.00000  0.38006
       2     N     3.89276  3.89276  0.00000 -0.78552
       3     C     3.13719  3.13719  0.00000 -0.27437
       4     C     2.62977  2.62977  0.00000  0.74047
       5     H     0.41716  0.41716  0.00000  0.16568
       6     H     0.39467  0.39467  0.00000  0.21066
       7     H     0.41364  0.41364  0.00000  0.17272
       8     C     3.29107  3.29107  0.00000 -0.58215
       9     O     4.30320  4.30320  0.00000 -0.60639
      10     H     0.41652  0.41652  0.00000  0.16697
      11     H     0.39399  0.39399  0.00000  0.21202
      12     H     0.40007  0.40007  0.00000  0.19986

   Total alpha = 20.00000, Total beta = 20.00000, Total charge =  0.00000
