                              Psi4 1.0.54 Driver

  ==> Input File <==

--------------------------------------------------------------------------
set {
	reference rhf
	basis cc-pvtz
}

set_num_threads( 4 )
memory 2 gb

molecule MOL {
0 1

H	 -3.258660	 -0.290394	 1.471450
C	 -3.307964	 -0.275695	 0.374072
C	 -2.653809	 0.914422	 -0.273689
O	 -3.855140	 -1.148880	 -0.205112
C	 -1.216901	 1.136108	 0.207794
H	 -2.700131	 0.790676	 -1.347875
H	 -3.256452	 1.781007	 -0.010713
C	 -0.247837	 0.040196	 -0.230469
H	 -0.872882	 2.093195	 -0.169002
H	 -1.209325	 1.218376	 1.291938
C	 1.181757	 0.280428	 0.247371
H	 -0.259600	 -0.030819	 -1.314870
H	 -0.591284	 -0.923375	 0.136958
C	 2.151032	 -0.811012	 -0.202643
H	 1.515939	 1.247397	 -0.115449
H	 1.191514	 0.341223	 1.333422
C	 3.580021	 -0.656538	 0.320835
H	 2.170545	 -0.847575	 -1.289412
H	 1.766632	 -1.772905	 0.124928
C	 4.580059	 -0.120758	 -0.700903
H	 3.923706	 -1.626068	 0.667656
H	 3.574045	 -0.008549	 1.193406
H	 4.602856	 -0.745677	 -1.588006
H	 4.340424	 0.888476	 -1.013486
H	 5.581062	 -0.102657	 -0.285415

	symmetry c1
}
set optking {
	frozen_dihedral = ("
		20 17 14 18
	")
}

ee,wfn = optimize('scf', return_wfn=True)
oeprop( wfn, 'DIPOLE', 'QUADRUPOLE', 'MULLIKEN_CHARGES')
f=open( 'psi4out.xyz', 'w' )
f.write( "25  " )
f.write( str(ee) + "\n" )
f.write( MOL.save_string_xyz() )
f.close()
--------------------------------------------------------------------------

    Molecular point group: c1
  Charge       = 0
  Multiplicity = 1
  Basis Set: CC-PVTZ
  Basis Set:
  @DF-RHF Final Energy:  -387.25692019223777
    Total Energy =                       -387.2569201922376578
    Molecular point group: c1
  Basis Set: CC-PVTZ
  Basis Set:
  Basis Set: CC-PVTZ
  Basis Set:
  @DF-RHF Final Energy:  -387.25753219053593
    Total Energy =                       -387.2575321905352439
  Basis Set: CC-PVTZ
  Basis Set:
  Basis Set: CC-PVTZ
  Basis Set:
  @DF-RHF Final Energy:  -387.25758535872319
    Total Energy =                       -387.2575853587233041
  Basis Set: CC-PVTZ
  Basis Set:
  Basis Set: CC-PVTZ
  Basis Set:
  @DF-RHF Final Energy:  -387.25756677822523
    Total Energy =                       -387.2575667782250548
  Basis Set: CC-PVTZ
  Basis Set:
  Basis Set: CC-PVTZ
  Basis Set:
  @DF-RHF Final Energy:  -387.25757769638136
    Total Energy =                       -387.2575776963810767
  Basis Set: CC-PVTZ
  Basis Set:
  Basis Set: CC-PVTZ
  Basis Set:
  @DF-RHF Final Energy:  -387.25759146705883
    Total Energy =                       -387.2575914670587736
  Basis Set: CC-PVTZ
  Basis Set:
  Charge       = 0
  Multiplicity = 1
  Basis Set: CC-PVTZ
  Basis Set:

    Orbital Energies (a.u.)
    -----------------------

    Doubly Occupied:

       1A    -20.551393     2A    -11.320994     3A    -11.233819
       4A    -11.232904     5A    -11.221569     6A    -11.218367
       7A    -11.215722     8A    -11.214634     9A    -11.209327
      10A     -1.406410    11A     -1.105064    12A     -1.070203
      13A     -1.015342    14A     -0.943937    15A     -0.870939
      16A     -0.817851    17A     -0.791516    18A     -0.787341
      19A     -0.667951    20A     -0.663627    21A     -0.635456
      22A     -0.623604    23A     -0.607172    24A     -0.593494
      25A     -0.575111    26A     -0.553124    27A     -0.534515
      28A     -0.525246    29A     -0.510488    30A     -0.500283
      31A     -0.486949    32A     -0.481851    33A     -0.467338
      34A     -0.458661    35A     -0.440892    36A     -0.411895

  @DF-RHF Final Energy:  -387.25759178844629

   => Energetics <=

    Nuclear Repulsion Energy =            437.9766270067045184
    One-Electron Energy =               -1392.5384541712314785
    Two-Electron Energy =                 567.3042353760806691
    DFT Exchange-Correlation Energy =       0.0000000000000000
    Empirical Dispersion Energy =           0.0000000000000000
    PCM Polarization Energy =               0.0000000000000000
    EFP Energy =                            0.0000000000000000
    Total Energy =                       -387.2575917884462342
    Molecular point group: c1
  Basis Set: CC-PVTZ
  Basis Set:

  -Total Gradient:
     Atom            X                  Y                   Z
    ------   -----------------  -----------------  -----------------
       1        0.000001426401    -0.000001457754    -0.000001446404
       2       -0.000008180086     0.000011630835     0.000009920823
       3        0.000001705229    -0.000001843164    -0.000010786327
       4        0.000002366849    -0.000001255819    -0.000002095518
       5        0.000004155040    -0.000001336131     0.000004455708
       6        0.000000850736    -0.000005223033     0.000000682872
       7        0.000004766757     0.000002895844    -0.000002727779
       8        0.000005145579     0.000002580623    -0.000010270430
       9       -0.000007922316     0.000006167868     0.000001412790
      10        0.000003049240    -0.000009238660    -0.000002107455
      11        0.000000670198    -0.000004250964     0.000024808179
      12       -0.000007279808    -0.000000613743    -0.000003122781
      13        0.000009626859    -0.000000593478     0.000001691557
      14        0.000690695751    -0.004611374643     0.000065761663
      15       -0.000006717297    -0.000007008361     0.000001108001
      16       -0.000006061037     0.000000694583     0.000006927321
      17       -0.000828152914     0.003695855747     0.000722049766
      18       -0.000380050397     0.003067136821    -0.000232058024
      19        0.000007890759    -0.000002640200     0.000005824784
      20        0.000518314244    -0.002126473310    -0.000575102917
      21       -0.000014737046    -0.000006336946    -0.000008599079
      22        0.000001229043     0.000005356414    -0.000000772348
      23        0.000006668878    -0.000010946284    -0.000001983825
      24        0.000001409064    -0.000004137209    -0.000002364369
      25       -0.000000869729     0.000002410961     0.000008793792

  **** Optimization is complete! (in 7 steps) ****
    Final optimized geometry and variables:
    Molecular point group: c1

    Geometry (in Angstrom), charge = 0, multiplicity = 1:

    H           -3.367515813668    -0.113930966877     1.376346983112
    C           -3.356302776978    -0.086370759454     0.278158206307
    C           -2.616259945922     1.079714820532    -0.318978413836
    O           -3.909007246120    -0.928565740546    -0.340319550326
    C           -1.200494391805     1.234479745311     0.244054216805
    H           -2.607728089976     0.967547743761    -1.395406520319
    H           -3.195027729495     1.969307096103    -0.080301537182
    C           -0.256143908376     0.101593535347    -0.152376928952
    H           -0.795137716751     2.179101094933    -0.102023408426
    H           -1.250094236786     1.306461502081     1.327780138481
    C            1.154478743176     0.278025880720     0.401106717353
    H           -0.214632414290     0.037259683882    -1.236421109504
    H           -0.657806349008    -0.849140260632     0.189192892333
    C            2.103759396335    -0.855990748792     0.013834769507
    H            1.561267482685     1.223860119274     0.050458535440
    H            1.109108726870     0.350657678512     1.484971324755
    C            3.544690810331    -0.637358287571     0.508764208019
    H            2.104418028014    -0.937945328528    -1.069309047489
    H            1.711207922396    -1.790648570595     0.399656392592
    C            4.487019713145    -0.116876568617    -0.573428528605
    H            3.944227234957    -1.572548059694     0.886674804249
    H            3.542074036077     0.047697651685     1.350763368363
    H            4.572253292443    -0.830290797901    -1.385728130896
    H            4.131391322103     0.818777861029    -0.993339325882
    H            5.481515257690     0.057146367329    -0.178433885546

  Mulliken Charges: (a.u.)
   Center  Symbol    Alpha    Beta     Spin     Total
       1     H     0.46419  0.46419  0.00000  0.07163
       2     C     2.90478  2.90478  0.00000  0.19045
       3     C     3.08906  3.08906  0.00000 -0.17812
       4     O     4.16624  4.16624  0.00000 -0.33248
       5     C     3.11610  3.11610  0.00000 -0.23221
       6     H     0.44292  0.44292  0.00000  0.11417
       7     H     0.44047  0.44047  0.00000  0.11906
       8     C     3.09155  3.09155  0.00000 -0.18309
       9     H     0.44310  0.44310  0.00000  0.11379
      10     H     0.44985  0.44985  0.00000  0.10031
      11     C     3.09087  3.09087  0.00000 -0.18173
      12     H     0.44944  0.44944  0.00000  0.10112
      13     H     0.44846  0.44846  0.00000  0.10309
      14     C     3.09564  3.09564  0.00000 -0.19128
      15     H     0.45290  0.45290  0.00000  0.09421
      16     H     0.45356  0.45356  0.00000  0.09287
      17     C     3.09126  3.09126  0.00000 -0.18252
      18     H     0.45470  0.45470  0.00000  0.09059
      19     H     0.44585  0.44585  0.00000  0.10830
      20     C     3.14734  3.14734  0.00000 -0.29467
      21     H     0.44819  0.44819  0.00000  0.10361
      22     H     0.45482  0.45482  0.00000  0.09036
      23     H     0.45401  0.45401  0.00000  0.09197
      24     H     0.45597  0.45597  0.00000  0.08805
      25     H     0.44873  0.44873  0.00000  0.10254

   Total alpha = 36.00000, Total beta = 36.00000, Total charge = -0.00000

*** Psi4 exiting successfully. Buy a developer a beer!
