  ==> Input File <==

--------------------------------------------------------------------------
set {
	reference rhf
	basis 6-31G*
}

set_num_threads( 1 )
memory 2 gb

molecule MOL {
0 1

O	 -0.219478	 -0.216092	 -2.959252
C	 -0.863976	 0.225768	 -2.057134
C	 -0.889235	 -0.467034	 -0.705952
C	 -1.656994	 1.505620	 -2.200227
C	 0.379448	 -0.143569	 0.099626
H	 -0.941501	 -1.535431	 -0.885117
H	 -1.771128	 -0.174852	 -0.142994
C	 1.631333	 -0.777471	 -0.511575
H	 0.482768	 0.934507	 0.149241
H	 0.263088	 -0.495696	 1.123449
C	 2.915987	 -0.544314	 0.291766
H	 1.766672	 -0.399098	 -1.523130
H	 1.471257	 -1.849544	 -0.605828
C	 3.373361	 0.914346	 0.347591
H	 3.708709	 -1.142521	 -0.150311
H	 2.780642	 -0.921148	 1.303579
H	 3.506512	 1.320010	 -0.651625
H	 4.322697	 0.999599	 0.867103
H	 2.660624	 1.545032	 0.868198
H	 -2.719176	 1.287316	 -2.126905
H	 -1.450059	 1.964402	 -3.157035
H	 -1.416613	 2.198446	 -1.398969

	symmetry c1
}
set optking {
	frozen_dihedral = ("
		6 3 2 1,
		3 5 8 12,
		12 8 11 15
	")
}

ee = energy('scf')
oeprop('DIPOLE', 'QUADRUPOLE', 'MULLIKEN_CHARGES')
f=open( 'psi4out.xyz', 'w' )
f.write( "22  " )
f.write( str(ee) + "\n" )
f.write( MOL.save_string_xyz() )
f.close()
--------------------------------------------------------------------------

    Molecular point group: c1

    Geometry (in Angstrom), charge = 0, multiplicity = 1:

       Center              X                  Y                   Z               Mass
    ------------   -----------------  -----------------  -----------------  -----------------
           O         -0.814828481196    -0.293775167539    -1.990457990439    15.994914619560
           C         -1.459326481196     0.148084832461    -1.088339990439    12.000000000000
           C         -1.484585481196    -0.544717167539     0.262842009561    12.000000000000
           C         -2.252344481196     1.427936832461    -1.231432990439    12.000000000000
           C         -0.215902481196    -0.221252167539     1.068420009561    12.000000000000
           H         -1.536851481196    -1.613114167539     0.083677009561     1.007825032070
           H         -2.366478481196    -0.252535167539     0.825800009561     1.007825032070
           C          1.035982518804    -0.855154167539     0.457219009561    12.000000000000
           H         -0.112582481196     0.856823832461     1.118035009561     1.007825032070
           H         -0.332262481196    -0.573379167539     2.092243009561     1.007825032070
           C          2.320636518804    -0.621997167539     1.260560009561    12.000000000000
           H          1.171321518804    -0.476781167539    -0.554335990439     1.007825032070
           H          0.875906518804    -1.927227167539     0.362966009561     1.007825032070
           C          2.778010518804     0.836662832461     1.316385009561    12.000000000000
           H          3.113358518804    -1.220204167539     0.818483009561     1.007825032070
           H          2.185291518804    -0.998831167539     2.272373009561     1.007825032070
           H          2.911161518804     1.242326832461     0.317169009561     1.007825032070
           H          3.727346518804     0.921915832461     1.835897009561     1.007825032070
           H          2.065273518804     1.467348832461     1.836992009561     1.007825032070
           H         -3.314526481196     1.209632832461    -1.158110990439     1.007825032070
           H         -2.045409481196     1.886718832461    -2.188240990439     1.007825032070
           H         -2.011963481196     2.120762832461    -0.430174990439     1.007825032070

  Charge       = 0
  Multiplicity = 1
  Basis Set: 6-31G*
  Basis Set:

    Orbital Energies (a.u.)
    -----------------------

    Doubly Occupied:

       1A    -20.548906     2A    -11.325740     3A    -11.229549
       4A    -11.229347     5A    -11.228876     6A    -11.214112
       7A    -11.210042     8A    -11.207958     9A     -1.395396
      10A     -1.092188    11A     -1.041708    12A     -0.999190
      13A     -0.932975    14A     -0.856116    15A     -0.782385
      16A     -0.733273    17A     -0.659965    18A     -0.644833
      19A     -0.625272    20A     -0.609396    21A     -0.597626
      22A     -0.581082    23A     -0.563995    24A     -0.543956
      25A     -0.531074    26A     -0.515036    27A     -0.506228
      28A     -0.484759    29A     -0.464257    30A     -0.457447
      31A     -0.450404    32A     -0.396316

  @DF-RHF Final Energy:  -348.09618228777873

   => Energetics <=

    Nuclear Repulsion Energy =            383.0137259565582895
    One-Electron Energy =               -1230.9011647717093183
    Two-Electron Energy =                 499.7912565273724113
    DFT Exchange-Correlation Energy =       0.0000000000000000
    Empirical Dispersion Energy =           0.0000000000000000
    PCM Polarization Energy =               0.0000000000000000
    EFP Energy =                            0.0000000000000000
    Total Energy =                       -348.0961822877785607

  Mulliken Charges: (a.u.)
   Center  Symbol    Alpha    Beta     Spin     Total
       1     O     4.26086  4.26086  0.00000 -0.52172
       2     C     2.73894  2.73894  0.00000  0.52213
       3     C     3.20167  3.20167  0.00000 -0.40333
       4     C     3.28877  3.28877  0.00000 -0.57753
       5     C     3.16463  3.16463  0.00000 -0.32925
       6     H     0.40127  0.40127  0.00000  0.19746
       7     H     0.41455  0.41455  0.00000  0.17090
       8     C     3.15631  3.15631  0.00000 -0.31261
       9     H     0.41906  0.41906  0.00000  0.16188
      10     H     0.41518  0.41518  0.00000  0.16964
      11     C     3.15343  3.15343  0.00000 -0.30686
      12     H     0.40369  0.40369  0.00000  0.19263
      13     H     0.42057  0.42057  0.00000  0.15886
      14     C     3.24175  3.24175  0.00000 -0.48350
      15     H     0.41898  0.41898  0.00000  0.16204
      16     H     0.42560  0.42560  0.00000  0.14881
      17     H     0.42015  0.42015  0.00000  0.15969
      18     H     0.41898  0.41898  0.00000  0.16205
      19     H     0.42282  0.42282  0.00000  0.15436
      20     H     0.40648  0.40648  0.00000  0.18703
      21     H     0.39710  0.39710  0.00000  0.20580
      22     H     0.40923  0.40923  0.00000  0.18155

   Total alpha = 32.00000, Total beta = 32.00000, Total charge = -0.00000
