  ==> Input File <==

--------------------------------------------------------------------------
set {
	reference rhf
	basis cc-pvtz
}

set_num_threads( 4 )
memory 2 gb

molecule MOL {
0 1

H	 -3.144994	 -1.202467	 -0.018751
O	 -2.321472	 -0.864941	 -0.318626
C	 -2.021813	 0.336996	 0.342658
C	 -0.669613	 0.837286	 -0.127252
H	 -2.780861	 1.084746	 0.127159
H	 -2.006390	 0.184138	 1.420053
C	 0.490865	 -0.082543	 0.241244
H	 -0.708709	 0.967192	 -1.204587
H	 -0.507562	 1.822272	 0.303070
C	 0.233425	 -0.889609	 1.510486
H	 1.390123	 0.510133	 0.364235
H	 0.681781	 -0.765230	 -0.584353
C	 1.389535	 -1.814900	 1.875223
H	 0.044673	 -0.208218	 2.335581
H	 -0.672793	 -1.477423	 1.388283
H	 2.302793	 -1.252591	 2.038577
H	 1.177332	 -2.371865	 2.780797
H	 1.581874	 -2.531817	 1.083717

	symmetry c1
}
set optking {
	frozen_dihedral = ("
		10 7 4 8
	")
}

ee = optimize('scf')
oeprop('DIPOLE', 'QUADRUPOLE', 'MULLIKEN_CHARGES')
f=open( 'psi4out.xyz', 'w' )
f.write( "18  " )
f.write( str(ee) + "\n" )
f.write( MOL.save_string_xyz() )
f.close()
--------------------------------------------------------------------------

    Molecular point group: c1
  Charge       = 0
  Multiplicity = 1
  Basis Set: CC-PVTZ
  Basis Set:
  @DF-RHF Final Energy:  -271.27875829574492
    Total Energy =                       -271.2787582957447512
    Molecular point group: c1
  Basis Set: CC-PVTZ
  Basis Set:
  Basis Set: CC-PVTZ
  Basis Set:
  @DF-RHF Final Energy:  -271.28042251755500
    Total Energy =                       -271.2804225175551096
  Basis Set: CC-PVTZ
  Basis Set:
  Basis Set: CC-PVTZ
  Basis Set:
  @DF-RHF Final Energy:  -271.28120717265131
    Total Energy =                       -271.2812071726510794
  Basis Set: CC-PVTZ
  Basis Set:
  Basis Set: CC-PVTZ
  Basis Set:
  @DF-RHF Final Energy:  -271.28136314961279
    Total Energy =                       -271.2813631496129574
  Basis Set: CC-PVTZ
  Basis Set:
  Basis Set: CC-PVTZ
  Basis Set:
  @DF-RHF Final Energy:  -271.28137541442163
    Total Energy =                       -271.2813754144215750
  Basis Set: CC-PVTZ
  Basis Set:
  Charge       = 0
  Multiplicity = 1
  Basis Set: CC-PVTZ
  Basis Set:

    Orbital Energies (a.u.)
    -----------------------

    Doubly Occupied:

       1A    -20.547179     2A    -11.265194     3A    -11.211297
       4A    -11.206785     5A    -11.206122     6A    -11.201713
       7A     -1.364641     8A     -1.073783     9A     -1.007361
      10A     -0.913913    11A     -0.834194    12A     -0.766046
      13A     -0.708974    14A     -0.645443    15A     -0.628298
      16A     -0.585137    17A     -0.562557    18A     -0.554375
      19A     -0.538686    20A     -0.497218    21A     -0.492603
      22A     -0.464663    23A     -0.455231    24A     -0.446069
      25A     -0.431706

  @DF-RHF Final Energy:  -271.28137621967841

   => Energetics <=

    Nuclear Repulsion Energy =            255.5202140795146875
    One-Electron Energy =                -874.3848026716957520
    Two-Electron Energy =                 347.5832123725027145
    DFT Exchange-Correlation Energy =       0.0000000000000000
    Empirical Dispersion Energy =           0.0000000000000000
    PCM Polarization Energy =               0.0000000000000000
    EFP Energy =                            0.0000000000000000
    Total Energy =                       -271.2813762196782932
    Molecular point group: c1
  Basis Set: CC-PVTZ
  Basis Set:

  -Total Gradient:
     Atom            X                  Y                   Z
    ------   -----------------  -----------------  -----------------
       1       -0.000016343719    -0.000025279168    -0.000030547535
       2       -0.000014570386     0.000022296500     0.000035778943
       3       -0.000000022649    -0.000083964005     0.000056713442
       4        0.003911913479     0.004204099311    -0.000631238504
       5       -0.000033651714    -0.000035416012     0.000022199012
       6        0.000024203763     0.000023225392     0.000048437360
       7        0.001912169655     0.003813482204     0.003342856522
       8       -0.003700838629    -0.004613988650    -0.000306788907
       9        0.000064092041     0.000016024946    -0.000039277591
      10       -0.001988853781    -0.003207826155    -0.002434555433
      11       -0.000060121089    -0.000019097673     0.000002449567
      12       -0.000003964056    -0.000020280713    -0.000092113175
      13        0.000009934261    -0.000004215325     0.000038990671
      14       -0.000063369169    -0.000003616294    -0.000021352832
      15       -0.000021169685    -0.000102409778     0.000000180583
      16       -0.000008852077     0.000013873168    -0.000013263173
      17        0.000015538663     0.000021729274     0.000009458816
      18       -0.000026094907     0.000001362980     0.000012072231

  **** Optimization is complete! (in 6 steps) ****
    Final optimized geometry and variables:
    Molecular point group: c1

    Geometry (in Angstrom), charge = 0, multiplicity = 1:

    H           -2.717998526350    -0.658348612658    -0.710651235552
    O           -1.852834064225    -0.374923271545    -0.941676467444
    C           -1.543531369459     0.826355039725    -0.281504521061
    C           -0.144847686021     1.261530217574    -0.684368362787
    H           -2.247573173308     1.603650909654    -0.567810492715
    H           -1.618950560245     0.700430319080     0.794345294785
    C            0.998238200608     0.302476588681    -0.302051787761
    H           -0.170246292541     1.357484294759    -1.764266285747
    H            0.028953661915     2.246073860754    -0.262147880221
    C            0.806744388291    -0.513461236485     0.975412390071
    H            1.917708699187     0.875353930376    -0.229573891205
    H            1.145634943545    -0.398439190212    -1.117166715739
    C            2.025474824254    -1.372334186539     1.298488861134
    H            0.608377927727     0.148391413444     1.815492873191
    H           -0.061148817186    -1.151704354271     0.868098947634
    H            2.909826048632    -0.761317538050     1.446622379025
    H            1.869117083269    -1.951622957142     2.201480387142
    H            2.236760141295    -2.067433638893     0.492674722462

  Mulliken Charges: (a.u.)
   Center  Symbol    Alpha    Beta     Spin     Total
       1     H     0.39490  0.39490  0.00000  0.21020
       2     O     4.20229  4.20229  0.00000 -0.40458
       3     C     2.98501  2.98501  0.00000  0.02997
       4     C     3.09887  3.09887  0.00000 -0.19773
       5     H     0.45749  0.45749  0.00000  0.08503
       6     H     0.46551  0.46551  0.00000  0.06897
       7     C     3.08411  3.08411  0.00000 -0.16822
       8     H     0.44985  0.44985  0.00000  0.10031
       9     H     0.45135  0.45135  0.00000  0.09731
      10     C     3.08987  3.08987  0.00000 -0.17975
      11     H     0.45211  0.45211  0.00000  0.09577
      12     H     0.45136  0.45136  0.00000  0.09729
      13     C     3.15180  3.15180  0.00000 -0.30360
      14     H     0.45730  0.45730  0.00000  0.08541
      15     H     0.44793  0.44793  0.00000  0.10415
      16     H     0.45620  0.45620  0.00000  0.08759
      17     H     0.44969  0.44969  0.00000  0.10062
      18     H     0.45437  0.45437  0.00000  0.09126

   Total alpha = 25.00000, Total beta = 25.00000, Total charge = -0.00000
