  ==> Input File <==

--------------------------------------------------------------------------
set {
	reference rhf
	basis 6-31G*
}

set_num_threads( 4 )
memory 2 gb

molecule MOL {
0 1

O	 0.008339	 -0.256255	 0.172268
C	 1.122059	 0.121804	 -0.000188
C	 1.535808	 1.552498	 -0.244771
O	 2.172624	 -0.688929	 0.000216
C	 0.363843	 2.529080	 -0.255959
H	 2.260667	 1.816182	 0.520608
H	 2.077978	 1.577313	 -1.186148
C	 0.810466	 3.970407	 -0.505904
H	 -0.164083	 2.466220	 0.690534
H	 -0.347317	 2.226700	 -1.018403
C	 -0.357691	 4.955401	 -0.519990
H	 1.523469	 4.268034	 0.260334
H	 1.341102	 4.027220	 -1.454201
H	 -0.888118	 4.947185	 0.427762
H	 -0.013979	 5.969409	 -0.698668
H	 -1.071455	 4.705019	 -1.299407
C	 3.452279	 -0.082609	 0.000533
H	 3.583069	 0.529321	 -0.880332
H	 4.163299	 -0.894027	 0.001117
H	 3.582335	 0.529955	 0.881077

	symmetry c1
}
set optking {
	frozen_dihedral = ("
		1 2 4 17
	")
}

ee = optimize('scf')
oeprop('DIPOLE', 'QUADRUPOLE', 'MULLIKEN_CHARGES')
f=open( 'psi4out.xyz', 'w' )
f.write( "20  " )
f.write( str(ee) + "\n" )
f.write( MOL.save_string_xyz() )
f.close()
--------------------------------------------------------------------------

    Molecular point group: c1
  Charge       = 0
  Multiplicity = 1
  Basis Set: 6-31G*
  Basis Set:
  @DF-RHF Final Energy:  -383.91407438629534
    Total Energy =                       -383.9140743862953968
    Molecular point group: c1
  Basis Set: 6-31G*
  Basis Set:
  Basis Set: 6-31G*
  Basis Set:
  @DF-RHF Final Energy:  -383.91172745775037
    Total Energy =                       -383.9117274577504872
  Basis Set: 6-31G*
  Basis Set:
  Basis Set: 6-31G*
  Basis Set:
  @DF-RHF Final Energy:  -383.92240137223592
    Total Energy =                       -383.9224013722360951
  Basis Set: 6-31G*
  Basis Set:
  Basis Set: 6-31G*
  Basis Set:
  @DF-RHF Final Energy:  -383.92524666105464
    Total Energy =                       -383.9252466610546435
  Basis Set: 6-31G*
  Basis Set:
  @DF-RHF Final Energy:  -383.92465813865954
    Total Energy =                       -383.9246581386594244
  @DF-RHF Final Energy:  -383.92569581617875
    Total Energy =                       -383.9256958161785178
  Basis Set: 6-31G*
  Basis Set:
  @DF-RHF Final Energy:  -383.92624624799822
    Total Energy =                       -383.9262462479980513
  Basis Set: 6-31G*
  Basis Set:
  Basis Set: 6-31G*
  Basis Set:
  @DF-RHF Final Energy:  -383.92624918419841
    Total Energy =                       -383.9262491841984684
  Basis Set: 6-31G*
  Basis Set:
  Basis Set: 6-31G*
  Basis Set:
  @DF-RHF Final Energy:  -383.92625266284330
    Total Energy =                       -383.9262526628434671
  Basis Set: 6-31G*
  Basis Set:
  Charge       = 0
  Multiplicity = 1
  Basis Set: 6-31G*
  Basis Set:

    Orbital Energies (a.u.)
    -----------------------

    Doubly Occupied:

       1A    -20.602009     2A    -20.539274     3A    -11.373934
       4A    -11.296610     5A    -11.246012     6A    -11.224456
       7A    -11.223581     8A    -11.213515     9A     -1.463017
      10A     -1.364739    11A     -1.091959    12A     -1.017188
      13A     -0.985664    14A     -0.902015    15A     -0.810823
      16A     -0.767401    17A     -0.700549    18A     -0.689720
      19A     -0.672709    20A     -0.650049    21A     -0.600921
      22A     -0.595088    23A     -0.589360    24A     -0.552285
      25A     -0.541441    26A     -0.523587    27A     -0.511017
      28A     -0.482557    29A     -0.474457    30A     -0.474331
      31A     -0.446470    32A     -0.430541

  @DF-RHF Final Energy:  -383.92625285223465

   => Energetics <=

    Nuclear Repulsion Energy =            383.1839790599312323
    One-Electron Energy =               -1282.1059095637644987
    Two-Electron Energy =                 514.9956776515984984
    DFT Exchange-Correlation Energy =       0.0000000000000000
    Empirical Dispersion Energy =           0.0000000000000000
    PCM Polarization Energy =               0.0000000000000000
    EFP Energy =                            0.0000000000000000
    Total Energy =                       -383.9262528522347111
    Molecular point group: c1
  Basis Set: 6-31G*
  Basis Set:

  -Total Gradient:
     Atom            X                  Y                   Z
    ------   -----------------  -----------------  -----------------
       1        0.000071530973     0.000171671579     0.001013578970
       2       -0.000154801975    -0.000216995104    -0.000907856722
       3       -0.000001384378    -0.000007013307    -0.000001556394
       4        0.000069136430     0.000084135157    -0.001025706361
       5        0.000001144126    -0.000002492564    -0.000001208344
       6       -0.000007228757    -0.000007740165    -0.000005333232
       7        0.000000657576    -0.000006000181    -0.000000595534
       8       -0.000000022687     0.000002944857     0.000002516884
       9        0.000001110143     0.000000263699     0.000003764299
      10       -0.000004051753     0.000000240663    -0.000001355338
      11       -0.000001673575    -0.000003690444    -0.000003349969
      12       -0.000000921983    -0.000000713683     0.000002152855
      13        0.000000949340    -0.000002279223     0.000001254550
      14        0.000000933201     0.000000519922     0.000000782412
      15        0.000001673179    -0.000002385362    -0.000001227953
      16       -0.000001850957     0.000000174390    -0.000000278188
      17       -0.000000469098    -0.000019268430     0.000928667896
      18       -0.000004344658     0.000001805223     0.000004530462
      19        0.000020193357     0.000007073365    -0.000002702212
      20        0.000009421496    -0.000000250389    -0.000006078082

  **** Optimization is complete! (in 10 steps) ****
    Final optimized geometry and variables:
    Molecular point group: c1

    Geometry (in Angstrom), charge = 0, multiplicity = 1:

    O           -1.078033233519    -1.674305365609     0.331937605625
    C            0.034459274444    -1.305510956017     0.164168683043
    C            0.401107417217     0.145322288454    -0.081499124271
    O            1.021803854358    -2.205659344071     0.172971641496
    C           -0.816649990270     1.065911973479    -0.092960407595
    H            1.107278198554     0.464670357466     0.680486854856
    H            0.932658171697     0.208265410653    -1.027919507925
    C           -0.436794994559     2.525770928785    -0.345383996307
    H           -1.338847078381     0.977562612126     0.853848405168
    H           -1.512044301734     0.727331033886    -0.853580125507
    C           -1.650153949638     3.454587381820    -0.359752191702
    H            0.261815505282     2.858577908313     0.419928883663
    H            0.089422581255     2.606824007912    -1.294563580708
    H           -2.178375405311     3.422853932315     0.588611977191
    H           -1.354566420054     4.483217425637    -0.540572372759
    H           -2.351972630676     3.169262043374    -1.137843223345
    C            2.384412817331    -1.852874432320     0.187751331251
    H            2.668051136389    -1.296244437969    -0.696357378013
    H            2.927544921174    -2.784875772822     0.204751626702
    H            2.637078547515    -1.282295945389     1.072876512149

  Mulliken Charges: (a.u.)
   Center  Symbol    Alpha    Beta     Spin     Total
       1     O     4.26732  4.26732  0.00000 -0.53464
       2     C     2.59724  2.59724  0.00000  0.80551
       3     C     3.23494  3.23494  0.00000 -0.46987
       4     O     4.30355  4.30355  0.00000 -0.60711
       5     C     3.14727  3.14727  0.00000 -0.29453
       6     H     0.40503  0.40503  0.00000  0.18994
       7     H     0.40339  0.40339  0.00000  0.19322
       8     C     3.15487  3.15487  0.00000 -0.30974
       9     H     0.40918  0.40918  0.00000  0.18165
      10     H     0.40874  0.40874  0.00000  0.18253
      11     C     3.23954  3.23954  0.00000 -0.47907
      12     H     0.42395  0.42395  0.00000  0.15210
      13     H     0.42365  0.42365  0.00000  0.15270
      14     H     0.41915  0.41915  0.00000  0.16171
      15     H     0.41847  0.41847  0.00000  0.16307
      16     H     0.41901  0.41901  0.00000  0.16198
      17     C     3.09352  3.09352  0.00000 -0.18704
      18     H     0.41722  0.41722  0.00000  0.16556
      19     H     0.39780  0.39780  0.00000  0.20441
      20     H     0.41619  0.41619  0.00000  0.16763

   Total alpha = 32.00000, Total beta = 32.00000, Total charge = -0.00000
