  ==> Input File <==

--------------------------------------------------------------------------
set {
	reference rhf
	basis cc-pvtz
}

set_num_threads( 4 )
memory 2 gb

molecule MOL {
0 1

H	 -1.655618	 -1.660461	 -1.234580
N	 -0.950277	 -0.956851	 -1.289357
C	 -0.561396	 -0.500007	 0.035200
H	 -1.325024	 -0.205351	 -1.829864
C	 0.575129	 0.507849	 -0.048832
H	 -0.230032	 -1.364606	 0.600783
H	 -1.389092	 -0.059735	 0.593316
C	 1.951750	 -0.141983	 0.035101
H	 0.478254	 1.061643	 -0.975981
H	 0.467676	 1.231891	 0.755499
H	 2.101550	 -0.848142	 -0.774949
H	 2.738260	 0.600794	 -0.026526
H	 2.078939	 -0.679792	 0.968824

	symmetry c1
}
set optking {
	frozen_dihedral = ("
		6 3 5 9
	")
}

ee = optimize('scf')
oeprop('DIPOLE', 'QUADRUPOLE', 'MULLIKEN_CHARGES')
f=open( 'psi4out.xyz', 'w' )
f.write( "13  " )
f.write( str(ee) + "\n" )
f.write( MOL.save_string_xyz() )
f.close()
--------------------------------------------------------------------------

    Molecular point group: c1
  Charge       = 0
  Multiplicity = 1
  Basis Set: CC-PVTZ
  Basis Set:
  @DF-RHF Final Energy:  -173.34905690286226
    Total Energy =                       -173.3490569028622588
    Molecular point group: c1
  Basis Set: CC-PVTZ
  Basis Set:
  Basis Set: CC-PVTZ
  Basis Set:
  @DF-RHF Final Energy:  -173.34958109457750
    Total Energy =                       -173.3495810945773883
  Basis Set: CC-PVTZ
  Basis Set:
  Basis Set: CC-PVTZ
  Basis Set:
  @DF-RHF Final Energy:  -173.34967982708068
    Total Energy =                       -173.3496798270806494
  Basis Set: CC-PVTZ
  Basis Set:
  Basis Set: CC-PVTZ
  Basis Set:
  @DF-RHF Final Energy:  -173.34968370710826
    Total Energy =                       -173.3496837071081416
  Basis Set: CC-PVTZ
  Basis Set:
  Charge       = 0
  Multiplicity = 1
  Basis Set: CC-PVTZ
  Basis Set:

    Orbital Energies (a.u.)
    -----------------------

    Doubly Occupied:

       1A    -15.527199     2A    -11.238765     3A    -11.210356
       4A    -11.200238     5A     -1.178172     6A     -1.030903
       7A     -0.899189     8A     -0.796749     9A     -0.661369
      10A     -0.635216    11A     -0.598994    12A     -0.560453
      13A     -0.530060    14A     -0.488146    15A     -0.476599
      16A     -0.468490    17A     -0.383422

  @DF-RHF Final Energy:  -173.34968436506284

   => Energetics <=

    Nuclear Repulsion Energy =            133.2257005590460608
    One-Electron Energy =                -497.3821354250891886
    Two-Electron Energy =                 190.8067505009803142
    DFT Exchange-Correlation Energy =       0.0000000000000000
    Empirical Dispersion Energy =           0.0000000000000000
    PCM Polarization Energy =               0.0000000000000000
    EFP Energy =                            0.0000000000000000
    Total Energy =                       -173.3496843650628136
    Molecular point group: c1
  Basis Set: CC-PVTZ
  Basis Set:

  -Total Gradient:
     Atom            X                  Y                   Z
    ------   -----------------  -----------------  -----------------
       1       -0.000002787614    -0.000001092520    -0.000023406467
       2       -0.000043478169    -0.000017795440     0.000013383593
       3       -0.001223861938     0.001676689476     0.004179817469
       4        0.000004275054    -0.000007529259     0.000014509768
       5       -0.002778944004     0.003293432485     0.001621083343
       6        0.001471371464    -0.001889733399    -0.003773735919
       7        0.000015399756    -0.000002823267    -0.000016694154
       8        0.000022396936    -0.000022547534     0.000005356500
       9        0.002527629846    -0.003030692322    -0.002031738038
      10       -0.000002196380    -0.000006200178     0.000001003133
      11       -0.000009946962    -0.000000042983     0.000010286688
      12        0.000008320402     0.000003236148     0.000005743857
      13        0.000011821612     0.000005098794    -0.000005609772

  **** Optimization is complete! (in 5 steps) ****
    Final optimized geometry and variables:
    Molecular point group: c1

    Geometry (in Angstrom), charge = 0, multiplicity = 1:

    H           -1.803061361465    -1.421161326605    -0.927941331758
    N           -1.142149591699    -0.674361380456    -0.961964918874
    C           -0.814575444031    -0.198829739731     0.376813808832
    H           -1.548108938424     0.054870043776    -1.510086478362
    C            0.339256834837     0.805287938709     0.319249545505
    H           -0.503582317811    -1.071317372318     0.940445656296
    H           -1.669278138319     0.239944495192     0.888378587655
    C            1.709924745343     0.133182551050     0.344576442423
    H            0.260943441471     1.366400357506    -0.607028344134
    H            0.260375713452     1.511216692589     1.138893557834
    H            1.791630219563    -0.592754689008    -0.455407140540
    H            2.506196433681     0.859009083225     0.223114872442
    H            1.874067678779    -0.383169754935     1.284788367796

  Mulliken Charges: (a.u.)
   Center  Symbol    Alpha    Beta     Spin     Total
       1     H     0.42863  0.42863  0.00000  0.14274
       2     N     3.69433  3.69433  0.00000 -0.38865
       3     C     3.02951  3.02951  0.00000 -0.05902
       4     H     0.43056  0.43056  0.00000  0.13888
       5     C     3.07677  3.07677  0.00000 -0.15355
       6     H     0.45946  0.45946  0.00000  0.08107
       7     H     0.46001  0.46001  0.00000  0.07999
       8     C     3.14969  3.14969  0.00000 -0.29938
       9     H     0.46036  0.46036  0.00000  0.07927
      10     H     0.45262  0.45262  0.00000  0.09477
      11     H     0.44811  0.44811  0.00000  0.10378
      12     H     0.45190  0.45190  0.00000  0.09621
      13     H     0.45805  0.45805  0.00000  0.08390

   Total alpha = 17.00000, Total beta = 17.00000, Total charge =  0.00000
