                              Psi4 1.0.54 Driver

  ==> Input File <==

--------------------------------------------------------------------------
set {
	reference rhf
	basis cc-pvtz
}

set_num_threads( 4 )
memory 2 gb

molecule MOL {
0 1

H	 -3.941973	 0.934228	 -0.390224
C	 -3.240162	 0.342701	 0.161016
C	 -2.105997	 -0.000418	 -0.398703
H	 -3.485368	 0.047206	 1.162193
O	 -1.189946	 -0.765863	 0.237511
H	 -1.846458	 0.297311	 -1.398265
C	 0.026572	 -0.995256	 -0.379403
C	 1.057223	 0.049888	 -0.004615
H	 -0.054361	 -1.010670	 -1.459674
H	 0.397526	 -1.952058	 -0.044198
F	 1.496572	 -0.184825	 1.215616
F	 2.094770	 0.028616	 -0.813659
F	 0.560043	 1.262640	 -0.027008

	symmetry c1
}
set optking {
	frozen_dihedral = ("
		11 8 7 9
	")
}

ee,wfn = optimize('scf', return_wfn=True)
oeprop( wfn, 'DIPOLE', 'QUADRUPOLE', 'MULLIKEN_CHARGES')
f=open( 'psi4out.xyz', 'w' )
f.write( "13  " )
f.write( str(ee) + "\n" )
f.write( MOL.save_string_xyz() )
f.close()
--------------------------------------------------------------------------

    Molecular point group: c1
  Charge       = 0
  Multiplicity = 1
  Basis Set: CC-PVTZ
  Basis Set:
  @DF-RHF Final Energy:  -527.74023430205966
    Total Energy =                       -527.7402343020596618
    Molecular point group: c1
  Basis Set: CC-PVTZ
  Basis Set:
  Basis Set: CC-PVTZ
  Basis Set:
  @DF-RHF Final Energy:  -527.74079867554110
    Total Energy =                       -527.7407986755415550
  Basis Set: CC-PVTZ
  Basis Set:
  Basis Set: CC-PVTZ
  Basis Set:
  @DF-RHF Final Energy:  -527.74092098167966
    Total Energy =                       -527.7409209816794373
  Basis Set: CC-PVTZ
  Basis Set:
  Basis Set: CC-PVTZ
  Basis Set:
  @DF-RHF Final Energy:  -527.74093314801064
    Total Energy =                       -527.7409331480112087
  Basis Set: CC-PVTZ
  Basis Set:
  Basis Set: CC-PVTZ
  Basis Set:
  @DF-RHF Final Energy:  -527.74093554941260
    Total Energy =                       -527.7409355494125975
  Basis Set: CC-PVTZ
  Basis Set:
  Basis Set: CC-PVTZ
  Basis Set:
  @DF-RHF Final Energy:  -527.74093696224281
    Total Energy =                       -527.7409369622426993
  Basis Set: CC-PVTZ
  Basis Set:
  Charge       = 0
  Multiplicity = 1
  Basis Set: CC-PVTZ
  Basis Set:

    Orbital Energies (a.u.)
    -----------------------

    Doubly Occupied:

       1A    -26.341984     2A    -26.340425     3A    -26.338108
       4A    -20.604579     5A    -11.498293     6A    -11.319951
       7A    -11.298906     8A    -11.214027     9A     -1.750592
      10A     -1.647728    11A     -1.644590    12A     -1.445162
      13A     -1.087867    14A     -1.020589    15A     -0.932567
      16A     -0.844055    17A     -0.839754    18A     -0.827504
      19A     -0.797021    20A     -0.731070    21A     -0.720282
      22A     -0.703448    23A     -0.681524    24A     -0.667774
      25A     -0.661889    26A     -0.650889    27A     -0.639618
      28A     -0.587848    29A     -0.565913    30A     -0.529893
      31A     -0.517962    32A     -0.356872

  @DF-RHF Final Energy:  -527.74093783831427

   => Energetics <=

    Nuclear Repulsion Energy =            413.0037779486495424
    One-Electron Energy =               -1549.8720667311642956
    Two-Electron Energy =                 609.1273509442002023
    DFT Exchange-Correlation Energy =       0.0000000000000000
    Empirical Dispersion Energy =           0.0000000000000000
    PCM Polarization Energy =               0.0000000000000000
    EFP Energy =                            0.0000000000000000
    Total Energy =                       -527.7409378383146077
    Molecular point group: c1
  Basis Set: CC-PVTZ
  Basis Set:

  -Total Gradient:
     Atom            X                  Y                   Z
    ------   -----------------  -----------------  -----------------
       1       -0.000004785351     0.000004372889     0.000000092510
       2        0.000016773658     0.000002349230     0.000015749358
       3       -0.000090567099     0.000033587394    -0.000017947928
       4        0.000001965533     0.000003827620    -0.000000373534
       5        0.000024553333    -0.000006464626    -0.000000323514
       6        0.000021024731    -0.000011679762    -0.000000007418
       7       -0.002544185998     0.002575428539    -0.000264871319
       8       -0.002474008203     0.001870383689     0.001776692763
       9        0.002655988843    -0.002670869038    -0.000127794592
      10        0.000027609285     0.000025658477    -0.000005351990
      11        0.002216358738    -0.001843252493    -0.001214598363
      12        0.000158064377    -0.000006394173    -0.000175120220
      13       -0.000008791834     0.000023052253     0.000013854247

  **** Optimization is complete! (in 7 steps) ****
    Final optimized geometry and variables:
    Molecular point group: c1

    Geometry (in Angstrom), charge = 0, multiplicity = 1:

    H           -3.966792590762     0.920157871621    -0.370523681745
    C           -3.267350515123     0.313372709409     0.166982924798
    C           -2.115137709361     0.017129381169    -0.382453491429
    H           -3.529039274479    -0.034104971892     1.147092347436
    O           -1.197816652347    -0.758970919341     0.239148890512
    H           -1.839257364184     0.366531307489    -1.360641160915
    C            0.014179949726    -0.979348073592    -0.386093700470
    C            1.059876022315     0.054490075604    -0.007161726369
    H           -0.058393788105    -1.005740884975    -1.466515642184
    H            0.387675645519    -1.938189136221    -0.058141810162
    F            1.515436866807    -0.130848477514     1.210208653728
    F            2.089058010317    -0.047198272004    -0.827487400842
    F            0.603039791686     1.282167256089    -0.087708214290

  Mulliken Charges: (a.u.)
   Center  Symbol    Alpha    Beta     Spin     Total
       1     H     0.42518  0.42518  0.00000  0.14963
       2     C     3.19729  3.19729  0.00000 -0.39458
       3     C     2.95703  2.95703  0.00000  0.08595
       4     H     0.42492  0.42492  0.00000  0.15016
       5     O     4.14403  4.14403  0.00000 -0.28805
       6     H     0.43464  0.43464  0.00000  0.13072
       7     C     3.02365  3.02365  0.00000 -0.04729
       8     C     2.67347  2.67347  0.00000  0.65306
       9     H     0.45501  0.45501  0.00000  0.08999
      10     H     0.43603  0.43603  0.00000  0.12793
      11     F     4.60792  4.60792  0.00000 -0.21584
      12     F     4.61374  4.61374  0.00000 -0.22749
      13     F     4.60709  4.60709  0.00000 -0.21418

   Total alpha = 32.00000, Total beta = 32.00000, Total charge = -0.00000

*** Psi4 exiting successfully. Buy a developer a beer!
