  ==> Input File <==

--------------------------------------------------------------------------
set {
	reference rhf
	basis 6-31G*
}

set_num_threads( 4 )
memory 2 gb

molecule MOL {
0 1

H	 -3.161837	 0.500524	 -0.000234
C	 -2.367097	 -0.232926	 -0.000000
O	 -1.158440	 0.455814	 -0.000122
H	 -2.468853	 -0.861886	 -0.882833
H	 -2.468942	 -0.861421	 0.883154
C	 -1.146795	 1.594937	 -0.806433
C	 0.222158	 2.246290	 -0.714954
H	 -1.920364	 2.292314	 -0.482155
H	 -1.369713	 1.325723	 -1.839748
C	 0.327297	 3.508123	 -1.570294
H	 0.422778	 2.481094	 0.325853
H	 0.969613	 1.521335	 -1.022282
H	 -0.397104	 4.257120	 -1.262607
H	 1.313788	 3.951592	 -1.486529
H	 0.152898	 3.290673	 -2.620391

	symmetry c1
}
set optking {
	frozen_dihedral = ("
		6 3 2 4
	")
}

ee = optimize('scf')
oeprop('DIPOLE', 'QUADRUPOLE', 'MULLIKEN_CHARGES')
f=open( 'psi4out.xyz', 'w' )
f.write( "15  " )
f.write( str(ee) + "\n" )
f.write( MOL.save_string_xyz() )
f.close()
--------------------------------------------------------------------------

    Molecular point group: c1
  Charge       = 0
  Multiplicity = 1
  Basis Set: 6-31G*
  Basis Set:
  @DF-RHF Final Energy:  -232.13720796025711
    Total Energy =                       -232.1372079602571148
    Molecular point group: c1
  Basis Set: 6-31G*
  Basis Set:
  Basis Set: 6-31G*
  Basis Set:
  @DF-RHF Final Energy:  -232.13825545145320
    Total Energy =                       -232.1382554514532330
  Basis Set: 6-31G*
  Basis Set:
  Basis Set: 6-31G*
  Basis Set:
  @DF-RHF Final Energy:  -232.13853900447558
    Total Energy =                       -232.1385390044755468
  Basis Set: 6-31G*
  Basis Set:
  Basis Set: 6-31G*
  Basis Set:
  @DF-RHF Final Energy:  -232.13854042137956
    Total Energy =                       -232.1385404213797869
  Basis Set: 6-31G*
  Basis Set:
  Charge       = 0
  Multiplicity = 1
  Basis Set: 6-31G*
  Basis Set:

    Orbital Energies (a.u.)
    -----------------------

    Doubly Occupied:

       1A    -20.552572     2A    -11.266365     3A    -11.263766
       4A    -11.214136     5A    -11.212878     6A     -1.377037
       7A     -1.057192     8A     -0.955387     9A     -0.877184
      10A     -0.808973    11A     -0.674011    12A     -0.653273
      13A     -0.629950    14A     -0.607738    15A     -0.564992
      16A     -0.542621    17A     -0.502582    18A     -0.488535
      19A     -0.478318    20A     -0.461182    21A     -0.412532

  @DF-RHF Final Energy:  -232.13854073059338

   => Energetics <=

    Nuclear Repulsion Energy =            189.6342444224749215
    One-Electron Energy =                -690.3431158892226449
    Two-Electron Energy =                 268.5703307361542329
    DFT Exchange-Correlation Energy =       0.0000000000000000
    Empirical Dispersion Energy =           0.0000000000000000
    PCM Polarization Energy =               0.0000000000000000
    EFP Energy =                            0.0000000000000000
    Total Energy =                       -232.1385407305934905
    Molecular point group: c1
  Basis Set: 6-31G*
  Basis Set:

  -Total Gradient:
     Atom            X                  Y                   Z
    ------   -----------------  -----------------  -----------------
       1       -0.000001189521    -0.000000785213    -0.000000271590
       2       -0.001717400141     0.002998962473    -0.000999389853
       3        0.001257189260    -0.002206102059    -0.001900521756
       4        0.001123929702    -0.001949325660     0.001299689689
       5        0.000000817286    -0.000001965657     0.000000581754
       6       -0.000667640435     0.001162275797     0.001608677322
       7        0.000001642999    -0.000002111397    -0.000004774874
       8       -0.000003868496     0.000000569608    -0.000002682113
       9        0.000003822062    -0.000003880000     0.000006409643
      10        0.000003731998     0.000001984623    -0.000003721749
      11       -0.000006140638    -0.000003464944    -0.000002029764
      12        0.000003902542     0.000001673041     0.000000332950
      13        0.000000486185    -0.000001673897     0.000000577370
      14        0.000000600335     0.000002108131    -0.000001993744
      15        0.000000116862     0.000001735158    -0.000000883286

  **** Optimization is complete! (in 5 steps) ****
    Final optimized geometry and variables:
    Molecular point group: c1

    Geometry (in Angstrom), charge = 0, multiplicity = 1:

    H           -2.379015981024    -1.051685254275     0.655400394460
    C           -1.525622832162    -1.724509236917     0.613497895966
    O           -0.318007944613    -1.031215698815     0.616009095783
    H           -1.616172716733    -2.360055274162    -0.265270052575
    H           -1.541096168286    -2.358450543264     1.490578696246
    C           -0.294464738558     0.103324320243    -0.197498537526
    C            1.077497795071     0.747061676869    -0.098228734949
    H           -1.066352217535     0.805298570291     0.119242599884
    H           -0.510167974542    -0.167362034341    -1.232074020304
    C            1.194701006934     2.007995410371    -0.953436177122
    H            1.272746197751     0.980825923489     0.943873262266
    H            1.823050195723     0.018178955030    -0.400761639211
    H            0.472229574406     2.760844436529    -0.650613048189
    H            2.182866255652     2.446576124486    -0.863573954227
    H            1.025718711397     1.791148887065    -2.004552767994

  Mulliken Charges: (a.u.)
   Center  Symbol    Alpha    Beta     Spin     Total
       1     H     0.43098  0.43098  0.00000  0.13804
       2     C     3.07844  3.07844  0.00000 -0.15688
       3     O     4.30693  4.30693  0.00000 -0.61385
       4     H     0.42826  0.42826  0.00000  0.14349
       5     H     0.41353  0.41353  0.00000  0.17294
       6     C     2.98152  2.98152  0.00000  0.03695
       7     C     3.15990  3.15990  0.00000 -0.31980
       8     H     0.43292  0.43292  0.00000  0.13415
       9     H     0.43374  0.43374  0.00000  0.13251
      10     C     3.24791  3.24791  0.00000 -0.49582
      11     H     0.41434  0.41434  0.00000  0.17133
      12     H     0.41436  0.41436  0.00000  0.17129
      13     H     0.42092  0.42092  0.00000  0.15817
      14     H     0.41542  0.41542  0.00000  0.16916
      15     H     0.42085  0.42085  0.00000  0.15830

   Total alpha = 21.00000, Total beta = 21.00000, Total charge =  0.00000
