                              Psi4 1.0.54 Driver

  ==> Input File <==

--------------------------------------------------------------------------
set {
	reference rhf
	basis cc-pvtz
}

set_num_threads( 4 )
memory 2 gb

molecule MOL {
0 1

H	 -0.623216	 2.150425	 -2.004812
C	 0.113205	 2.110536	 -1.190606
C	 0.062554	 0.862911	 -0.350953
O	 0.871123	 3.003959	 -1.034050
C	 -1.339253	 0.577611	 0.196911
H	 0.789559	 0.953874	 0.445718
H	 0.369579	 0.040906	 -0.993694
C	 -1.813142	 -0.849710	 -0.061612
H	 -2.032833	 1.276441	 -0.256032
H	 -1.357249	 0.782269	 1.263793
H	 -1.839268	 -1.063526	 -1.124230
H	 -2.810118	 -1.001930	 0.334000
H	 -1.159274	 -1.579980	 0.402282

	symmetry c1
}
set optking {
	frozen_dihedral = ("
		6 3 5 9
	")
}

ee,wfn = optimize('scf', return_wfn=True)
oeprop( wfn, 'DIPOLE', 'QUADRUPOLE', 'MULLIKEN_CHARGES')
f=open( 'psi4out.xyz', 'w' )
f.write( "13  " )
f.write( str(ee) + "\n" )
f.write( MOL.save_string_xyz() )
f.close()
--------------------------------------------------------------------------

    Molecular point group: c1
  Charge       = 0
  Multiplicity = 1
  Basis Set: CC-PVTZ
  Basis Set:
  @DF-RHF Final Energy:  -231.06650871920706
    Total Energy =                       -231.0665087192072065
    Molecular point group: c1
  Basis Set: CC-PVTZ
  Basis Set:
  Basis Set: CC-PVTZ
  Basis Set:
  @DF-RHF Final Energy:  -231.06664510627780
    Total Energy =                       -231.0666451062778322
  Basis Set: CC-PVTZ
  Basis Set:
  Basis Set: CC-PVTZ
  Basis Set:
  @DF-RHF Final Energy:  -231.06674264165147
    Total Energy =                       -231.0667426416512171
  Basis Set: CC-PVTZ
  Basis Set:
  Basis Set: CC-PVTZ
  Basis Set:
  @DF-RHF Final Energy:  -231.06685478258149
    Total Energy =                       -231.0668547825814017
  Basis Set: CC-PVTZ
  Basis Set:
  Basis Set: CC-PVTZ
  Basis Set:
  @DF-RHF Final Energy:  -231.06688048096174
    Total Energy =                       -231.0668804809617427
  Basis Set: CC-PVTZ
  Basis Set:
  Basis Set: CC-PVTZ
  Basis Set:
  @DF-RHF Final Energy:  -231.06688176391722
    Total Energy =                       -231.0668817639171948
  Basis Set: CC-PVTZ
  Basis Set:
  Charge       = 0
  Multiplicity = 1
  Basis Set: CC-PVTZ
  Basis Set:

    Orbital Energies (a.u.)
    -----------------------

    Doubly Occupied:

       1A    -20.552303     2A    -11.321970     3A    -11.237420
       4A    -11.234741     5A    -11.223094     6A     -1.407557
       7A     -1.086199     8A     -0.977900     9A     -0.843583
      10A     -0.794446    11A     -0.677851    12A     -0.648727
      13A     -0.619763    14A     -0.590879    15A     -0.576537
      16A     -0.528844    17A     -0.512894    18A     -0.490280
      19A     -0.485947    20A     -0.413173

  @DF-RHF Final Energy:  -231.06688222493943

   => Energetics <=

    Nuclear Repulsion Energy =            170.7354658900843560
    One-Electron Energy =                -651.1564816155259905
    Two-Electron Energy =                 249.3541335005022574
    DFT Exchange-Correlation Energy =       0.0000000000000000
    Empirical Dispersion Energy =           0.0000000000000000
    PCM Polarization Energy =               0.0000000000000000
    EFP Energy =                            0.0000000000000000
    Total Energy =                       -231.0668822249393770
    Molecular point group: c1
  Basis Set: CC-PVTZ
  Basis Set:

  -Total Gradient:
     Atom            X                  Y                   Z
    ------   -----------------  -----------------  -----------------
       1       -0.000001582018     0.000008326900     0.000027879046
       2        0.000048666863     0.000005062354    -0.000055842647
       3        0.000623033357    -0.002874757426     0.000305998276
       4       -0.000008296616    -0.000019018812    -0.000002078284
       5       -0.000631599378    -0.001394333267    -0.002430721269
       6       -0.000461440168     0.002617581146     0.000160359184
       7        0.000021289163     0.000011401565    -0.000003536890
       8       -0.000002912707     0.000012263827     0.000021119680
       9        0.000419014944     0.001665209942     0.001964928308
      10       -0.000002627409    -0.000021939052     0.000008338228
      11        0.000003763956     0.000011908498     0.000003074028
      12       -0.000006733830    -0.000009432829    -0.000000453479
      13       -0.000000576158    -0.000012272842     0.000000935819

  **** Optimization is complete! (in 7 steps) ****
    Final optimized geometry and variables:
    Molecular point group: c1

    Geometry (in Angstrom), charge = 0, multiplicity = 1:

    H           -0.206909668829     1.070119287335    -1.492807519806
    C            0.534660579517     0.997271505388    -0.685941322833
    C            0.490743761069    -0.283521170422     0.104062171765
    O            1.289056558464     1.886171908396    -0.492880823755
    C           -0.919212634850    -0.578572304351     0.657427773436
    H            1.224825786948    -0.200250507664     0.893034942018
    H            0.802636929709    -1.077263120726    -0.569723690479
    C           -1.383894676908    -2.011335622244     0.424065618235
    H           -1.638054532744     0.114126819859     0.229445490967
    H           -0.922737959543    -0.368092632672     1.720319002382
    H           -1.445096690088    -2.234997152889    -0.635568639294
    H           -2.363067163776    -2.178985657815     0.856544780999
    H           -0.696469343408    -2.720486955766     0.872310810211

  Mulliken Charges: (a.u.)
   Center  Symbol    Alpha    Beta     Spin     Total
       1     H     0.46701  0.46701  0.00000  0.06598
       2     C     2.90303  2.90303  0.00000  0.19393
       3     C     3.08387  3.08387  0.00000 -0.16775
       4     O     4.16393  4.16393  0.00000 -0.32786
       5     C     3.09627  3.09627  0.00000 -0.19253
       6     H     0.44022  0.44022  0.00000  0.11956
       7     H     0.44974  0.44974  0.00000  0.10053
       8     C     3.14644  3.14644  0.00000 -0.29287
       9     H     0.45229  0.45229  0.00000  0.09542
      10     H     0.44408  0.44408  0.00000  0.11185
      11     H     0.45497  0.45497  0.00000  0.09006
      12     H     0.44675  0.44675  0.00000  0.10649
      13     H     0.45141  0.45141  0.00000  0.09718

   Total alpha = 20.00000, Total beta = 20.00000, Total charge =  0.00000

*** Psi4 exiting successfully. Buy a developer a beer!
