  ==> Input File <==

--------------------------------------------------------------------------
set {
	reference rhf
	basis 6-31G*
}

set_num_threads( 4 )
memory 2 gb

molecule MOL {
0 1

H	 -3.261111	 -0.295142	 1.469456
C	 -3.306842	 -0.277400	 0.373456
C	 -2.660244	 0.921717	 -0.272021
O	 -3.838538	 -1.161155	 -0.216482
C	 -1.220012	 1.144545	 0.209990
H	 -2.705793	 0.797307	 -1.347733
H	 -3.263782	 1.790044	 -0.010477
C	 -0.252658	 0.041456	 -0.226725
H	 -0.873521	 2.100229	 -0.171974
H	 -1.211708	 1.231594	 1.295398
C	 1.180775	 0.282413	 0.250794
H	 -0.266029	 -0.034465	 -1.312038
H	 -0.597733	 -0.921000	 0.146291
C	 2.148627	 -0.814315	 -0.201312
H	 1.516199	 1.249228	 -0.115937
H	 1.192670	 0.346017	 1.338083
C	 3.580890	 -0.659131	 0.322722
H	 2.166869	 -0.852443	 -1.289387
H	 1.762857	 -1.776509	 0.128956
C	 4.456678	 0.293019	 -0.493382
H	 4.050073	 -1.639788	 0.334034
H	 3.551503	 -0.325638	 1.358019
H	 4.491364	 -0.006964	 -1.537449
H	 4.092668	 1.314270	 -0.454439
H	 5.475316	 0.296725	 -0.117406

	symmetry c1
}
set optking {
	frozen_dihedral = ("
		20 17 14 18
	")
}

ee = optimize('scf')
oeprop('DIPOLE', 'QUADRUPOLE', 'MULLIKEN_CHARGES')
f=open( 'psi4out.xyz', 'w' )
f.write( "25  " )
f.write( str(ee) + "\n" )
f.write( MOL.save_string_xyz() )
f.close()
--------------------------------------------------------------------------

    Molecular point group: c1
  Charge       = 0
  Multiplicity = 1
  Basis Set: 6-31G*
  Basis Set:
  @DF-RHF Final Energy:  -387.12096169051398
    Total Energy =                       -387.1209616905141502
    Molecular point group: c1
  Basis Set: 6-31G*
  Basis Set:
  Basis Set: 6-31G*
  Basis Set:
  @DF-RHF Final Energy:  -387.12099538352567
    Total Energy =                       -387.1209953835254964
  Basis Set: 6-31G*
  Basis Set:
  Basis Set: 6-31G*
  Basis Set:
  @DF-RHF Final Energy:  -387.12117144339391
    Total Energy =                       -387.1211714433934503
  Basis Set: 6-31G*
  Basis Set:
  Basis Set: 6-31G*
  Basis Set:
  @DF-RHF Final Energy:  -387.12124226126872
    Total Energy =                       -387.1212422612684350
  Basis Set: 6-31G*
  Basis Set:
  @DF-RHF Final Energy:  -387.12126561971945
    Total Energy =                       -387.1212656197194519
  @DF-RHF Final Energy:  -387.12127547817789
    Total Energy =                       -387.1212754781777221
  Basis Set: 6-31G*
  Basis Set:
  @DF-RHF Final Energy:  -387.12128441400807
    Total Energy =                       -387.1212844140081870
  Basis Set: 6-31G*
  Basis Set:
  Basis Set: 6-31G*
  Basis Set:
  @DF-RHF Final Energy:  -387.12127477883689
    Total Energy =                       -387.1212747788373463
  Basis Set: 6-31G*
  Basis Set:
  Basis Set: 6-31G*
  Basis Set:
  @DF-RHF Final Energy:  -387.12128528025289
    Total Energy =                       -387.1212852802525504
  Basis Set: 6-31G*
  Basis Set:
  Charge       = 0
  Multiplicity = 1
  Basis Set: 6-31G*
  Basis Set:

    Orbital Energies (a.u.)
    -----------------------

    Doubly Occupied:

       1A    -20.562012     2A    -11.326169     3A    -11.235368
       4A    -11.234677     5A    -11.223895     6A    -11.219999
       7A    -11.217882     8A    -11.216889     9A    -11.210943
      10A     -1.401954    11A     -1.103876    12A     -1.069544
      13A     -1.013669    14A     -0.942638    15A     -0.872899
      16A     -0.819156    17A     -0.788631    18A     -0.784775
      19A     -0.664334    20A     -0.662049    21A     -0.632122
      22A     -0.625368    23A     -0.603176    24A     -0.593965
      25A     -0.574915    26A     -0.549929    27A     -0.534318
      28A     -0.524866    29A     -0.508032    30A     -0.496397
      31A     -0.489843    32A     -0.480434    33A     -0.466686
      34A     -0.458535    35A     -0.440270    36A     -0.409546

  @DF-RHF Final Energy:  -387.12128537816710

   => Energetics <=

    Nuclear Repulsion Energy =            438.4523789151169808
    One-Electron Energy =               -1393.2278039078141774
    Two-Electron Energy =                 567.6541396145298677
    DFT Exchange-Correlation Energy =       0.0000000000000000
    Empirical Dispersion Energy =           0.0000000000000000
    PCM Polarization Energy =               0.0000000000000000
    EFP Energy =                            0.0000000000000000
    Total Energy =                       -387.1212853781673857
    Molecular point group: c1
  Basis Set: 6-31G*
  Basis Set:

  -Total Gradient:
     Atom            X                  Y                   Z
    ------   -----------------  -----------------  -----------------
       1        0.000002122118     0.000000403621     0.000000258163
       2       -0.000010209433     0.000004368271     0.000006155889
       3       -0.000005277548     0.000000910871     0.000000007114
       4        0.000003483321     0.000002456386    -0.000001843247
       5       -0.000000097853    -0.000009079755     0.000013969623
       6        0.000003300665    -0.000002747841    -0.000001283140
       7        0.000002690303    -0.000003330141    -0.000001904450
       8        0.000003354554     0.000002121187    -0.000008296103
       9       -0.000001789324    -0.000002087080    -0.000001104874
      10       -0.000002620645     0.000000192544     0.000002585640
      11       -0.000005566176    -0.000004274278    -0.000002585337
      12       -0.000003547456     0.000003009743    -0.000004251730
      13        0.000004385900    -0.000000824622    -0.000005905786
      14        0.000595428486    -0.003561197474    -0.000221447966
      15        0.000005260181     0.000002987804    -0.000012943247
      16        0.000000891015     0.000001154421    -0.000003505993
      17       -0.000828574486     0.002497290121     0.001390428663
      18       -0.000325250787     0.002462040982    -0.000119767044
      19        0.000006135059    -0.000012970229    -0.000002822743
      20        0.000543181628    -0.001375730575    -0.001022132097
      21       -0.000008352196    -0.000011981190     0.000003984437
      22        0.000007880512     0.000009232813    -0.000012858662
      23        0.000013983813    -0.000010519467     0.000003421806
      24        0.000000082217     0.000000690130    -0.000004638689
      25       -0.000000893862     0.000007883760     0.000006479773

  **** Optimization is complete! (in 10 steps) ****
    Final optimized geometry and variables:
    Molecular point group: c1

    Geometry (in Angstrom), charge = 0, multiplicity = 1:

    H           -3.310856999725    -0.276072576069     1.453176795803
    C           -3.328182981284    -0.229482439421     0.357115032974
    C           -2.649902460659     0.977149584333    -0.240191103811
    O           -3.861235645125    -1.087598545240    -0.268452197640
    C           -1.217695923057     1.164901585851     0.279491976614
    H           -2.672865216372     0.882810532736    -1.319726303392
    H           -3.246639025880     1.846890368196     0.031741187332
    C           -0.255100907957     0.062950916829    -0.170620448780
    H           -0.850248063928     2.127542559624    -0.064051189264
    H           -1.232250807377     1.217396597057     1.366869884296
    C            1.172250211966     0.273650593475     0.337525640480
    H           -0.250411833326     0.017495429879    -1.257686704539
    H           -0.617380350905    -0.905607507967     0.169395428858
    C            2.134299342021    -0.834630587247    -0.102417858238
    H            1.535214995769     1.238071659866    -0.011506588893
    H            1.162950653354     0.326755002804     1.424917732888
    C            3.580165487089    -0.620146903975     0.368869268048
    H            2.117477978707    -0.897211832767    -1.188849421347
    H            1.766382129133    -1.786233853680     0.272785679665
    C            4.380335924030     0.343620225911    -0.509304474515
    H            4.093934093138    -1.578080538910     0.378168225707
    H            3.579932590725    -0.268584634929     1.398149463097
    H            4.449073820201    -0.028832024746    -1.527299405406
    H            3.926442076458     1.329357334209    -0.548475514498
    H            5.391388832329     0.465156106309    -0.132836047614

  Mulliken Charges: (a.u.)
   Center  Symbol    Alpha    Beta     Spin     Total
       1     H     0.43261  0.43261  0.00000  0.13477
       2     C     2.83082  2.83082  0.00000  0.33836
       3     C     3.20817  3.20817  0.00000 -0.41634
       4     O     4.23776  4.23776  0.00000 -0.47551
       5     C     3.16655  3.16655  0.00000 -0.33310
       6     H     0.39971  0.39971  0.00000  0.20058
       7     H     0.40661  0.40661  0.00000  0.18678
       8     C     3.15488  3.15488  0.00000 -0.30977
       9     H     0.41290  0.41290  0.00000  0.17421
      10     H     0.41959  0.41959  0.00000  0.16082
      11     C     3.15375  3.15375  0.00000 -0.30751
      12     H     0.41805  0.41805  0.00000  0.16389
      13     H     0.41850  0.41850  0.00000  0.16299
      14     C     3.15376  3.15376  0.00000 -0.30753
      15     H     0.42199  0.42199  0.00000  0.15602
      16     H     0.42341  0.42341  0.00000  0.15318
      17     C     3.15424  3.15424  0.00000 -0.30848
      18     H     0.42242  0.42242  0.00000  0.15515
      19     H     0.41983  0.41983  0.00000  0.16034
      20     C     3.24041  3.24041  0.00000 -0.48082
      21     H     0.41976  0.41976  0.00000  0.16049
      22     H     0.42260  0.42260  0.00000  0.15479
      23     H     0.42098  0.42098  0.00000  0.15804
      24     H     0.42178  0.42178  0.00000  0.15645
      25     H     0.41890  0.41890  0.00000  0.16219

   Total alpha = 36.00000, Total beta = 36.00000, Total charge = -0.00000
