                              Psi4 1.0.54 Driver

  ==> Input File <==

--------------------------------------------------------------------------
set {
	reference rhf
	basis cc-pvtz
}

set_num_threads( 4 )
memory 2 gb

molecule MOL {
0 1

H	 1.757805	 -0.596435	 -1.355566
O	 0.944981	 -0.617807	 -0.885985
C	 0.700177	 0.619554	 -0.266242
C	 -0.713111	 0.588314	 0.266177
H	 0.801102	 1.431871	 -0.979600
H	 1.394852	 0.787841	 0.552589
O	 -1.421673	 -0.521378	 -0.196983
H	 -1.244794	 1.469161	 -0.069059
H	 -0.685100	 0.604721	 1.352683
H	 -0.933408	 -1.297830	 0.014544

	symmetry c1
}
set optking {
	frozen_dihedral = ("
		5 3 4 7
	")
}

ee,wfn = optimize('scf', return_wfn=True)
oeprop( wfn, 'DIPOLE', 'QUADRUPOLE', 'MULLIKEN_CHARGES')
f=open( 'psi4out.xyz', 'w' )
f.write( "10  " )
f.write( str(ee) + "\n" )
f.write( MOL.save_string_xyz() )
f.close()
--------------------------------------------------------------------------

    Molecular point group: c1
  Charge       = 0
  Multiplicity = 1
  Basis Set: CC-PVTZ
  Basis Set:
  @DF-RHF Final Energy:  -229.01496265481043
    Total Energy =                       -229.0149626548103754
    Molecular point group: c1
  Basis Set: CC-PVTZ
  Basis Set:
  Basis Set: CC-PVTZ
  Basis Set:
  @DF-RHF Final Energy:  -228.94556283266115
    Total Energy =                       -228.9455628326611816
  Basis Set: CC-PVTZ
  Basis Set:
  Basis Set: CC-PVTZ
  Basis Set:
  @DF-RHF Final Energy:  -229.00913097639420
    Total Energy =                       -229.0091309763942036
  Basis Set: CC-PVTZ
  Basis Set:
  Basis Set: CC-PVTZ
  Basis Set:
  @DF-RHF Final Energy:  -229.01764649424351
    Total Energy =                       -229.0176464942435928
  Basis Set: CC-PVTZ
  Basis Set:
  @DF-RHF Final Energy:  -229.01831508376620
    Total Energy =                       -229.0183150837660833
  @DF-RHF Final Energy:  -229.01862977009637
    Total Energy =                       -229.0186297700965099
  @DF-RHF Final Energy:  -229.01892657770338
    Total Energy =                       -229.0189265777035246
  @DF-RHF Final Energy:  -229.01903100421677
    Total Energy =                       -229.0190310042168278
  @DF-RHF Final Energy:  -229.01907985931399
    Total Energy =                       -229.0190798593142176
  Basis Set: CC-PVTZ
  Basis Set:
  @DF-RHF Final Energy:  -229.01909015432210
    Total Energy =                       -229.0190901543221287
  Basis Set: CC-PVTZ
  Basis Set:
  Basis Set: CC-PVTZ
  Basis Set:
  @DF-RHF Final Energy:  -229.01909443431714
    Total Energy =                       -229.0190944343170827
  Basis Set: CC-PVTZ
  Basis Set:
  Basis Set: CC-PVTZ
  Basis Set:
  @DF-RHF Final Energy:  -229.01909585682210
    Total Energy =                       -229.0190958568221902
  Basis Set: CC-PVTZ
  Basis Set:
  Charge       = 0
  Multiplicity = 1
  Basis Set: CC-PVTZ
  Basis Set:

    Orbital Energies (a.u.)
    -----------------------

    Doubly Occupied:

       1A    -20.569037     2A    -20.533866     3A    -11.280663
       4A    -11.267332     5A     -1.393535     6A     -1.349740
       7A     -0.998930     8A     -0.849070     9A     -0.731097
      10A     -0.680665    11A     -0.663755    12A     -0.590286
      13A     -0.582049    14A     -0.547103    15A     -0.483227
      16A     -0.468248    17A     -0.419606

  @DF-RHF Final Energy:  -229.01909592762834

   => Energetics <=

    Nuclear Repulsion Energy =            134.9590678121612370
    One-Electron Energy =                -581.1399110329864470
    Two-Electron Energy =                 217.1617472931968109
    DFT Exchange-Correlation Energy =       0.0000000000000000
    Empirical Dispersion Energy =           0.0000000000000000
    PCM Polarization Energy =               0.0000000000000000
    EFP Energy =                            0.0000000000000000
    Total Energy =                       -229.0190959276283706
    Molecular point group: c1
  Basis Set: CC-PVTZ
  Basis Set:

  -Total Gradient:
     Atom            X                  Y                   Z
    ------   -----------------  -----------------  -----------------
       1       -0.000014799236    -0.000016883476     0.000017875152
       2        0.000049067536     0.000038350262    -0.000062645583
       3       -0.001656183443    -0.004437713491    -0.003730543509
       4       -0.003400003274     0.003682904223    -0.001859593025
       5        0.002139895104     0.002896815444     0.003591984840
       6       -0.000002403875    -0.000016201112     0.000016153679
       7        0.002864851747    -0.002134333985     0.002018220745
       8        0.000006732675     0.000008181959     0.000026963809
       9        0.000018673838    -0.000015883261    -0.000027771157
      10       -0.000005831073    -0.000005236563     0.000009355051

  **** Optimization is complete! (in 13 steps) ****
    Final optimized geometry and variables:
    Molecular point group: c1

    Geometry (in Angstrom), charge = 0, multiplicity = 1:

    H            1.568142772204     0.018634045067    -1.647649487354
    O            0.884079868096    -0.227558113686    -1.053782853157
    C            0.605691023712     0.818569687483    -0.163469469394
    C           -0.459932830813     0.353850991757     0.853076524756
    H            0.271838420988     1.708606854343    -0.686780076420
    H            1.505096007492     1.096651417636     0.377293428711
    O           -1.093469416891    -0.833307322694     0.492309655889
    H           -1.215302488805     1.121040603361     0.961934122422
    H            0.012786409642     0.225470980263     1.822241375121
    H           -0.554914863988    -1.293511747181    -0.127085338040

  Mulliken Charges: (a.u.)
   Center  Symbol    Alpha    Beta     Spin     Total
       1     H     0.39473  0.39473  0.00000  0.21053
       2     O     4.19693  4.19693  0.00000 -0.39387
       3     C     2.96977  2.96977  0.00000  0.06047
       4     C     2.95584  2.95584  0.00000  0.08832
       5     H     0.47327  0.47327  0.00000  0.05347
       6     H     0.47337  0.47337  0.00000  0.05327
       7     O     4.20793  4.20793  0.00000 -0.41586
       8     H     0.46833  0.46833  0.00000  0.06334
       9     H     0.47805  0.47805  0.00000  0.04391
      10     H     0.38179  0.38179  0.00000  0.23642

   Total alpha = 17.00000, Total beta = 17.00000, Total charge =  0.00000

*** Psi4 exiting successfully. Buy a developer a beer!
