  ==> Input File <==

--------------------------------------------------------------------------
set {
	reference rhf
	basis cc-pvtz
}

set_num_threads( 4 )
memory 2 gb

molecule MOL {
0 1

H	 3.311000	 0.170000	 -0.119000
N	 2.469000	 -0.372000	 -0.090000
C	 1.302000	 0.492000	 0.016000
H	 2.537000	 -0.970000	 0.711000
C	 0.019000	 -0.330000	 -0.037000
H	 1.323000	 1.179000	 -0.824000
H	 1.303000	 1.105000	 0.921000
C	 -1.248000	 0.525000	 0.039000
H	 0.022000	 -0.914000	 -0.952000
H	 0.019000	 -1.045000	 0.785000
C	 -2.529000	 -0.306000	 -0.015000
H	 -1.249000	 1.240000	 -0.780000
H	 -1.238000	 1.111000	 0.956000
H	 -2.587000	 -0.878000	 -0.937000
H	 -3.411000	 0.326000	 0.038000
H	 -2.576000	 -1.009000	 0.812000

	symmetry c1
}
ee = optimize('scf')
oeprop('DIPOLE', 'QUADRUPOLE', 'MULLIKEN_CHARGES')
f=open( 'psi4out.xyz', 'w' )
f.write( "16  " )
f.write( str(ee) + "\n" )
f.write( MOL.save_string_xyz() )
f.close()
--------------------------------------------------------------------------

    Molecular point group: c1
  Charge       = 0
  Multiplicity = 1
  Basis Set: CC-PVTZ
  Basis Set:
  @DF-RHF Final Energy:  -212.40024987951162
    Total Energy =                       -212.4002498795115343
    Molecular point group: c1
  Basis Set: CC-PVTZ
  Basis Set:
  Basis Set: CC-PVTZ
  Basis Set:
  @DF-RHF Final Energy:  -212.40032447463497
    Total Energy =                       -212.4003244746350560
  Basis Set: CC-PVTZ
  Basis Set:
  Basis Set: CC-PVTZ
  Basis Set:
  @DF-RHF Final Energy:  -212.40032725842178
    Total Energy =                       -212.4003272584216688
  Basis Set: CC-PVTZ
  Basis Set:
  Charge       = 0
  Multiplicity = 1
  Basis Set: CC-PVTZ
  Basis Set:

    Orbital Energies (a.u.)
    -----------------------

    Doubly Occupied:

       1A    -15.526532     2A    -11.238066     3A    -11.212968
       4A    -11.207935     5A    -11.205875     6A     -1.178299
       7A     -1.060841     8A     -0.959787     9A     -0.844164
      10A     -0.792415    11A     -0.665447    12A     -0.638609
      13A     -0.606643    14A     -0.576536    15A     -0.565540
      16A     -0.525580    17A     -0.500695    18A     -0.470317
      19A     -0.465453    20A     -0.462648    21A     -0.383997

  @DF-RHF Final Energy:  -212.40032745552881

   => Energetics <=

    Nuclear Repulsion Energy =            186.5664692185419824
    One-Electron Energy =                -655.7569049385944027
    Two-Electron Energy =                 256.7901082645239512
    DFT Exchange-Correlation Energy =       0.0000000000000000
    Empirical Dispersion Energy =           0.0000000000000000
    PCM Polarization Energy =               0.0000000000000000
    EFP Energy =                            0.0000000000000000
    Total Energy =                       -212.4003274555284406
    Molecular point group: c1
  Basis Set: CC-PVTZ
  Basis Set:

  -Total Gradient:
     Atom            X                  Y                   Z
    ------   -----------------  -----------------  -----------------
       1       -0.000028862150     0.000009175276    -0.000023833239
       2        0.000054288334    -0.000001317738     0.000024898974
       3       -0.000051620686     0.000028440963     0.000003490827
       4       -0.000022645537    -0.000010653477    -0.000013347622
       5        0.000031187898     0.000020564466     0.000008973650
       6        0.000031837092    -0.000000156293    -0.000006720566
       7        0.000001616632    -0.000017811700    -0.000017398619
       8        0.000017381509    -0.000018873823     0.000042480489
       9        0.000005071434    -0.000032930481     0.000001642289
      10        0.000001801239    -0.000011323293    -0.000001454682
      11       -0.000028113570     0.000013346803    -0.000027423512
      12        0.000001106679     0.000021064556     0.000010862424
      13       -0.000012356000     0.000018481560     0.000004105633
      14       -0.000006450348    -0.000011191168     0.000004360634
      15        0.000009035620    -0.000013432154    -0.000010435909
      16       -0.000003278149     0.000006616503    -0.000000200774

  **** Optimization is complete! (in 4 steps) ****
    Final optimized geometry and variables:
    Molecular point group: c1

    Geometry (in Angstrom), charge = 0, multiplicity = 1:

    H            3.273419046823     0.176595443771    -0.102788938962
    N            2.433986641236    -0.362316060788    -0.080024025308
    C            1.263552243358     0.494993733074     0.021952854109
    H            2.497637967453    -0.973614928625     0.707121721238
    C           -0.016533077274    -0.325588548301    -0.026925414482
    H            1.280915198559     1.180773005110    -0.818522336507
    H            1.263064237843     1.106892956622     0.925037492453
    C           -1.280352811019     0.525521476892     0.047747252803
    H           -0.016686027470    -0.912531679221    -0.939714286087
    H           -0.014099695302    -1.037597446155     0.796368671434
    C           -2.560681571789    -0.301322384765    -0.007747351096
    H           -1.279957477140     1.241025313342    -0.770189359639
    H           -1.270444977902     1.110526719883     0.963467671457
    H           -2.617064527728    -0.872869303050    -0.928010185729
    H           -3.439525200742     0.331102729928     0.043462051090
    H           -2.609426697742    -1.002735249396     0.818584784251

  Mulliken Charges: (a.u.)
   Center  Symbol    Alpha    Beta     Spin     Total
       1     H     0.43018  0.43018  0.00000  0.13965
       2     N     3.68931  3.68931  0.00000 -0.37862
       3     C     3.02606  3.02606  0.00000 -0.05212
       4     H     0.43093  0.43093  0.00000  0.13814
       5     C     3.08006  3.08006  0.00000 -0.16012
       6     H     0.45717  0.45717  0.00000  0.08567
       7     H     0.46885  0.46885  0.00000  0.06230
       8     C     3.08845  3.08845  0.00000 -0.17691
       9     H     0.44941  0.44941  0.00000  0.10117
      10     H     0.46073  0.46073  0.00000  0.07853
      11     C     3.14927  3.14927  0.00000 -0.29854
      12     H     0.45473  0.45473  0.00000  0.09054
      13     H     0.45643  0.45643  0.00000  0.08715
      14     H     0.45416  0.45416  0.00000  0.09167
      15     H     0.44878  0.44878  0.00000  0.10243
      16     H     0.45547  0.45547  0.00000  0.08907

   Total alpha = 21.00000, Total beta = 21.00000, Total charge =  0.00000
