  ==> Input File <==

--------------------------------------------------------------------------
set {
	reference rhf
	basis cc-pvtz
}

set_num_threads( 4 )
memory 2 gb

molecule MOL {
0 1

O	 -2.817697	 1.304178	 0.001046
C	 -2.664672	 0.129869	 0.003507
C	 -3.797908	 -0.860100	 -0.001145
O	 -1.481217	 -0.452708	 0.001092
H	 -4.408836	 -0.679689	 -0.875387
H	 -3.443486	 -1.878443	 -0.002770
H	 -4.412123	 -0.683688	 0.871605
C	 -0.332055	 0.384012	 -0.000250
C	 0.892252	 -0.506059	 -0.000295
H	 -0.360822	 1.020205	 -0.874146
H	 -0.359817	 1.021310	 0.872861
C	 2.008390	 0.052188	 -0.878336
H	 0.608356	 -1.494884	 -0.345691
H	 1.244750	 -0.619700	 1.019752
C	 3.254340	 -0.829007	 -0.893532
H	 1.643758	 0.172483	 -1.895464
H	 2.278735	 1.046767	 -0.532357
C	 4.370367	 -0.270909	 -1.769898
H	 2.985797	 -1.822671	 -1.240770
H	 3.619724	 -0.949809	 0.122336
H	 4.045996	 -0.170711	 -2.800233
H	 5.238910	 -0.918992	 -1.758601
H	 4.684609	 0.709068	 -1.426751

	symmetry c1
}
set optking {
	frozen_dihedral = ("
		13 9 8 10
	")
}

ee = optimize('scf')
oeprop('DIPOLE', 'QUADRUPOLE', 'MULLIKEN_CHARGES')
f=open( 'psi4out.xyz', 'w' )
f.write( "23  " )
f.write( str(ee) + "\n" )
f.write( MOL.save_string_xyz() )
f.close()
--------------------------------------------------------------------------

    Molecular point group: c1
  Charge       = 0
  Multiplicity = 1
  Basis Set: CC-PVTZ
  Basis Set:
  @DF-RHF Final Energy:  -423.13039968613532
    Total Energy =                       -423.1303996861362293
    Molecular point group: c1
  Basis Set: CC-PVTZ
  Basis Set:
  Basis Set: CC-PVTZ
  Basis Set:
  @DF-RHF Final Energy:  -423.13062122257821
    Total Energy =                       -423.1306212225784975
  Basis Set: CC-PVTZ
  Basis Set:
  Basis Set: CC-PVTZ
  Basis Set:
  @DF-RHF Final Energy:  -423.13066951769298
    Total Energy =                       -423.1306695176922403
  Basis Set: CC-PVTZ
  Basis Set:
  Basis Set: CC-PVTZ
  Basis Set:
  @DF-RHF Final Energy:  -423.13079407444434
    Total Energy =                       -423.1307940744437701
  Basis Set: CC-PVTZ
  Basis Set:
  Basis Set: CC-PVTZ
  Basis Set:
  @DF-RHF Final Energy:  -423.13083059743713
    Total Energy =                       -423.1308305974371251
  Basis Set: CC-PVTZ
  Basis Set:
  Basis Set: CC-PVTZ
  Basis Set:
  @DF-RHF Final Energy:  -423.13083206632956
    Total Energy =                       -423.1308320663300719
  Basis Set: CC-PVTZ
  Basis Set:
  Charge       = 0
  Multiplicity = 1
  Basis Set: CC-PVTZ
  Basis Set:

    Orbital Energies (a.u.)
    -----------------------

    Doubly Occupied:

       1A    -20.596711     2A    -20.529922     3A    -11.366653
       4A    -11.279292     5A    -11.230966     6A    -11.221930
       7A    -11.221024     8A    -11.219014     9A    -11.210749
      10A     -1.471599    11A     -1.364469    12A     -1.093810
      13A     -1.042550    14A     -1.003878    15A     -0.931771
      16A     -0.843167    17A     -0.802664    18A     -0.779687
      19A     -0.691951    20A     -0.686585    21A     -0.671335
      22A     -0.647219    23A     -0.607542    24A     -0.586646
      25A     -0.584258    26A     -0.568934    27A     -0.559774
      28A     -0.538307    29A     -0.525497    30A     -0.505014
      31A     -0.494042    32A     -0.477081    33A     -0.471054
      34A     -0.466474    35A     -0.450559    36A     -0.439261

  @DF-RHF Final Energy:  -423.13083401289384

   => Energetics <=

    Nuclear Repulsion Energy =            450.6068636986497040
    One-Electron Energy =               -1469.1126137839441981
    Two-Electron Energy =                 595.3749160724006515
    DFT Exchange-Correlation Energy =       0.0000000000000000
    Empirical Dispersion Energy =           0.0000000000000000
    PCM Polarization Energy =               0.0000000000000000
    EFP Energy =                            0.0000000000000000
    Total Energy =                       -423.1308340128938426
    Molecular point group: c1
  Basis Set: CC-PVTZ
  Basis Set:

  -Total Gradient:
     Atom            X                  Y                   Z
    ------   -----------------  -----------------  -----------------
       1       -0.000008099751     0.000015673942     0.000003659081
       2        0.000022101500    -0.000030111719    -0.000010359267
       3       -0.000006579265     0.000002667296     0.000000473758
       4       -0.000037291511    -0.000000432862    -0.000006574243
       5        0.000002960154     0.000000811071     0.000003041830
       6        0.000000192901    -0.000000419375    -0.000000388777
       7       -0.000002039463    -0.000000957873     0.000003100864
       8       -0.002995952688    -0.004124766854    -0.001877669853
       9        0.001595175858     0.002346112844    -0.004379536112
      10        0.002258369835     0.003043803950     0.002224227259
      11       -0.000001157366    -0.000001188553     0.000002019082
      12        0.000001449081     0.000001559856     0.000005751358
      13       -0.000837598609    -0.001253468425     0.004032539105
      14        0.000004719432     0.000002799148    -0.000000588792
      15        0.000004235761     0.000007757666     0.000010464187
      16       -0.000001179512    -0.000008190175     0.000004096092
      17       -0.000000492252     0.000002247769    -0.000006349174
      18        0.000001531287    -0.000005203003    -0.000004857701
      19        0.000002552816     0.000004851907    -0.000003803601
      20       -0.000003061935    -0.000003130576     0.000001951645
      21        0.000001430477     0.000001815255    -0.000001797437
      22        0.000000534456    -0.000000049805    -0.000001457137
      23       -0.000001801202    -0.000002181478     0.000002057833

  **** Optimization is complete! (in 7 steps) ****
    Final optimized geometry and variables:
    Molecular point group: c1

    Geometry (in Angstrom), charge = 0, multiplicity = 1:

    O           -2.735238795646     1.426022147359     0.447114897067
    C           -2.601440025100     0.249663810899     0.424310015116
    C           -3.749649450678    -0.722516898860     0.459483234767
    O           -1.428558308884    -0.351616401225     0.364272572479
    H           -4.396269787681    -0.521720469792    -0.384152301755
    H           -3.412319124655    -1.746266569379     0.430057033838
    H           -4.320949203627    -0.547243433864     1.361205643488
    C           -0.268402101854     0.466539583077     0.331810404233
    C            0.964472392046    -0.430016870423     0.308002709861
    H           -0.304159937969     1.120783039850    -0.528498050641
    H           -0.271974371141     1.107613025240     1.202159530317
    C            2.104924509724     0.147867191586    -0.522958370585
    H            0.675081780837    -1.409414633077    -0.054907826714
    H            1.305819718472    -0.590424324761     1.326147404242
    C            3.369128886059    -0.705001981589    -0.482380387730
    H            1.776822340484     0.257662099912    -1.553383932030
    H            2.338576769813     1.149993577605    -0.170068318466
    C            4.503890846122    -0.132282666848    -1.324715993649
    H            3.134560437205    -1.708295932841    -0.827158913623
    H            3.700377063263    -0.806691543605     0.547261791179
    H            4.215292707912    -0.051276334509    -2.367340760631
    H            5.385441152673    -0.760669841058    -1.273865421714
    H            4.783854038376     0.858439050628    -0.982521030559

  Mulliken Charges: (a.u.)
   Center  Symbol    Alpha    Beta     Spin     Total
       1     O     4.20213  4.20213  0.00000 -0.40425
       2     C     2.81074  2.81074  0.00000  0.37853
       3     C     3.13925  3.13925  0.00000 -0.27850
       4     O     4.14525  4.14525  0.00000 -0.29050
       5     H     0.44217  0.44217  0.00000  0.11567
       6     H     0.44201  0.44201  0.00000  0.11597
       7     H     0.44210  0.44210  0.00000  0.11580
       8     C     2.98207  2.98207  0.00000  0.03586
       9     C     3.08879  3.08879  0.00000 -0.17758
      10     H     0.45495  0.45495  0.00000  0.09010
      11     H     0.45282  0.45282  0.00000  0.09435
      12     C     3.09544  3.09544  0.00000 -0.19088
      13     H     0.44649  0.44649  0.00000  0.10703
      14     H     0.45217  0.45217  0.00000  0.09566
      15     C     3.08570  3.08570  0.00000 -0.17139
      16     H     0.45209  0.45209  0.00000  0.09582
      17     H     0.45243  0.45243  0.00000  0.09514
      18     C     3.14945  3.14945  0.00000 -0.29890
      19     H     0.45344  0.45344  0.00000  0.09312
      20     H     0.45351  0.45351  0.00000  0.09298
      21     H     0.45456  0.45456  0.00000  0.09089
      22     H     0.44780  0.44780  0.00000  0.10440
      23     H     0.45465  0.45465  0.00000  0.09070

   Total alpha = 36.00000, Total beta = 36.00000, Total charge = -0.00000
