                              Psi4 1.0.54 Driver

  ==> Input File <==

--------------------------------------------------------------------------
set {
	reference rhf
	basis cc-pvtz
}

set_num_threads( 4 )
memory 2 gb

molecule MOL {
0 1

H	 -3.034039	 -0.667848	 0.004703
O	 -2.240597	 -1.171748	 0.000934
C	 -1.159675	 -0.364500	 0.000370
C	 -0.448205	 -0.080952	 -1.147596
C	 -0.775750	 0.183085	 1.214786
H	 -0.742883	 -0.505942	 -2.089725
C	 0.652046	 0.755190	 -1.066722
H	 -1.348891	 -0.059162	 2.088720
C	 0.320247	 1.018561	 1.293197
H	 1.209895	 0.975738	 -1.957191
C	 1.038818	 1.301929	 0.135896
C	 0.723680	 1.633062	 2.609736
H	 1.896189	 1.946360	 0.181556
H	 1.797403	 1.592315	 2.744944
H	 0.258248	 1.122733	 3.442012
H	 0.427976	 2.675892	 2.651075

	symmetry c1
}
set optking {
	frozen_dihedral = ("
		5 3 2 1
	")
}

ee,wfn = optimize('scf', return_wfn=True)
oeprop( wfn, 'DIPOLE', 'QUADRUPOLE', 'MULLIKEN_CHARGES')
f=open( 'psi4out.xyz', 'w' )
f.write( "16  " )
f.write( str(ee) + "\n" )
f.write( MOL.save_string_xyz() )
f.close()
--------------------------------------------------------------------------

    Molecular point group: c1
  Charge       = 0
  Multiplicity = 1
  Basis Set: CC-PVTZ
  Basis Set:
  @DF-RHF Final Energy:  -344.71525859187324
    Total Energy =                       -344.7152585918732939
    Molecular point group: c1
  Basis Set: CC-PVTZ
  Basis Set:
  Basis Set: CC-PVTZ
  Basis Set:
  @DF-RHF Final Energy:  -344.71626548587295
    Total Energy =                       -344.7162654858727251
  Basis Set: CC-PVTZ
  Basis Set:
  Basis Set: CC-PVTZ
  Basis Set:
  @DF-RHF Final Energy:  -344.71632981028074
    Total Energy =                       -344.7163298102801718
  Basis Set: CC-PVTZ
  Basis Set:
  Basis Set: CC-PVTZ
  Basis Set:
  @DF-RHF Final Energy:  -344.71633580230190
    Total Energy =                       -344.7163358023020692
  Basis Set: CC-PVTZ
  Basis Set:
  Basis Set: CC-PVTZ
  Basis Set:
  @DF-RHF Final Energy:  -344.71633713403850
    Total Energy =                       -344.7163371340381559
  Basis Set: CC-PVTZ
  Basis Set:
  Charge       = 0
  Multiplicity = 1
  Basis Set: CC-PVTZ
  Basis Set:

    Orbital Energies (a.u.)
    -----------------------

    Doubly Occupied:

       1A    -20.569307     2A    -11.286524     3A    -11.240644
       4A    -11.230804     5A    -11.221203     6A    -11.219333
       7A    -11.218965     8A    -11.218594     9A     -1.396056
      10A     -1.155043    11A     -1.047043    12A     -1.007218
      13A     -0.939537    14A     -0.833399    15A     -0.807993
      16A     -0.722925    17A     -0.679903    18A     -0.658198
      19A     -0.622021    20A     -0.593357    21A     -0.578530
      22A     -0.570129    23A     -0.553199    24A     -0.516042
      25A     -0.505377    26A     -0.485054    27A     -0.466851
      28A     -0.334106    29A     -0.322347

  @DF-RHF Final Energy:  -344.71633757951349

   => Energetics <=

    Nuclear Repulsion Energy =            345.8263776268145193
    One-Electron Energy =               -1153.0860252887732713
    Two-Electron Energy =                 462.5433100824453163
    DFT Exchange-Correlation Energy =       0.0000000000000000
    Empirical Dispersion Energy =           0.0000000000000000
    PCM Polarization Energy =               0.0000000000000000
    EFP Energy =                            0.0000000000000000
    Total Energy =                       -344.7163375795134357
    Molecular point group: c1
  Basis Set: CC-PVTZ
  Basis Set:

  -Total Gradient:
     Atom            X                  Y                   Z
    ------   -----------------  -----------------  -----------------
       1        0.000012656726     0.000046047062    -0.000940143215
       2        0.000138145614    -0.000362585116     0.001229593351
       3       -0.000547320998     0.000841023479    -0.000447124590
       4        0.000017246774     0.000014102492    -0.000009634688
       5        0.000384630950    -0.000545608645     0.000159922046
       6       -0.000011416112    -0.000008691338     0.000001982306
       7       -0.000025516546    -0.000009835536     0.000010241854
       8        0.000016305280     0.000006520905    -0.000018904957
       9        0.000021257655    -0.000003922894     0.000007243135
      10       -0.000001041501     0.000001458396     0.000000631149
      11       -0.000004957723     0.000004056511    -0.000002801141
      12       -0.000004522861     0.000009865110    -0.000007770316
      13       -0.000006726470     0.000005825801     0.000009913406
      14        0.000006288582    -0.000012789815     0.000002429808
      15       -0.000007015074     0.000005435659     0.000007316629
      16        0.000011985703     0.000009097930    -0.000002894779

  **** Optimization is complete! (in 6 steps) ****
    Final optimized geometry and variables:
    Molecular point group: c1

    Geometry (in Angstrom), charge = 0, multiplicity = 1:

    H           -2.757050553862    -1.103512023860    -0.437336462725
    O           -1.948721447723    -1.585134783598    -0.446963286107
    C           -0.881599878182    -0.731536780866    -0.393287554342
    C           -0.168519136702    -0.462761761559    -1.541355853328
    C           -0.490529839824    -0.190911766211     0.818752300729
    H           -0.475015038498    -0.904068605377    -2.469290422157
    C            0.938423552135     0.363098387424    -1.465536921712
    H           -1.052537661116    -0.438809759393     1.699377730834
    C            0.612214488594     0.641304984159     0.898670934427
    H            1.502430908707     0.575541017442    -2.353950996060
    C            1.325508844738     0.912766539429    -0.261232711415
    C            1.026220339628     1.251646120605     2.214307714389
    H            2.189206307974     1.549724281395    -0.218892991794
    H            2.100393711030     1.205795344089     2.344090072327
    H            0.564420610605     0.739892133090     3.048020394900
    H            0.735199207506     2.295589149495     2.262985348869

  Mulliken Charges: (a.u.)
   Center  Symbol    Alpha    Beta     Spin     Total
       1     H     0.38862  0.38862  0.00000  0.22275
       2     O     4.19184  4.19184  0.00000 -0.38368
       3     C     2.85658  2.85658  0.00000  0.28684
       4     C     3.12243  3.12243  0.00000 -0.24486
       5     C     3.14702  3.14702  0.00000 -0.29404
       6     H     0.41698  0.41698  0.00000  0.16605
       7     C     3.05984  3.05984  0.00000 -0.11969
       8     H     0.42103  0.42103  0.00000  0.15794
       9     C     2.94629  2.94629  0.00000  0.10743
      10     H     0.42221  0.42221  0.00000  0.15557
      11     C     3.10802  3.10802  0.00000 -0.21605
      12     C     3.14620  3.14620  0.00000 -0.29240
      13     H     0.42696  0.42696  0.00000  0.14607
      14     H     0.44784  0.44784  0.00000  0.10433
      15     H     0.45074  0.45074  0.00000  0.09851
      16     H     0.44739  0.44739  0.00000  0.10522

   Total alpha = 29.00000, Total beta = 29.00000, Total charge = -0.00000

*** Psi4 exiting successfully. Buy a developer a beer!
