  ==> Input File <==

--------------------------------------------------------------------------
set {
	reference rhf
	basis 6-31G*
}

set_num_threads( 4 )
memory 2 gb

molecule MOL {
0 1

H	 -1.743221	 -1.067982	 -3.822058
C	 -1.009961	 -0.960644	 -3.043675
C	 -1.022224	 -1.808172	 -1.941056
C	 -0.042185	 0.019491	 -3.122398
H	 -1.769294	 -2.577979	 -1.862879
C	 -0.083610	 -1.673554	 -0.941016
H	 -0.017243	 0.684107	 -3.967826
C	 0.912166	 0.168557	 -2.121672
H	 -0.081651	 -2.321282	 -0.084115
C	 0.890853	 -0.681473	 -1.027106
H	 1.651776	 0.940266	 -2.211719
O	 1.765256	 -0.628444	 0.000000
C	 2.778419	 0.335181	 0.000000
H	 2.731280	 0.961222	 -0.884976
H	 3.711703	 -0.207767	 0.000000
H	 2.731280	 0.961222	 0.884976

	symmetry c1
}
set optking {
	frozen_dihedral = ("
		10 12 13 14
	")
}

ee = optimize('scf')
oeprop('DIPOLE', 'QUADRUPOLE', 'MULLIKEN_CHARGES')
f=open( 'psi4out.xyz', 'w' )
f.write( "16  " )
f.write( str(ee) + "\n" )
f.write( MOL.save_string_xyz() )
f.close()
--------------------------------------------------------------------------

    Molecular point group: c1
  Charge       = 0
  Multiplicity = 1
  Basis Set: 6-31G*
  Basis Set:
  @DF-RHF Final Energy:  -344.57360321797609
    Total Energy =                       -344.5736032179760286
    Molecular point group: c1
  Basis Set: 6-31G*
  Basis Set:
  Basis Set: 6-31G*
  Basis Set:
  @DF-RHF Final Energy:  -344.57179125764452
    Total Energy =                       -344.5717912576444064
  Basis Set: 6-31G*
  Basis Set:
  Basis Set: 6-31G*
  Basis Set:
  @DF-RHF Final Energy:  -344.57629324060133
    Total Energy =                       -344.5762932406013306
  Basis Set: 6-31G*
  Basis Set:
  Basis Set: 6-31G*
  Basis Set:
  @DF-RHF Final Energy:  -344.57665259875864
    Total Energy =                       -344.5766525987587556
  Basis Set: 6-31G*
  Basis Set:
  @DF-RHF Final Energy:  -344.57666973526034
    Total Energy =                       -344.5766697352602250
  @DF-RHF Final Energy:  -344.57667445856913
    Total Energy =                       -344.5766744585690162
  @DF-RHF Final Energy:  -344.57667569236281
    Total Energy =                       -344.5766756923629259
  @DF-RHF Final Energy:  -344.57669310127545
    Total Energy =                       -344.5766931012752821
  @DF-RHF Final Energy:  -344.57689510858671
    Total Energy =                       -344.5768951085866547
  @DF-RHF Final Energy:  -344.57771277572908
    Total Energy =                       -344.5777127757290828
  @DF-RHF Final Energy:  -344.57641661839909
    Total Energy =                       -344.5764166183989801
  @DF-RHF Final Energy:  -344.25287027555510
    Total Energy =                       -344.2528702755551535
  @DF-RHF Final Energy:  -344.41217856166901
    Total Energy =                       -344.4121785616691795
  @DF-RHF Final Energy:  -344.50398261679953
    Total Energy =                       -344.5039826167995329
  @DF-RHF Final Energy:  -344.52256619068362
    Total Energy =                       -344.5225661906837331
  @DF-RHF Final Energy:  -344.54831940679787
    Total Energy =                       -344.5483194067979298
  @DF-RHF Final Energy:  -344.56567727540164
    Total Energy =                       -344.5656772754015265
  @DF-RHF Final Energy:  -344.56342053345401
    Total Energy =                       -344.5634205334543481
  @DF-RHF Final Energy:  -344.56857286562985
    Total Energy =                       -344.5685728656299034
  @DF-RHF Final Energy:  -344.57662496977741
    Total Energy =                       -344.5766249697772992
  @DF-RHF Final Energy:  -344.57819955821424
    Total Energy =                       -344.5781995582142940
  Basis Set: 6-31G*
  Basis Set:
  @DF-RHF Final Energy:  -344.57835129566018
    Total Energy =                       -344.5783512956602408
  Basis Set: 6-31G*
  Basis Set:
  Basis Set: 6-31G*
  Basis Set:
  @DF-RHF Final Energy:  -344.57838115692618
    Total Energy =                       -344.5783811569262980
  Basis Set: 6-31G*
  Basis Set:
  Basis Set: 6-31G*
  Basis Set:
  @DF-RHF Final Energy:  -344.57838450801904
    Total Energy =                       -344.5783845080190986
  Basis Set: 6-31G*
  Basis Set:
  Charge       = 0
  Multiplicity = 1
  Basis Set: 6-31G*
  Basis Set:

    Orbital Energies (a.u.)
    -----------------------

    Doubly Occupied:

       1A    -20.575305     2A    -11.290550     3A    -11.277446
       4A    -11.233243     5A    -11.231769     6A    -11.224941
       7A    -11.222327     8A    -11.220829     9A     -1.403576
      10A     -1.146339    11A     -1.019050    12A     -1.013630
      13A     -0.937544    14A     -0.832345    15A     -0.805160
      16A     -0.716651    17A     -0.664339    18A     -0.661563
      19A     -0.644512    20A     -0.613640    21A     -0.592034
      22A     -0.582460    23A     -0.526306    24A     -0.511074
      25A     -0.506670    26A     -0.480948    27A     -0.445699
      28A     -0.334438    29A     -0.310994

  @DF-RHF Final Energy:  -344.57838487335209

   => Energetics <=

    Nuclear Repulsion Energy =            347.5622538877638590
    One-Electron Energy =               -1156.2305112229623774
    Two-Electron Energy =                 464.0898724618461415
    DFT Exchange-Correlation Energy =       0.0000000000000000
    Empirical Dispersion Energy =           0.0000000000000000
    PCM Polarization Energy =               0.0000000000000000
    EFP Energy =                            0.0000000000000000
    Total Energy =                       -344.5783848733523769
    Molecular point group: c1
  Basis Set: 6-31G*
  Basis Set:

  -Total Gradient:
     Atom            X                  Y                   Z
    ------   -----------------  -----------------  -----------------
       1        0.000002018910     0.000004317997    -0.000006475913
       2       -0.000014701052    -0.000046173396     0.000020150178
       3       -0.000023387394     0.000026719393    -0.000043604302
       4        0.000026083612     0.000020664120     0.000030358617
       5        0.000001917332    -0.000002131179     0.000009178296
       6        0.000038719208     0.000025211490     0.000009359124
       7       -0.000001336874    -0.000002983630     0.000000701796
       8       -0.000016231431     0.000035460706    -0.000053724038
       9       -0.000005109178    -0.000003203209    -0.000002313017
      10        0.000286736781    -0.000994079752     0.000112933790
      11       -0.000013886697     0.000000704089    -0.000002050539
      12       -0.000450529299     0.001737560055    -0.000174825171
      13        0.000476569508    -0.001901554349     0.000174498468
      14       -0.000334773156     0.001082417227    -0.000061878093
      15        0.000020134137     0.000013787328    -0.000006790129
      16        0.000007775590     0.000003283110    -0.000005519078

  **** Optimization is complete! (in 25 steps) ****
    Final optimized geometry and variables:
    Molecular point group: c1

    Geometry (in Angstrom), charge = 0, multiplicity = 1:

    H           -2.105466942115    -0.797508283992    -2.476137379862
    C           -1.465844082811    -0.548214083399    -1.648987551158
    C           -1.422977131074    -1.360280071741    -0.525498020619
    C           -0.679898681034     0.590515076975    -1.690724981371
    H           -2.030674920561    -2.246487907423    -0.478829285945
    C           -0.596724533737    -1.045712486568     0.538444890781
    H           -0.711993752340     1.235200010263    -2.551114810847
    C            0.143984692401     0.921150666623    -0.625887763119
    H           -0.551118570330    -1.667193075882     1.413427102886
    C            0.191623026878     0.095032084862     0.488027601149
    H            0.730818632116     1.821050908418    -0.656127678302
    O            0.947538337975     0.382079358965     1.575709043533
    C            2.292241609354     0.760635752105     1.414188060009
    H            2.583427671581     0.779173848715     0.372303239515
    H            2.916156359256     0.052820378216     1.945746263466
    H            2.438611927973     1.746864424863     1.837297750772

  Mulliken Charges: (a.u.)
   Center  Symbol    Alpha    Beta     Spin     Total
       1     H     0.40066  0.40066  0.00000  0.19867
       2     C     3.10948  3.10948  0.00000 -0.21896
       3     C     3.09414  3.09414  0.00000 -0.18828
       4     C     3.09381  3.09381  0.00000 -0.18762
       5     H     0.39865  0.39865  0.00000  0.20269
       6     C     3.12376  3.12376  0.00000 -0.24753
       7     H     0.39913  0.39913  0.00000  0.20175
       8     C     3.13100  3.13100  0.00000 -0.26200
       9     H     0.39342  0.39342  0.00000  0.21316
      10     C     2.79200  2.79200  0.00000  0.41600
      11     H     0.39746  0.39746  0.00000  0.20509
      12     O     4.33255  4.33255  0.00000 -0.66511
      13     C     3.08456  3.08456  0.00000 -0.16912
      14     H     0.42007  0.42007  0.00000  0.15987
      15     H     0.41332  0.41332  0.00000  0.17336
      16     H     0.41600  0.41600  0.00000  0.16801

   Total alpha = 29.00000, Total beta = 29.00000, Total charge =  0.00000
