  ==> Input File <==

--------------------------------------------------------------------------
set {
	reference rhf
	basis cc-pvtz
}

set_num_threads( 4 )
memory 2 gb

molecule MOL {
0 1

H	 3.273419	 0.176595	 -0.102789
N	 2.433987	 -0.362316	 -0.080024
C	 1.263552	 0.494993	 0.021953
H	 2.497638	 -0.973615	 0.707122
C	 -0.016533	 -0.325589	 -0.026925
H	 1.280915	 1.180773	 -0.818522
H	 1.263064	 1.106893	 0.925038
C	 -1.280353	 0.525521	 0.047747
H	 -0.016686	 -0.912532	 -0.939714
H	 -0.014099	 -1.037598	 0.796369
C	 -2.532474	 -0.225674	 -0.392582
H	 -1.155339	 1.408764	 -0.572913
H	 -1.416410	 0.884944	 1.064200
H	 -2.441671	 -0.569490	 -1.417411
H	 -3.411391	 0.405818	 -0.331977
H	 -2.706620	 -1.095594	 0.231993

	symmetry c1
}
set optking {
	frozen_dihedral = ("
		12 8 5 9
	")
}

ee = optimize('scf')
oeprop('DIPOLE', 'QUADRUPOLE', 'MULLIKEN_CHARGES')
f=open( 'psi4out.xyz', 'w' )
f.write( "16  " )
f.write( str(ee) + "\n" )
f.write( MOL.save_string_xyz() )
f.close()
--------------------------------------------------------------------------

    Molecular point group: c1
  Charge       = 0
  Multiplicity = 1
  Basis Set: CC-PVTZ
  Basis Set:
  @DF-RHF Final Energy:  -212.39941045848178
    Total Energy =                       -212.3994104584816114
    Molecular point group: c1
  Basis Set: CC-PVTZ
  Basis Set:
  Basis Set: CC-PVTZ
  Basis Set:
  @DF-RHF Final Energy:  -212.39953411301116
    Total Energy =                       -212.3995341130111569
  Basis Set: CC-PVTZ
  Basis Set:
  Basis Set: CC-PVTZ
  Basis Set:
  @DF-RHF Final Energy:  -212.39955285128005
    Total Energy =                       -212.3995528512801911
  Basis Set: CC-PVTZ
  Basis Set:
  Charge       = 0
  Multiplicity = 1
  Basis Set: CC-PVTZ
  Basis Set:

    Orbital Energies (a.u.)
    -----------------------

    Doubly Occupied:

       1A    -15.526651     2A    -11.238391     3A    -11.212939
       4A    -11.207870     5A    -11.206028     6A     -1.178450
       7A     -1.060476     8A     -0.959965     9A     -0.844696
      10A     -0.792737    11A     -0.665378    12A     -0.635221
      13A     -0.610803    14A     -0.574988    15A     -0.564523
      16A     -0.528672    17A     -0.498464    18A     -0.472209
      19A     -0.464986    20A     -0.460932    21A     -0.384054

  @DF-RHF Final Energy:  -212.39955324890735

   => Energetics <=

    Nuclear Repulsion Energy =            186.5433823944457004
    One-Electron Energy =                -655.7090103266450569
    Two-Electron Energy =                 256.7660746832922314
    DFT Exchange-Correlation Energy =       0.0000000000000000
    Empirical Dispersion Energy =           0.0000000000000000
    PCM Polarization Energy =               0.0000000000000000
    EFP Energy =                            0.0000000000000000
    Total Energy =                       -212.3995532489071252
    Molecular point group: c1
  Basis Set: CC-PVTZ
  Basis Set:

  -Total Gradient:
     Atom            X                  Y                   Z
    ------   -----------------  -----------------  -----------------
       1        0.000022083488    -0.000004719451     0.000002547138
       2        0.000019568701    -0.000004358028    -0.000014135718
       3       -0.000015880529     0.000011801911    -0.000000664065
       4       -0.000003022185    -0.000001700850     0.000004671798
       5        0.001817092185     0.002874836821    -0.001087137511
       6       -0.000005174358     0.000001153136     0.000001129283
       7       -0.000011555713    -0.000014736377    -0.000009446001
       8       -0.001603375114    -0.002166404841    -0.002344141686
       9       -0.001263434650    -0.002030880113     0.001307691504
      10        0.000002610521    -0.000008107370     0.000006161630
      11       -0.000017856654    -0.000006427564    -0.000001624570
      12        0.001040753383     0.001335397384     0.002118096266
      13       -0.000002690247    -0.000004633693     0.000003267072
      14        0.000006471585     0.000012448233     0.000008271396
      15        0.000002261329     0.000004120330     0.000006305043
      16        0.000012148254     0.000002210471    -0.000000991580

  **** Optimization is complete! (in 4 steps) ****
    Final optimized geometry and variables:
    Molecular point group: c1

    Geometry (in Angstrom), charge = 0, multiplicity = 1:

    H            3.273075736704     0.155029225446     0.028192781204
    N            2.431658852752    -0.381292556223     0.034333403401
    C            1.261376048057     0.479876372126     0.093142235261
    H            2.471788848665    -0.983182762931     0.830198196406
    C           -0.018762181412    -0.336378094435     0.015681668429
    H            1.304366978857     1.156768011229    -0.753403748495
    H            1.235611482400     1.101637683793     0.989455843682
    C           -1.286147212171     0.511612330833     0.107576529355
    H           -0.019775027632    -0.918820692409    -0.899989836263
    H           -0.023434465025    -1.065046042951     0.824600509081
    C           -2.547134904560    -0.244095474550    -0.294100187977
    H           -1.174751795319     1.401887377679    -0.505947031308
    H           -1.396697887312     0.875372567186     1.125800384807
    H           -2.496040701173    -0.567292101267    -1.328153269302
    H           -3.429543489687     0.375546215092    -0.182917433007
    H           -2.684276483638    -1.127973936625     0.320280941172

  Mulliken Charges: (a.u.)
   Center  Symbol    Alpha    Beta     Spin     Total
       1     H     0.43019  0.43019  0.00000  0.13963
       2     N     3.68925  3.68925  0.00000 -0.37849
       3     C     3.02630  3.02630  0.00000 -0.05260
       4     H     0.43084  0.43084  0.00000  0.13831
       5     C     3.07998  3.07998  0.00000 -0.15995
       6     H     0.45676  0.45676  0.00000  0.08647
       7     H     0.46865  0.46865  0.00000  0.06269
       8     C     3.08911  3.08911  0.00000 -0.17823
       9     H     0.45045  0.45045  0.00000  0.09910
      10     H     0.46015  0.46015  0.00000  0.07971
      11     C     3.14842  3.14842  0.00000 -0.29685
      12     H     0.45600  0.45600  0.00000  0.08801
      13     H     0.45568  0.45568  0.00000  0.08864
      14     H     0.45414  0.45414  0.00000  0.09171
      15     H     0.44903  0.44903  0.00000  0.10195
      16     H     0.45505  0.45505  0.00000  0.08989

   Total alpha = 21.00000, Total beta = 21.00000, Total charge =  0.00000
