  ==> Input File <==

--------------------------------------------------------------------------
set {
	reference rhf
	basis cc-pvtz
}

set_num_threads( 4 )
memory 2 gb

molecule MOL {
0 1

H	 -2.644180	 -0.653737	 1.272255
C	 -2.092774	 -0.380414	 0.391915
O	 -0.808934	 -0.154049	 0.752536
F	 -2.163230	 -1.351640	 -0.507133
F	 -2.627232	 0.691260	 -0.169301
C	 0.085006	 0.250800	 -0.215074
C	 1.370439	 -0.548013	 -0.012993
Cl	 0.421658	 1.987697	 -0.091007
H	 -0.272219	 0.063284	 -1.212508
F	 1.094988	 -1.798871	 0.256274
F	 2.026716	 -0.049854	 1.008013
F	 2.148646	 -0.506400	 -1.059374

	symmetry c1
}
set optking {
	frozen_dihedral = ("
		10 7 6 9
	")
}

ee = optimize('scf')
oeprop('DIPOLE', 'QUADRUPOLE', 'MULLIKEN_CHARGES')
f=open( 'psi4out.xyz', 'w' )
f.write( "12  " )
f.write( str(ee) + "\n" )
f.write( MOL.save_string_xyz() )
f.close()
--------------------------------------------------------------------------

    Molecular point group: c1
  Charge       = 0
  Multiplicity = 1
  Basis Set: CC-PVTZ
  Basis Set:
  @DF-RHF Final Energy: -1146.61708106647529
    Total Energy =                      -1146.6170810664755209
    Molecular point group: c1
  Basis Set: CC-PVTZ
  Basis Set:
  Basis Set: CC-PVTZ
  Basis Set:
  @DF-RHF Final Energy: -1146.61808084037807
    Total Energy =                      -1146.6180808403782976
  Basis Set: CC-PVTZ
  Basis Set:
  Basis Set: CC-PVTZ
  Basis Set:
  @DF-RHF Final Energy: -1146.61839617765850
    Total Energy =                      -1146.6183961776587239
  Basis Set: CC-PVTZ
  Basis Set:
  Basis Set: CC-PVTZ
  Basis Set:
  @DF-RHF Final Energy: -1146.61842834078811
    Total Energy =                      -1146.6184283407885687
  Basis Set: CC-PVTZ
  Basis Set:
  Basis Set: CC-PVTZ
  Basis Set:
  @DF-RHF Final Energy: -1146.61843239832888
    Total Energy =                      -1146.6184323983291051
  Basis Set: CC-PVTZ
  Basis Set:
  Basis Set: CC-PVTZ
  Basis Set:
  @DF-RHF Final Energy: -1146.61843429538567
    Total Energy =                      -1146.6184342953849864
  Basis Set: CC-PVTZ
  Basis Set:
  Charge       = 0
  Multiplicity = 1
  Basis Set: CC-PVTZ
  Basis Set:

    Orbital Energies (a.u.)
    -----------------------

    Doubly Occupied:

       1A   -104.854926     2A    -26.356610     3A    -26.353594
       4A    -26.351461     5A    -26.344041     6A    -26.344006
       7A    -20.642044     8A    -11.520823     9A    -11.484938
      10A    -11.401568    11A    -10.580470    12A     -8.047250
      13A     -8.045287    14A     -8.045193    15A     -1.768052
      16A     -1.725730    17A     -1.663984    18A     -1.659992
      19A     -1.645686    20A     -1.489001    21A     -1.176704
      22A     -1.051317    23A     -0.992187    24A     -0.924733
      25A     -0.864702    26A     -0.859911    27A     -0.851478
      28A     -0.830831    29A     -0.819796    30A     -0.794738
      31A     -0.735393    32A     -0.733133    33A     -0.712776
      34A     -0.708765    35A     -0.684725    36A     -0.681931
      37A     -0.665658    38A     -0.663796    39A     -0.650053
      40A     -0.637666    41A     -0.599458    42A     -0.581056
      43A     -0.524109    44A     -0.477714    45A     -0.468288

  @DF-RHF Final Energy: -1146.61843546888076

   => Energetics <=

    Nuclear Repulsion Energy =            737.5853921930278148
    One-Electron Energy =               -3058.3765092894482223
    Two-Electron Energy =                1174.1726816275372585
    DFT Exchange-Correlation Energy =       0.0000000000000000
    Empirical Dispersion Energy =           0.0000000000000000
    PCM Polarization Energy =               0.0000000000000000
    EFP Energy =                            0.0000000000000000
    Total Energy =                      -1146.6184354688830354
    Molecular point group: c1
  Basis Set: CC-PVTZ
  Basis Set:

  -Total Gradient:
     Atom            X                  Y                   Z
    ------   -----------------  -----------------  -----------------
       1        0.000008268055     0.000006524302     0.000000127389
       2       -0.000104814767     0.000004993559    -0.000051672756
       3        0.000158849185    -0.000039520037    -0.000067094565
       4        0.000005751961     0.000039054159     0.000026829083
       5        0.000066021870    -0.000032912325     0.000022277399
       6       -0.003937366490    -0.005418359042     0.003614497030
       7        0.000945767738    -0.000034303514    -0.006188309233
       8       -0.000009525192     0.000073296348    -0.000026781174
       9        0.003100008010     0.004642794164    -0.001803059493
      10       -0.000221642980     0.000782576862     0.004810554991
      11       -0.000126900111    -0.000072284486    -0.000194794098
      12        0.000115582716     0.000048140081    -0.000142574577

  **** Optimization is complete! (in 7 steps) ****
    Final optimized geometry and variables:
    Molecular point group: c1

    Geometry (in Angstrom), charge = 0, multiplicity = 1:

    H           -2.669396214908    -0.626596084930     1.262586908417
    C           -2.102531989556    -0.381630533542     0.383761444223
    O           -0.829905256289    -0.121660208285     0.762052209068
    F           -2.138983528789    -1.389243519134    -0.476049361092
    F           -2.638083478422     0.658759983500    -0.232408650924
    C            0.074948846756     0.252790160004    -0.201468102792
    C            1.369869344394    -0.543469929570    -0.003028623506
    CL           0.425350139593     1.994339193569    -0.106325724264
    H           -0.263356130249     0.090492950442    -1.209445780447
    F            1.083434421754    -1.801666284936     0.223442570618
    F            2.075994561494    -0.113879575363     1.007881403514
    F            2.104443364659    -0.469273838760    -1.084787134111

  Mulliken Charges: (a.u.)
   Center  Symbol    Alpha    Beta     Spin     Total
       1     H     0.45179  0.45179  0.00000  0.09643
       2     C     2.73911  2.73911  0.00000  0.52179
       3     O     4.15446  4.15446  0.00000 -0.30893
       4     F     4.61765  4.61765  0.00000 -0.23531
       5     F     4.61505  4.61505  0.00000 -0.23010
       6     C     2.94068  2.94068  0.00000  0.11863
       7     C     2.66758  2.66758  0.00000  0.66483
       8    CL     8.57528  8.57528  0.00000 -0.15056
       9     H     0.43182  0.43182  0.00000  0.13635
      10     F     4.60248  4.60248  0.00000 -0.20496
      11     F     4.60007  4.60007  0.00000 -0.20013
      12     F     4.60402  4.60402  0.00000 -0.20804

   Total alpha = 45.00000, Total beta = 45.00000, Total charge = -0.00000
