  ==> Input File <==

--------------------------------------------------------------------------
set {
	reference rhf
	basis 6-31G*
}

set_num_threads( 4 )
memory 2 gb

molecule MOL {
0 1

H	 0.776244	 0.383156	 2.328976
C	 -0.184382	 0.421652	 1.833980
O	 0.000000	 0.000000	 0.521119
H	 -0.880968	 -0.224281	 2.366171
H	 -0.561490	 1.442304	 1.875781
C	 -1.165642	 0.000000	 -0.238270
H	 -1.228672	 0.883184	 -0.872070
H	 -2.003012	 0.000000	 0.445920
H	 -1.228672	 -0.883184	 -0.872070

	symmetry c1
}
set optking {
	frozen_dihedral = ("
		2 3 6 7
	")
}

ee = optimize('scf')
oeprop('DIPOLE', 'QUADRUPOLE', 'MULLIKEN_CHARGES')
f=open( 'psi4out.xyz', 'w' )
f.write( "9  " )
f.write( str(ee) + "\n" )
f.write( MOL.save_string_xyz() )
f.close()
--------------------------------------------------------------------------

    Molecular point group: c1
  Charge       = 0
  Multiplicity = 1
  Basis Set: 6-31G*
  Basis Set:
  @DF-RHF Final Energy:  -154.06027808787474
    Total Energy =                       -154.0602780878746785
    Molecular point group: c1
  Basis Set: 6-31G*
  Basis Set:
  Basis Set: 6-31G*
  Basis Set:
  @DF-RHF Final Energy:  -154.06131021525175
    Total Energy =                       -154.0613102152516944
  Basis Set: 6-31G*
  Basis Set:
  Basis Set: 6-31G*
  Basis Set:
  @DF-RHF Final Energy:  -154.06162955728786
    Total Energy =                       -154.0616295572879153
  Basis Set: 6-31G*
  Basis Set:
  Charge       = 0
  Multiplicity = 1
  Basis Set: 6-31G*
  Basis Set:

    Orbital Energies (a.u.)
    -----------------------

    Doubly Occupied:

       1A    -20.553282     2A    -11.265538     3A    -11.264680
       4A     -1.375344     5A     -0.975035     6A     -0.872685
       7A     -0.658205     8A     -0.652932     9A     -0.643358
      10A     -0.557115    11A     -0.528437    12A     -0.473543
      13A     -0.412804

  @DF-RHF Final Energy:  -154.06163204041755

   => Energetics <=

    Nuclear Repulsion Energy =             84.5407428354776869
    One-Electron Energy =                -376.7388336101323603
    Two-Electron Energy =                 138.1364587342371237
    DFT Exchange-Correlation Energy =       0.0000000000000000
    Empirical Dispersion Energy =           0.0000000000000000
    PCM Polarization Energy =               0.0000000000000000
    EFP Energy =                            0.0000000000000000
    Total Energy =                       -154.0616320404175781
    Molecular point group: c1
  Basis Set: 6-31G*
  Basis Set:

  -Total Gradient:
     Atom            X                  Y                   Z
    ------   -----------------  -----------------  -----------------
       1        0.000008946242    -0.000008162906    -0.000017101651
       2       -0.000467044989    -0.002116563311     0.000681185485
       3        0.000942424307     0.002770938746    -0.001675616885
       4       -0.000008244952    -0.000015745239    -0.000038690024
       5        0.000005907462    -0.000022163715    -0.000006092897
       6       -0.001922836019     0.000817076938     0.003108138859
       7        0.001484221329    -0.001439637734    -0.002031536882
       8       -0.000064766142     0.000006542215     0.000005030614
       9        0.000021392761     0.000007715007    -0.000025316618

  **** Optimization is complete! (in 4 steps) ****
    Final optimized geometry and variables:
    Molecular point group: c1

    Geometry (in Angstrom), charge = 0, multiplicity = 1:

    H            1.271046717239     0.220155949127     1.601008386914
    C            0.301245372736     0.282006404671     1.126471432843
    O            0.452244732525    -0.147838101078    -0.188801242305
    H           -0.397954913163    -0.347596980456     1.673152838659
    H           -0.047737285520     1.311929958404     1.178980226508
    C           -0.715533995679    -0.145239769663    -0.953299595828
    H           -0.757686114134     0.735582770014    -1.588566012743
    H           -1.608748196221    -0.183373158119    -0.336115622660
    H           -0.703508640297    -1.018857484089    -1.593974487803

  Mulliken Charges: (a.u.)
   Center  Symbol    Alpha    Beta     Spin     Total
       1     H     0.41255  0.41255  0.00000  0.17490
       2     C     3.07924  3.07924  0.00000 -0.15847
       3     O     4.29896  4.29896  0.00000 -0.59792
       4     H     0.42977  0.42977  0.00000  0.14046
       5     H     0.43040  0.43040  0.00000  0.13920
       6     C     3.07818  3.07818  0.00000 -0.15635
       7     H     0.42444  0.42444  0.00000  0.15111
       8     H     0.43042  0.43042  0.00000  0.13916
       9     H     0.41603  0.41603  0.00000  0.16793

   Total alpha = 13.00000, Total beta = 13.00000, Total charge = -0.00000
