                              Psi4 1.0.54 Driver

  ==> Input File <==

--------------------------------------------------------------------------
set {
	reference rhf
	basis cc-pvtz
}

set_num_threads( 4 )
memory 2 gb

molecule MOL {
0 1

H	 -0.905682	 6.440587	 3.527521
C	 -1.771770	 5.790077	 3.487568
C	 -1.597900	 4.704980	 2.430375
H	 -1.904544	 5.355267	 4.472214
H	 -2.639688	 6.407230	 3.278668
C	 -2.805252	 3.774531	 2.337978
H	 -0.710722	 4.124591	 2.656213
H	 -1.429981	 5.170879	 1.462096
C	 -2.662252	 2.681753	 1.283334
H	 -2.981911	 3.313374	 3.301801
H	 -3.687787	 4.362149	 2.102137
C	 -1.671577	 1.585159	 1.636220
H	 -3.618681	 2.187490	 1.132622
H	 -2.394748	 3.104338	 0.319290
C	 -1.180025	 0.697761	 0.509157
O	 -1.306855	 1.409612	 2.754002
C	 -2.285431	 -0.137488	 -0.145671
H	 -0.419770	 0.050094	 0.924343
H	 -0.710307	 1.326570	 -0.242615
C	 -3.646545	 0.082747	 0.508954
H	 -2.348635	 0.118247	 -1.199806
H	 -2.034895	 -1.192387	 -0.096473
C	 -4.757412	 -0.737227	 -0.138149
H	 -3.900211	 1.137405	 0.459735
H	 -3.580878	 -0.166775	 1.564416
H	 -4.867876	 -0.486707	 -1.187777
H	 -4.549650	 -1.800049	 -0.072540
H	 -5.709585	 -0.556397	 0.346597

	symmetry c1
}
set optking {
	frozen_dihedral = ("
		12 15 17 21
	")
}

ee,wfn = optimize('scf', return_wfn=True)
oeprop( wfn, 'DIPOLE', 'QUADRUPOLE', 'MULLIKEN_CHARGES')
f=open( 'psi4out.xyz', 'w' )
f.write( "28  " )
f.write( str(ee) + "\n" )
f.write( MOL.save_string_xyz() )
f.close()
--------------------------------------------------------------------------

    Molecular point group: c1
  Charge       = 0
  Multiplicity = 1
  Basis Set: CC-PVTZ
  Basis Set:
  @DF-RHF Final Energy:  -426.28084929053216
    Total Energy =                       -426.2808492905321600
    Molecular point group: c1
  Basis Set: CC-PVTZ
  Basis Set:
  Basis Set: CC-PVTZ
  Basis Set:
  @DF-RHF Final Energy:  -426.30038372257218
    Total Energy =                       -426.3003837225722918
  Basis Set: CC-PVTZ
  Basis Set:
  Basis Set: CC-PVTZ
  Basis Set:
  @DF-RHF Final Energy:  -426.30641970094212
    Total Energy =                       -426.3064197009418876
  Basis Set: CC-PVTZ
  Basis Set:
  Basis Set: CC-PVTZ
  Basis Set:
  @DF-RHF Final Energy:  -426.30630050468062
    Total Energy =                       -426.3063005046801663
  Basis Set: CC-PVTZ
  Basis Set:
  @DF-RHF Final Energy:  -426.30850844662314
    Total Energy =                       -426.3085084466227954
  @DF-RHF Final Energy:  -426.30907304506593
    Total Energy =                       -426.3090730450657020
  @DF-RHF Final Energy:  -426.30944724478832
    Total Energy =                       -426.3094472447882026
  @DF-RHF Final Energy:  -426.30971027600026
    Total Energy =                       -426.3097102760011694
  @DF-RHF Final Energy:  -426.30570823664198
    Total Energy =                       -426.3057082366422037
  @DF-RHF Final Energy:  -426.31030909992262
    Total Energy =                       -426.3103090999223923
  @DF-RHF Final Energy:  -426.20002959904730
    Total Energy =                       -426.2000295990470704
  @DF-RHF Final Energy:  -426.29914463859450
    Total Energy =                       -426.2991446385935888
  @DF-RHF Final Energy:  -426.31067548224075
    Total Energy =                       -426.3106754822420044
  @DF-RHF Final Energy:  -426.31091074005940
    Total Energy =                       -426.3109107400593984
  @DF-RHF Final Energy:  -426.31104363449163
    Total Energy =                       -426.3110436344910568
  @DF-RHF Final Energy:  -426.31113553140324
    Total Energy =                       -426.3111355314031243
  @DF-RHF Final Energy:  -426.31121174403779
    Total Energy =                       -426.3112117440373368
  Basis Set: CC-PVTZ
  Basis Set:
  @DF-RHF Final Energy:  -426.31125147093621
    Total Energy =                       -426.3112514709356446
  Basis Set: CC-PVTZ
  Basis Set:
  Basis Set: CC-PVTZ
  Basis Set:
  @DF-RHF Final Energy:  -426.31126626169055
    Total Energy =                       -426.3112662616902071
  Basis Set: CC-PVTZ
  Basis Set:
  Basis Set: CC-PVTZ
  Basis Set:
  @DF-RHF Final Energy:  -426.31127097516617
    Total Energy =                       -426.3112709751662806
  Basis Set: CC-PVTZ
  Basis Set:
  Charge       = 0
  Multiplicity = 1
  Basis Set: CC-PVTZ
  Basis Set:

    Orbital Energies (a.u.)
    -----------------------

    Doubly Occupied:

       1A    -20.536228     2A    -11.317458     3A    -11.229198
       4A    -11.227746     5A    -11.226820     6A    -11.217354
       7A    -11.214652     8A    -11.209965     9A    -11.208693
      10A    -11.202852    11A     -1.397207    12A     -1.089438
      13A     -1.076692    14A     -1.021219    15A     -0.990520
      16A     -0.909107    17A     -0.871889    18A     -0.812135
      19A     -0.794151    20A     -0.721041    21A     -0.667883
      22A     -0.647979    23A     -0.630733    24A     -0.618024
      25A     -0.608675    26A     -0.583974    27A     -0.576680
      28A     -0.573061    29A     -0.556534    30A     -0.530769
      31A     -0.517110    32A     -0.509587    33A     -0.496227
      34A     -0.485674    35A     -0.475776    36A     -0.468188
      37A     -0.464688    38A     -0.462396    39A     -0.456203
      40A     -0.393661

  @DF-RHF Final Energy:  -426.31127128853950

   => Energetics <=

    Nuclear Repulsion Energy =            543.8989808341012804
    One-Electron Energy =               -1656.4241222176506199
    Two-Electron Energy =                 686.2138700950094972
    DFT Exchange-Correlation Energy =       0.0000000000000000
    Empirical Dispersion Energy =           0.0000000000000000
    PCM Polarization Energy =               0.0000000000000000
    EFP Energy =                            0.0000000000000000
    Total Energy =                       -426.3112712885399560
    Molecular point group: c1
  Basis Set: CC-PVTZ
  Basis Set:

  -Total Gradient:
     Atom            X                  Y                   Z
    ------   -----------------  -----------------  -----------------
       1       -0.000000460686     0.000000655977    -0.000000536635
       2        0.000000413007     0.000001442577     0.000000456024
       3       -0.000011517651    -0.000024478679    -0.000009872949
       4       -0.000000542669    -0.000000830286     0.000001215598
       5       -0.000000608004     0.000002325985    -0.000001816940
       6        0.000006448436    -0.000029337185     0.000013584711
       7       -0.000002198330     0.000004664314    -0.000000451603
       8        0.000002409169    -0.000000168123    -0.000001860342
       9        0.000027180020     0.000011153898    -0.000003202707
      10       -0.000001285518     0.000001089214    -0.000000210383
      11       -0.000000415488     0.000001574902    -0.000002748238
      12       -0.000109437399    -0.000728619217     0.001095371754
      13       -0.000002201505    -0.000000404247    -0.000006934649
      14       -0.000016315154     0.000007198646    -0.000006277633
      15        0.000377459972     0.000700556462    -0.001508905075
      16       -0.000013919878    -0.000003146750    -0.000002032203
      17       -0.001079504748     0.001585195107     0.000306686704
      18        0.000000177452     0.000003120034     0.000002760488
      19       -0.000004557838     0.000001984013     0.000002428906
      20       -0.000013692360     0.000018701275    -0.000003319163
      21        0.000828321430    -0.001556770736     0.000119556519
      22        0.000012480917     0.000001036156    -0.000000797824
      23        0.000010013745     0.000005568016     0.000004523291
      24       -0.000006321636    -0.000001886143     0.000005722587
      25        0.000000186237     0.000002437519    -0.000003160651
      26       -0.000001610701     0.000000118471    -0.000001869674
      27        0.000000177397    -0.000003155335    -0.000000056337
      28       -0.000000678214    -0.000000025870     0.000001746426

  **** Optimization is complete! (in 21 steps) ****
    Final optimized geometry and variables:
    Molecular point group: c1

    Geometry (in Angstrom), charge = 0, multiplicity = 1:

    H            1.874968526655     3.957501262945     2.836823373739
    C            1.104618138892     3.729114473009     2.109313955888
    C            1.465144360396     2.490675489201     1.296049347614
    H            0.174574748538     3.583135127197     2.647940163519
    H            0.984274539540     4.598685055589     1.471008327461
    C            0.408505408862     2.148531679513     0.247520916797
    H            1.597616572760     1.647823972193     1.962725868347
    H            2.419150094521     2.653034418194     0.799680868776
    C            0.735862070418     0.912469672451    -0.583335911129
    H           -0.549885947693     2.005583974434     0.733199241576
    H            0.296078039323     2.992720373427    -0.426778207211
    C            0.539437451991    -0.416223736281     0.119946833851
    H            0.126053457696     0.880993164940    -1.483218397147
    H            1.763356410742     0.945476930362    -0.938271209937
    C            0.836180505507    -1.668842754604    -0.687841961299
    O            0.168952629210    -0.491852987285     1.246680588306
    C           -0.410029680446    -2.375076711066    -1.299001295540
    H            1.331442182606    -2.346254436963    -0.005564026518
    H            1.538398347492    -1.431188746829    -1.476662266326
    C           -1.783205468308    -1.802477844256    -0.948838265400
    H           -0.300159355399    -2.395982896074    -2.377737821185
    H           -0.390220679584    -3.412869404578    -0.987376192366
    C           -2.911493041306    -2.591545176550    -1.604797269077
    H           -1.848530030387    -0.765275369924    -1.264938483977
    H           -1.916058070063    -1.803143135667     0.125696684881
    H           -2.824602666702    -2.580553717059    -2.686350925214
    H           -2.901338631322    -3.627732361151    -1.283728516107
    H           -3.878151052259    -2.175642249553    -1.346243257819

  Mulliken Charges: (a.u.)
   Center  Symbol    Alpha    Beta     Spin     Total
       1     H     0.44872  0.44872  0.00000  0.10256
       2     C     3.15174  3.15174  0.00000 -0.30347
       3     C     3.08346  3.08346  0.00000 -0.16691
       4     H     0.45235  0.45235  0.00000  0.09530
       5     H     0.45746  0.45746  0.00000  0.08508
       6     C     3.08754  3.08754  0.00000 -0.17508
       7     H     0.44326  0.44326  0.00000  0.11348
       8     H     0.45893  0.45893  0.00000  0.08213
       9     C     3.12809  3.12809  0.00000 -0.25617
      10     H     0.44696  0.44696  0.00000  0.10608
      11     H     0.44820  0.44820  0.00000  0.10359
      12     C     2.86378  2.86378  0.00000  0.27244
      13     H     0.43458  0.43458  0.00000  0.13085
      14     H     0.44057  0.44057  0.00000  0.11887
      15     C     3.09827  3.09827  0.00000 -0.19654
      16     O     4.18691  4.18691  0.00000 -0.37381
      17     C     3.09824  3.09824  0.00000 -0.19648
      18     H     0.43755  0.43755  0.00000  0.12490
      19     H     0.44440  0.44440  0.00000  0.11120
      20     C     3.09168  3.09168  0.00000 -0.18336
      21     H     0.44941  0.44941  0.00000  0.10117
      22     H     0.44720  0.44720  0.00000  0.10560
      23     C     3.15184  3.15184  0.00000 -0.30368
      24     H     0.45505  0.45505  0.00000  0.08989
      25     H     0.43730  0.43730  0.00000  0.12540
      26     H     0.45653  0.45653  0.00000  0.08694
      27     H     0.45363  0.45363  0.00000  0.09275
      28     H     0.44637  0.44637  0.00000  0.10727

   Total alpha = 40.00000, Total beta = 40.00000, Total charge = -0.00000

*** Psi4 exiting successfully. Buy a developer a beer!
