                              Psi4 1.0.54 Driver

  ==> Input File <==

--------------------------------------------------------------------------
set {
	reference rhf
	basis cc-pvtz
}

set_num_threads( 4 )
memory 2 gb

molecule MOL {
0 1

H	 -2.025301	 0.209866	 -0.086630
N	 -1.173926	 -0.310573	 -0.096856
C	 -0.022690	 0.563338	 0.065816
H	 -1.224957	 -0.974415	 0.647672
C	 1.270318	 -0.230600	 -0.014244
H	 -0.045456	 1.293650	 -0.735128
H	 -0.043257	 1.123033	 1.001181
H	 1.336171	 -0.754961	 -0.959363
H	 2.130626	 0.421987	 0.082223
H	 1.323242	 -0.967034	 0.781774

	symmetry c1
}
ee,wfn = energy('scf', return_wfn=True)
oeprop( wfn, 'DIPOLE', 'QUADRUPOLE', 'MULLIKEN_CHARGES')
oeprop( wfn, 'GRID_ESP')
f=open( 'psi4out.xyz', 'w' )
f.write( "10  " )
f.write( str(ee) + "\n" )
f.write( MOL.save_string_xyz() )
f.close()
--------------------------------------------------------------------------

    Molecular point group: c1

    Geometry (in Angstrom), charge = 0, multiplicity = 1:

       Center              X                  Y                   Z               Mass
    ------------   -----------------  -----------------  -----------------  -----------------
           H         -2.025198598297     0.209893504767    -0.086630822655     1.007825032070
           N         -1.173823598297    -0.310545495233    -0.096856822655    14.003074004780
           C         -0.022587598297     0.563365504767     0.065815177345    12.000000000000
           H         -1.224854598297    -0.974387495233     0.647671177345     1.007825032070
           C          1.270420401703    -0.230572495233    -0.014244822655    12.000000000000
           H         -0.045353598297     1.293677504767    -0.735128822655     1.007825032070
           H         -0.043154598297     1.123060504767     1.001180177345     1.007825032070
           H          1.336273401703    -0.754933495233    -0.959363822655     1.007825032070
           H          2.130728401703     0.422014504767     0.082222177345     1.007825032070
           H          1.323344401703    -0.967006495233     0.781773177345     1.007825032070

  Charge       = 0
  Multiplicity = 1
  Basis Set: CC-PVTZ
  Basis Set:

    Orbital Energies (a.u.)
    -----------------------

    Doubly Occupied:

       1A    -15.527035     2A    -11.240943     3A    -11.205127
       4A     -1.178055     5A     -0.988621     6A     -0.824411
       7A     -0.663510     8A     -0.631893     9A     -0.583015
      10A     -0.516566    11A     -0.508989    12A     -0.488419
      13A     -0.385062

  @DF-RHF Final Energy:  -134.30479288531555

   => Energetics <=

    Nuclear Repulsion Energy =             83.4683992906290371
    One-Electron Energy =                -346.0637100844322731
    Two-Electron Energy =                 128.2905179084877147
    DFT Exchange-Correlation Energy =       0.0000000000000000
    Empirical Dispersion Energy =           0.0000000000000000
    PCM Polarization Energy =               0.0000000000000000
    EFP Energy =                            0.0000000000000000
    Total Energy =                       -134.3047928853155497

  Mulliken Charges: (a.u.)
   Center  Symbol    Alpha    Beta     Spin     Total
       1     H     0.42957  0.42957  0.00000  0.14087
       2     N     3.68983  3.68983  0.00000 -0.37965
       3     C     3.01875  3.01875  0.00000 -0.03750
       4     H     0.43040  0.43040  0.00000  0.13920
       5     C     3.13905  3.13905  0.00000 -0.27809
       6     H     0.45774  0.45774  0.00000  0.08453
       7     H     0.46961  0.46961  0.00000  0.06079
       8     H     0.44955  0.44955  0.00000  0.10089
       9     H     0.45553  0.45553  0.00000  0.08895
      10     H     0.45999  0.45999  0.00000  0.08002

   Total alpha = 13.00000, Total beta = 13.00000, Total charge = -0.00000

*** Psi4 exiting successfully. Buy a developer a beer!
