  ==> Input File <==

--------------------------------------------------------------------------
set {
	reference rhf
	basis 6-31G*
}

set_num_threads( 1 )
memory 2 gb

molecule MOL {
0 1

O	 3.225979	 0.970355	 -0.599647
C	 2.701189	 0.057885	 -0.047330
C	 1.245376	 -0.013843	 0.345420
O	 3.347903	 -1.046386	 0.304773
C	 0.455112	 1.231400	 -0.050772
H	 0.838542	 -0.913825	 -0.103701
H	 1.208210	 -0.175333	 1.419774
C	 -0.998893	 1.219485	 0.433193
H	 0.482531	 1.345121	 -1.130325
H	 0.957290	 2.103070	 0.354729
C	 -1.883438	 0.145884	 -0.207175
H	 -1.431207	 2.195402	 0.224832
H	 -1.019646	 1.105716	 1.516076
C	 -3.347647	 0.245583	 0.225435
H	 -1.822183	 0.231698	 -1.291012
H	 -1.510341	 -0.844814	 0.042401
C	 -3.528264	 0.852606	 1.617926
H	 -3.796964	 -0.745857	 0.205513
H	 -3.897603	 0.843010	 -0.500050
C	 -4.993070	 0.945096	 2.043940
H	 -2.978517	 0.257404	 2.343979
H	 -3.083612	 1.845400	 1.638566
H	 -5.088428	 1.379138	 3.034456
H	 -5.457329	 -0.036801	 2.067120
H	 -5.563263	 1.562935	 1.355878
C	 4.728119	 -1.109107	 -0.004993
H	 4.882018	 -1.033965	 -1.071845
H	 5.068212	 -2.067527	 0.355250
H	 5.265056	 -0.311663	 0.488280

	symmetry c1
}
set optking {
	frozen_dihedral = ("
		21 17 14 11,
		15 11 8 5,
		6 3 5 9,
		11 8 5 9,
		2 4 26 27,
		1 2 4 26,
		6 3 2 1
	")
}

ee = energy('scf')
oeprop('DIPOLE', 'QUADRUPOLE', 'MULLIKEN_CHARGES')
f=open( 'psi4out.xyz', 'w' )
f.write( "29  " )
f.write( str(ee) + "\n" )
f.write( MOL.save_string_xyz() )
f.close()
--------------------------------------------------------------------------

    Molecular point group: c1

    Geometry (in Angstrom), charge = 0, multiplicity = 1:

       Center              X                  Y                   Z               Mass
    ------------   -----------------  -----------------  -----------------  -----------------
           O          3.095639696562     0.663800943274    -0.970143402706    15.994914619560
           C          2.570849696562    -0.248669056726    -0.417826402706    12.000000000000
           C          1.115036696562    -0.320397056726    -0.025076402706    12.000000000000
           O          3.217563696562    -1.352940056726    -0.065723402706    15.994914619560
           C          0.324772696562     0.924845943274    -0.421268402706    12.000000000000
           H          0.708202696562    -1.220379056726    -0.474197402706     1.007825032070
           H          1.077870696562    -0.481887056726     1.049277597294     1.007825032070
           C         -1.129232303438     0.912930943274     0.062696597294    12.000000000000
           H          0.352191696562     1.038566943274    -1.500821402706     1.007825032070
           H          0.826950696562     1.796515943274    -0.015767402706     1.007825032070
           C         -2.013777303438    -0.160670056726    -0.577671402706    12.000000000000
           H         -1.561546303438     1.888847943274    -0.145664402706     1.007825032070
           H         -1.149985303438     0.799161943274     1.145579597294     1.007825032070
           C         -3.477986303438    -0.060971056726    -0.145061402706    12.000000000000
           H         -1.952522303438    -0.074856056726    -1.661508402706     1.007825032070
           H         -1.640680303438    -1.151368056726    -0.328095402706     1.007825032070
           C         -3.658603303438     0.546051943274     1.247429597294    12.000000000000
           H         -3.927303303438    -1.052411056726    -0.164983402706     1.007825032070
           H         -4.027942303438     0.536455943274    -0.870546402706     1.007825032070
           C         -5.123409303438     0.638541943274     1.673443597294    12.000000000000
           H         -3.108856303438    -0.049150056726     1.973482597294     1.007825032070
           H         -3.213951303438     1.538845943274     1.268069597294     1.007825032070
           H         -5.218767303438     1.072583943274     2.663959597294     1.007825032070
           H         -5.587668303438    -0.343355056726     1.696623597294     1.007825032070
           H         -5.693602303438     1.256380943274     0.985381597294     1.007825032070
           C          4.597779696562    -1.415661056726    -0.375489402706    12.000000000000
           H          4.751678696562    -1.340519056726    -1.442341402706     1.007825032070
           H          4.937872696562    -2.374081056726    -0.015246402706     1.007825032070
           H          5.134716696562    -0.618217056726     0.117783597294     1.007825032070

  Charge       = 0
  Multiplicity = 1
  Basis Set: 6-31G*
  Basis Set:

    Orbital Energies (a.u.)
    -----------------------

    Doubly Occupied:

       1A    -20.603192     2A    -20.544948     3A    -11.371757
       4A    -11.280537     5A    -11.234414     6A    -11.218199
       7A    -11.216415     8A    -11.215246     9A    -11.214587
      10A    -11.213668    11A    -11.208229    12A     -1.468870
      13A     -1.362292    14A     -1.100473    15A     -1.065994
      16A     -1.015780    17A     -0.976931    18A     -0.928704
      19A     -0.861409    20A     -0.824018    21A     -0.772924
      22A     -0.754912    23A     -0.700946    24A     -0.682075
      25A     -0.671661    26A     -0.649538    27A     -0.627423
      28A     -0.601252    29A     -0.600009    30A     -0.581603
      31A     -0.566899    32A     -0.554426    33A     -0.547457
      34A     -0.523703    35A     -0.517100    36A     -0.504757
      37A     -0.489989    38A     -0.485625    39A     -0.477936
      40A     -0.456785    41A     -0.451433    42A     -0.446873
      43A     -0.440958    44A     -0.436834

  @DF-RHF Final Energy:  -501.03488856572244

   => Energetics <=

    Nuclear Repulsion Energy =            618.9755418069021289
    One-Electron Energy =               -1909.0832631075720656
    Two-Electron Energy =                 789.0728327349467008
    DFT Exchange-Correlation Energy =       0.0000000000000000
    Empirical Dispersion Energy =           0.0000000000000000
    PCM Polarization Energy =               0.0000000000000000
    EFP Energy =                            0.0000000000000000
    Total Energy =                       -501.0348885657232358

  Mulliken Charges: (a.u.)
   Center  Symbol    Alpha    Beta     Spin     Total
       1     O     4.28604  4.28604  0.00000 -0.57208
       2     C     2.60466  2.60466  0.00000  0.79068
       3     C     3.20984  3.20984  0.00000 -0.41969
       4     O     4.30757  4.30757  0.00000 -0.61514
       5     C     3.15138  3.15138  0.00000 -0.30277
       6     H     0.39886  0.39886  0.00000  0.20228
       7     H     0.40154  0.40154  0.00000  0.19692
       8     C     3.16547  3.16547  0.00000 -0.33094
       9     H     0.41363  0.41363  0.00000  0.17274
      10     H     0.40924  0.40924  0.00000  0.18152
      11     C     3.15560  3.15560  0.00000 -0.31121
      12     H     0.41763  0.41763  0.00000  0.16474
      13     H     0.41925  0.41925  0.00000  0.16151
      14     C     3.15209  3.15209  0.00000 -0.30418
      15     H     0.42012  0.42012  0.00000  0.15975
      16     H     0.42268  0.42268  0.00000  0.15464
      17     C     3.15878  3.15878  0.00000 -0.31755
      18     H     0.42119  0.42119  0.00000  0.15762
      19     H     0.42230  0.42230  0.00000  0.15540
      20     C     3.23749  3.23749  0.00000 -0.47497
      21     H     0.42344  0.42344  0.00000  0.15313
      22     H     0.41805  0.41805  0.00000  0.16391
      23     H     0.41973  0.41973  0.00000  0.16055
      24     H     0.42233  0.42233  0.00000  0.15533
      25     H     0.42188  0.42188  0.00000  0.15623
      26     C     3.09240  3.09240  0.00000 -0.18479
      27     H     0.40909  0.40909  0.00000  0.18181
      28     H     0.40856  0.40856  0.00000  0.18289
      29     H     0.40915  0.40915  0.00000  0.18169

   Total alpha = 44.00000, Total beta = 44.00000, Total charge =  0.00000
