  ==> Input File <==

--------------------------------------------------------------------------
set {
	reference rhf
	basis 6-31G*
}

set_num_threads( 4 )
memory 2 gb

molecule MOL {
0 1

H	 2.591676	 2.013956	 0.335017
O	 3.341076	 1.666752	 -0.126416
C	 3.569581	 0.339145	 0.272707
C	 2.539767	 -0.640285	 -0.279495
H	 4.553106	 0.084646	 -0.100901
H	 3.608576	 0.269204	 1.359154
C	 1.115811	 -0.397273	 0.226630
H	 2.556196	 -0.582511	 -1.364741
H	 2.852081	 -1.648031	 -0.010655
C	 0.115918	 -1.429151	 -0.302766
H	 0.797950	 0.599468	 -0.066350
H	 1.109961	 -0.420744	 1.316472
C	 -0.174971	 -2.592733	 0.652117
H	 -0.817050	 -0.927654	 -0.553601
H	 0.500497	 -1.836982	 -1.235222
C	 -0.903472	 -2.202041	 1.940963
H	 -0.777938	 -3.327141	 0.122124
H	 0.758771	 -3.093666	 0.903172
C	 -1.264651	 -3.408150	 2.810610
H	 -1.812172	 -1.657302	 1.688705
H	 -0.291015	 -1.519144	 2.524787
C	 -1.986241	 -3.020442	 4.100826
H	 -1.890298	 -4.089889	 2.238521
H	 -0.358983	 -3.959176	 3.055601
H	 -2.913579	 -2.495703	 3.888892
H	 -2.230307	 -3.896379	 4.693954
H	 -1.371020	 -2.367462	 4.713592

	symmetry c1
}
set optking {
	frozen_dihedral = ("
		14 10 7 4
	")
}

ee = optimize('scf')
oeprop('DIPOLE', 'QUADRUPOLE', 'MULLIKEN_CHARGES')
f=open( 'psi4out.xyz', 'w' )
f.write( "27  " )
f.write( str(ee) + "\n" )
f.write( MOL.save_string_xyz() )
f.close()
--------------------------------------------------------------------------

    Molecular point group: c1
  Charge       = 0
  Multiplicity = 1
  Basis Set: 6-31G*
  Basis Set:
  @DF-RHF Final Energy:  -388.27723418708297
    Total Energy =                       -388.2772341870834225
    Molecular point group: c1
  Basis Set: 6-31G*
  Basis Set:
  Basis Set: 6-31G*
  Basis Set:
  @DF-RHF Final Energy:  -388.27754839521026
    Total Energy =                       -388.2775483952096920
  Basis Set: 6-31G*
  Basis Set:
  Basis Set: 6-31G*
  Basis Set:
  @DF-RHF Final Energy:  -388.27783101252010
    Total Energy =                       -388.2778310125203234
  Basis Set: 6-31G*
  Basis Set:
  Basis Set: 6-31G*
  Basis Set:
  @DF-RHF Final Energy:  -388.27784002969588
    Total Energy =                       -388.2778400296959944
  Basis Set: 6-31G*
  Basis Set:
  Basis Set: 6-31G*
  Basis Set:
  @DF-RHF Final Energy:  -388.27786346644007
    Total Energy =                       -388.2778634664393849
  Basis Set: 6-31G*
  Basis Set:
  Basis Set: 6-31G*
  Basis Set:
  @DF-RHF Final Energy:  -388.27786550323310
    Total Energy =                       -388.2778655032331017
  Basis Set: 6-31G*
  Basis Set:
  Basis Set: 6-31G*
  Basis Set:
  @DF-RHF Final Energy:  -388.27786684985108
    Total Energy =                       -388.2778668498513071
  Basis Set: 6-31G*
  Basis Set:
  Charge       = 0
  Multiplicity = 1
  Basis Set: 6-31G*
  Basis Set:

    Orbital Energies (a.u.)
    -----------------------

    Doubly Occupied:

       1A    -20.552230     2A    -11.266941     3A    -11.219920
       4A    -11.217168     5A    -11.216603     6A    -11.216309
       7A    -11.215465     8A    -11.214781     9A    -11.209981
      10A     -1.358976    11A     -1.094859    12A     -1.061066
      13A     -1.010653    14A     -0.948910    15A     -0.887677
      16A     -0.825064    17A     -0.802127    18A     -0.774411
      19A     -0.693420    20A     -0.656063    21A     -0.629735
      22A     -0.616203    23A     -0.602375    24A     -0.584010
      25A     -0.579420    26A     -0.552627    27A     -0.543742
      28A     -0.527501    29A     -0.507268    30A     -0.503483
      31A     -0.482169    32A     -0.475899    33A     -0.464398
      34A     -0.457046    35A     -0.451302    36A     -0.442368
      37A     -0.424397

  @DF-RHF Final Energy:  -388.27786714722686

   => Energetics <=

    Nuclear Repulsion Energy =            460.7082696444578005
    One-Electron Energy =               -1439.3991410826383799
    Two-Electron Energy =                 590.4130042909539497
    DFT Exchange-Correlation Energy =       0.0000000000000000
    Empirical Dispersion Energy =           0.0000000000000000
    PCM Polarization Energy =               0.0000000000000000
    EFP Energy =                            0.0000000000000000
    Total Energy =                       -388.2778671472266296
    Molecular point group: c1
  Basis Set: 6-31G*
  Basis Set:

  -Total Gradient:
     Atom            X                  Y                   Z
    ------   -----------------  -----------------  -----------------
       1        0.000009074506    -0.000002035912     0.000000627755
       2        0.000008547997     0.000000840021    -0.000008351240
       3       -0.000018683285     0.000004616153     0.000027507776
       4       -0.000455607442     0.001287000157    -0.001714284461
       5       -0.000006851659     0.000000889221    -0.000001724352
       6        0.000004552436     0.000000649915     0.000003697026
       7        0.000824995308    -0.001694311983     0.001663448202
       8        0.000005871454     0.000005190400    -0.000004972052
       9       -0.000002052390    -0.000000770350    -0.000005800892
      10       -0.001240718838    -0.000084949934     0.002859312379
      11       -0.000015481203    -0.000012193391    -0.000012469302
      12       -0.000002047241     0.000001541491     0.000005365488
      13       -0.000019304769     0.000010041943     0.000002618255
      14        0.000887581035     0.000486281933    -0.002814309288
      15        0.000000969749    -0.000008091500     0.000001183167
      16        0.000022244897     0.000010078432     0.000012817516
      17        0.000004111471    -0.000005653451    -0.000016865979
      18       -0.000007218365     0.000012275486     0.000010124882
      19       -0.000005271254    -0.000007837609    -0.000007707291
      20        0.000003104382    -0.000000772632     0.000000162429
      21        0.000004534099     0.000000568094     0.000001174042
      22       -0.000000204711     0.000000917459    -0.000003310682
      23        0.000004613722    -0.000005327437    -0.000002770942
      24       -0.000003055651     0.000001817447     0.000006718132
      25       -0.000002964851    -0.000001384163     0.000000710390
      26        0.000000737460     0.000000154509    -0.000000556972
      27       -0.000001476859     0.000000465701    -0.000002343983

  **** Optimization is complete! (in 8 steps) ****
    Final optimized geometry and variables:
    Molecular point group: c1

    Geometry (in Angstrom), charge = 0, multiplicity = 1:

    H            1.936431357383     3.230505226199    -0.630160723340
    O            2.661858773332     2.892337383026    -1.134753560223
    C            2.871370029066     1.540390928308    -0.814705159235
    C            1.792511631892     0.618062596607    -1.370705987066
    H            3.830910924099     1.282050082904    -1.243925761820
    H            2.954976838672     1.412520473933     0.263991148593
    C            0.394800859882     0.880714749743    -0.801421358217
    H            1.766424320888     0.726789561390    -2.451503460866
    H            2.085814329805    -0.409951367285    -1.162527976108
    C           -0.658898590463    -0.129042049968    -1.299243914341
    H            0.088653724039     1.883310293214    -1.088230413287
    H            0.437397374197     0.874333107683     0.285664234320
    C           -0.912638038304    -1.311317594566    -0.355942098776
    H           -1.595797178048     0.382024382993    -1.505916015473
    H           -0.331578566228    -0.517289366416    -2.260945899137
    C           -1.728256763468    -0.958373668001     0.890726269238
    H           -1.439205759974    -2.089616142505    -0.903935350522
    H            0.039920855189    -1.746055740200    -0.056344241364
    C           -1.959884475764    -2.155727223396     1.814758886046
    H           -2.690349755560    -0.552892338766     0.581495352368
    H           -1.233559052145    -0.169156854133     1.452577430871
    C           -2.791105599322    -1.806688691168     3.048836155796
    H           -2.455439468977    -2.948897364678     1.258961572917
    H           -0.999438548312    -2.558775223923     2.129208747535
    H           -3.772023152464    -1.433584944044     2.768113412425
    H           -2.937197665297    -2.675117204882     3.683725649469
    H           -2.305137599287    -1.039431676412     3.645115958569

  Mulliken Charges: (a.u.)
   Center  Symbol    Alpha    Beta     Spin     Total
       1     H     0.27988  0.27988  0.00000  0.44024
       2     O     4.37103  4.37103  0.00000 -0.74206
       3     C     2.99742  2.99742  0.00000  0.00515
       4     C     3.16256  3.16256  0.00000 -0.32513
       5     H     0.41449  0.41449  0.00000  0.17103
       6     H     0.43215  0.43215  0.00000  0.13570
       7     C     3.16554  3.16554  0.00000 -0.33108
       8     H     0.41449  0.41449  0.00000  0.17101
       9     H     0.42400  0.42400  0.00000  0.15199
      10     C     3.15705  3.15705  0.00000 -0.31410
      11     H     0.42188  0.42188  0.00000  0.15624
      12     H     0.42276  0.42276  0.00000  0.15447
      13     C     3.15481  3.15481  0.00000 -0.30962
      14     H     0.41979  0.41979  0.00000  0.16043
      15     H     0.41845  0.41845  0.00000  0.16311
      16     C     3.15157  3.15157  0.00000 -0.30315
      17     H     0.42093  0.42093  0.00000  0.15814
      18     H     0.42404  0.42404  0.00000  0.15191
      19     C     3.15128  3.15128  0.00000 -0.30257
      20     H     0.42382  0.42382  0.00000  0.15236
      21     H     0.42380  0.42380  0.00000  0.15240
      22     C     3.23921  3.23921  0.00000 -0.47843
      23     H     0.42275  0.42275  0.00000  0.15451
      24     H     0.42332  0.42332  0.00000  0.15335
      25     H     0.42160  0.42160  0.00000  0.15680
      26     H     0.41912  0.41912  0.00000  0.16176
      27     H     0.42224  0.42224  0.00000  0.15552

   Total alpha = 37.00000, Total beta = 37.00000, Total charge =  0.00000
