  ==> Input File <==

--------------------------------------------------------------------------
set {
	reference rhf
	basis 6-31G*
}

set_num_threads( 4 )
memory 2 gb

molecule MOL {
0 1

O	 -2.726481	 -0.035318	 0.349016
C	 -1.911616	 -0.530502	 1.066805
C	 -0.670985	 -1.193991	 0.495033
C	 -2.053485	 -0.495405	 2.572135
C	 0.379448	 -0.143569	 0.099626
H	 -0.972536	 -1.752917	 -0.384156
H	 -0.246658	 -1.892315	 1.210796
C	 1.631333	 -0.777471	 -0.511575
H	 -0.079118	 0.546685	 -0.599409
H	 0.663563	 0.438117	 0.975221
C	 2.915987	 -0.544314	 0.291766
H	 1.766672	 -0.399098	 -1.523130
H	 1.471257	 -1.849544	 -0.605828
C	 3.373361	 0.914346	 0.347591
H	 3.708709	 -1.142521	 -0.150311
H	 2.780642	 -0.921148	 1.303579
H	 3.506512	 1.320010	 -0.651625
H	 4.322697	 0.999599	 0.867103
H	 2.660624	 1.545032	 0.868198
H	 -2.196096	 -1.504729	 2.949217
H	 -2.901608	 0.114739	 2.849978
H	 -1.151137	 -0.105610	 3.034338

	symmetry c1
}
set optking {
	frozen_dihedral = ("
		3 5 8 12
	")
}

ee = optimize('scf')
oeprop('DIPOLE', 'QUADRUPOLE', 'MULLIKEN_CHARGES')
f=open( 'psi4out.xyz', 'w' )
f.write( "22  " )
f.write( str(ee) + "\n" )
f.write( MOL.save_string_xyz() )
f.close()
--------------------------------------------------------------------------

    Molecular point group: c1
  Charge       = 0
  Multiplicity = 1
  Basis Set: 6-31G*
  Basis Set:
  @DF-RHF Final Energy:  -348.09263413230411
    Total Energy =                       -348.0926341323042834
    Molecular point group: c1
  Basis Set: 6-31G*
  Basis Set:
  Basis Set: 6-31G*
  Basis Set:
  @DF-RHF Final Energy:  -348.09270463520591
    Total Energy =                       -348.0927046352060756
  Basis Set: 6-31G*
  Basis Set:
  Basis Set: 6-31G*
  Basis Set:
  @DF-RHF Final Energy:  -348.09218763722663
    Total Energy =                       -348.0921876372268002
  Basis Set: 6-31G*
  Basis Set:
  Basis Set: 6-31G*
  Basis Set:
  @DF-RHF Final Energy:  -348.09298966889025
    Total Energy =                       -348.0929896688900271
  Basis Set: 6-31G*
  Basis Set:
  @DF-RHF Final Energy:  -348.09228870905582
    Total Energy =                       -348.0922887090555378
  @DF-RHF Final Energy:  -348.09294846853521
    Total Energy =                       -348.0929484685355533
  @DF-RHF Final Energy:  -348.09261568190163
    Total Energy =                       -348.0926156819018047
  @DF-RHF Final Energy:  -348.09306058288723
    Total Energy =                       -348.0930605828871194
  Basis Set: 6-31G*
  Basis Set:
  @DF-RHF Final Energy:  -348.09305552812759
    Total Energy =                       -348.0930555281275360
  Basis Set: 6-31G*
  Basis Set:
  Basis Set: 6-31G*
  Basis Set:
  @DF-RHF Final Energy:  -348.09306650566612
    Total Energy =                       -348.0930665056660587
  Basis Set: 6-31G*
  Basis Set:
  Basis Set: 6-31G*
  Basis Set:
  @DF-RHF Final Energy:  -348.09307036807320
    Total Energy =                       -348.0930703680732563
  Basis Set: 6-31G*
  Basis Set:
  Charge       = 0
  Multiplicity = 1
  Basis Set: 6-31G*
  Basis Set:

    Orbital Energies (a.u.)
    -----------------------

    Doubly Occupied:

       1A    -20.547451     2A    -11.324218     3A    -11.229875
       4A    -11.229302     5A    -11.228255     6A    -11.222688
       7A    -11.222053     8A    -11.213421     9A     -1.393085
      10A     -1.094461    11A     -1.044762    12A     -0.999233
      13A     -0.937424    14A     -0.859701    15A     -0.786597
      16A     -0.734920    17A     -0.661279    18A     -0.645994
      19A     -0.626006    20A     -0.614063    21A     -0.599308
      22A     -0.587049    23A     -0.559517    24A     -0.545517
      25A     -0.530454    26A     -0.524972    27A     -0.499762
      28A     -0.487973    29A     -0.467764    30A     -0.464170
      31A     -0.459756    32A     -0.396185

  @DF-RHF Final Energy:  -348.09307044610409

   => Energetics <=

    Nuclear Repulsion Energy =            373.7478325092557725
    One-Electron Energy =               -1212.2073772199230461
    Two-Electron Energy =                 490.3664742645634078
    DFT Exchange-Correlation Energy =       0.0000000000000000
    Empirical Dispersion Energy =           0.0000000000000000
    PCM Polarization Energy =               0.0000000000000000
    EFP Energy =                            0.0000000000000000
    Total Energy =                       -348.0930704461038658
    Molecular point group: c1
  Basis Set: 6-31G*
  Basis Set:

  -Total Gradient:
     Atom            X                  Y                   Z
    ------   -----------------  -----------------  -----------------
       1        0.000009555992     0.000008733541    -0.000005780701
       2       -0.000005638539     0.000005323291     0.000017894483
       3        0.000035546848     0.000000394347     0.000060177991
       4       -0.000023624378    -0.000019851413    -0.000005846502
       5       -0.000025259608     0.000022111551    -0.000082464153
       6       -0.000001464334    -0.000007829010    -0.000001708842
       7        0.000000458928     0.000000466141    -0.000004811072
       8       -0.000047961959    -0.000076979557    -0.000016254984
       9       -0.000001160974    -0.000002899445     0.000003980179
      10       -0.000000866991    -0.000000763132     0.000003450167
      11       -0.000000141479    -0.000000396481     0.000000518631
      12        0.000045177116     0.000062514636     0.000030996660
      13        0.000000152162    -0.000000799753     0.000000187762
      14       -0.000000484805    -0.000001187897    -0.000000071769
      15        0.000001072648     0.000000413338     0.000000271385
      16       -0.000000019761     0.000000489626     0.000000293946
      17       -0.000000888315    -0.000000529242    -0.000000031398
      18        0.000000619548    -0.000000381334    -0.000000261759
      19       -0.000001135436    -0.000000319776     0.000000213513
      20        0.000007737147     0.000003358774     0.000003335929
      21        0.000001824556     0.000001880098    -0.000000168550
      22        0.000006501642     0.000006251696    -0.000003920912

  **** Optimization is complete! (in 12 steps) ****
    Final optimized geometry and variables:
    Molecular point group: c1

    Geometry (in Angstrom), charge = 0, multiplicity = 1:

    O           -2.868124886459     0.304111700028    -0.228812280441
    C           -2.042977979746    -0.196432649681     0.473301957112
    C           -0.809648300380    -0.853474412744    -0.120799474042
    C           -2.168011518933    -0.181209865673     1.980724257197
    C            0.250070748022     0.198361855152    -0.490031101401
    H           -1.117077028667    -1.386438621345    -1.013769210023
    H           -0.387167782680    -1.573393765799     0.574968830615
    C            1.522692170080    -0.427853451738    -1.105773489968
    H           -0.201470939203     0.904604058175    -1.177283950321
    H            0.510443555386     0.765402477930     0.400128848831
    C            2.799648009820    -0.201785665593    -0.287579621578
    H            1.675366761929    -0.036751686406    -2.108063381978
    H            1.374108845544    -1.497710220412    -1.224804235834
    C            3.285372449842     1.248437054848    -0.287002642443
    H            3.588067786601    -0.834113596147    -0.687833435534
    H            2.634974173194    -0.532837330809     0.736301071217
    H            3.506783750263     1.582133576627    -1.296866481212
    H            4.190797170802     1.354960937771     0.302340153581
    H            2.544528776217     1.925241764341     0.127258369575
    H           -2.314010626191    -1.194802028012     2.344805706878
    H           -3.009089453399     0.430474225775     2.276004808025
    H           -1.258438051067     0.195673534403     2.439323229663

  Mulliken Charges: (a.u.)
   Center  Symbol    Alpha    Beta     Spin     Total
       1     O     4.26227  4.26227  0.00000 -0.52453
       2     C     2.73762  2.73762  0.00000  0.52476
       3     C     3.20201  3.20201  0.00000 -0.40402
       4     C     3.28958  3.28958  0.00000 -0.57916
       5     C     3.16545  3.16545  0.00000 -0.33089
       6     H     0.40063  0.40063  0.00000  0.19874
       7     H     0.41688  0.41688  0.00000  0.16623
       8     C     3.15665  3.15665  0.00000 -0.31330
       9     H     0.40315  0.40315  0.00000  0.19371
      10     H     0.41867  0.41867  0.00000  0.16267
      11     C     3.15474  3.15474  0.00000 -0.30949
      12     H     0.41689  0.41689  0.00000  0.16623
      13     H     0.41781  0.41781  0.00000  0.16437
      14     C     3.24100  3.24100  0.00000 -0.48199
      15     H     0.41959  0.41959  0.00000  0.16083
      16     H     0.42465  0.42465  0.00000  0.15069
      17     H     0.42033  0.42033  0.00000  0.15934
      18     H     0.41826  0.41826  0.00000  0.16348
      19     H     0.42008  0.42008  0.00000  0.15984
      20     H     0.40679  0.40679  0.00000  0.18642
      21     H     0.39703  0.39703  0.00000  0.20595
      22     H     0.40994  0.40994  0.00000  0.18013

   Total alpha = 32.00000, Total beta = 32.00000, Total charge =  0.00000
