  ==> Input File <==

--------------------------------------------------------------------------
set {
	reference rhf
	basis 6-31G*
}

set_num_threads( 4 )
memory 2 gb

molecule MOL {
0 1

O	 -2.702228	 -0.200023	 0.569514
C	 -1.806514	 -0.532911	 1.284578
C	 -0.560982	 -1.191051	 0.717296
C	 -1.849492	 -0.289776	 2.776695
C	 0.379448	 -0.143569	 0.099626
H	 -0.878250	 -1.889382	 -0.049502
H	 -0.038846	 -1.749886	 1.488725
C	 1.631333	 -0.777471	 -0.511575
H	 -0.175034	 0.407518	 -0.651531
H	 0.677432	 0.575597	 0.861041
C	 2.915987	 -0.544314	 0.291766
H	 1.766672	 -0.399098	 -1.523130
H	 1.471257	 -1.849544	 -0.605828
C	 3.373361	 0.914346	 0.347591
H	 3.708709	 -1.142521	 -0.150311
H	 2.780642	 -0.921148	 1.303579
H	 3.506512	 1.320010	 -0.651625
H	 4.322697	 0.999599	 0.867103
H	 2.660624	 1.545032	 0.868198
H	 -1.890953	 -1.241047	 3.300746
H	 -2.720196	 0.298401	 3.031069
H	 -0.949769	 0.219849	 3.109240

	symmetry c1
}
set optking {
	frozen_dihedral = ("
		3 5 8 12
	")
}

ee = optimize('scf')
oeprop('DIPOLE', 'QUADRUPOLE', 'MULLIKEN_CHARGES')
f=open( 'psi4out.xyz', 'w' )
f.write( "22  " )
f.write( str(ee) + "\n" )
f.write( MOL.save_string_xyz() )
f.close()
--------------------------------------------------------------------------

    Molecular point group: c1
  Charge       = 0
  Multiplicity = 1
  Basis Set: 6-31G*
  Basis Set:
  @DF-RHF Final Energy:  -348.09287385125185
    Total Energy =                       -348.0928738512521932
    Molecular point group: c1
  Basis Set: 6-31G*
  Basis Set:
  Basis Set: 6-31G*
  Basis Set:
  @DF-RHF Final Energy:  -348.09308432211253
    Total Energy =                       -348.0930843221126452
  Basis Set: 6-31G*
  Basis Set:
  Basis Set: 6-31G*
  Basis Set:
  @DF-RHF Final Energy:  -348.09330059418443
    Total Energy =                       -348.0933005941847114
  Basis Set: 6-31G*
  Basis Set:
  Basis Set: 6-31G*
  Basis Set:
  @DF-RHF Final Energy:  -348.09309142109208
    Total Energy =                       -348.0930914210919696
  Basis Set: 6-31G*
  Basis Set:
  @DF-RHF Final Energy:  -348.09338436263653
    Total Energy =                       -348.0933843626361295
  @DF-RHF Final Energy:  -348.09336081332316
    Total Energy =                       -348.0933608133233292
  @DF-RHF Final Energy:  -348.09294996798212
    Total Energy =                       -348.0929499679817809
  @DF-RHF Final Energy:  -348.09339112793992
    Total Energy =                       -348.0933911279398671
  Basis Set: 6-31G*
  Basis Set:
  @DF-RHF Final Energy:  -348.09340883172388
    Total Energy =                       -348.0934088317238775
  Basis Set: 6-31G*
  Basis Set:
  Basis Set: 6-31G*
  Basis Set:
  @DF-RHF Final Energy:  -348.09341166281200
    Total Energy =                       -348.0934116628116612
  Basis Set: 6-31G*
  Basis Set:
  Basis Set: 6-31G*
  Basis Set:
  @DF-RHF Final Energy:  -348.09341407734979
    Total Energy =                       -348.0934140773497347
  Basis Set: 6-31G*
  Basis Set:
  Charge       = 0
  Multiplicity = 1
  Basis Set: 6-31G*
  Basis Set:

    Orbital Energies (a.u.)
    -----------------------

    Doubly Occupied:

       1A    -20.547465     2A    -11.324196     3A    -11.229939
       4A    -11.229300     5A    -11.228224     6A    -11.223148
       7A    -11.222291     8A    -11.213958     9A     -1.393073
      10A     -1.094913    11A     -1.044631    12A     -0.999357
      13A     -0.938008    14A     -0.860344    15A     -0.786324
      16A     -0.735165    17A     -0.660901    18A     -0.647466
      19A     -0.625616    20A     -0.612711    21A     -0.601275
      22A     -0.585234    23A     -0.560002    24A     -0.547756
      25A     -0.529416    26A     -0.525244    27A     -0.501832
      28A     -0.487569    29A     -0.467622    30A     -0.463245
      31A     -0.460750    32A     -0.396337

  @DF-RHF Final Energy:  -348.09341434934146

   => Energetics <=

    Nuclear Repulsion Energy =            374.4196414424479258
    One-Electron Energy =               -1213.5394914740111290
    Two-Electron Energy =                 491.0264356822217451
    DFT Exchange-Correlation Energy =       0.0000000000000000
    Empirical Dispersion Energy =           0.0000000000000000
    PCM Polarization Energy =               0.0000000000000000
    EFP Energy =                            0.0000000000000000
    Total Energy =                       -348.0934143493414012
    Molecular point group: c1
  Basis Set: 6-31G*
  Basis Set:

  -Total Gradient:
     Atom            X                  Y                   Z
    ------   -----------------  -----------------  -----------------
       1        0.000008571556     0.000003643226    -0.000012369966
       2        0.000006243769     0.000036651418     0.000025013720
       3       -0.000648739567    -0.000118014050    -0.001273772024
       4       -0.000036873066    -0.000037642283    -0.000000167764
       5        0.000657065415    -0.000200008722     0.001569745628
       6        0.000002695799    -0.000011223247    -0.000004131422
       7       -0.000000623344    -0.000001096804    -0.000009352363
       8        0.001090077157     0.001836906965     0.000458159658
       9       -0.000001997290    -0.000001585516     0.000006639484
      10       -0.000002465720    -0.000003250596     0.000004861711
      11        0.000002460627    -0.000003421845    -0.000002130215
      12       -0.001089367482    -0.001512779972    -0.000757663177
      13        0.000000001063    -0.000003362884     0.000001332516
      14       -0.000004901654     0.000000375533     0.000001960997
      15        0.000003145424    -0.000002800500     0.000001653246
      16       -0.000004910640     0.000003314130    -0.000003300958
      17       -0.000003791371    -0.000001885276    -0.000000337777
      18        0.000000937563    -0.000001782150    -0.000002602758
      19        0.000000709745     0.000001015006     0.000001291111
      20        0.000011408867     0.000006377054     0.000005477675
      21        0.000001831589     0.000002721467    -0.000000144643
      22        0.000008521575     0.000007849048    -0.000010162678

  **** Optimization is complete! (in 12 steps) ****
    Final optimized geometry and variables:
    Molecular point group: c1

    Geometry (in Angstrom), charge = 0, multiplicity = 1:

    O           -2.912009477853     0.110103264443    -0.107117520832
    C           -1.994563053790    -0.215372205887     0.583349043581
    C           -0.758412130683    -0.860837223028    -0.017073241199
    C           -2.003708483869     0.018422737981     2.077895747573
    C            0.185178336837     0.201762904796    -0.606144928455
    H           -1.084325372822    -1.529094210805    -0.806048765438
    H           -0.234024210354    -1.449481773762     0.731181387152
    C            1.465473054401    -0.411907728261    -1.214318476466
    H           -0.366732066998     0.752304199806    -1.359740798017
    H            0.445802697218     0.921950859551     0.164808003182
    C            2.734790556706    -0.195755757890    -0.381885855481
    H            1.619932695903    -0.021597748328    -2.216656951786
    H            1.314995351443    -1.480753514071    -1.343397230691
    C            3.251111628670     1.243848991769    -0.398720166919
    H            3.516353204301    -0.850207523976    -0.759095764781
    H            2.549919513463    -0.505906353421     0.645193594314
    H            3.494658020946     1.554820287009    -1.410669501070
    H            4.149906191851     1.340901767924     0.202318261900
    H            2.519893729235     1.944170169099    -0.007303846464
    H           -2.039926623976    -0.936506404138     2.595640347986
    H           -2.866038971295     0.608832057409     2.354614887643
    H           -1.094828181299     0.520726225306     2.395979574833

  Mulliken Charges: (a.u.)
   Center  Symbol    Alpha    Beta     Spin     Total
       1     O     4.26223  4.26223  0.00000 -0.52446
       2     C     2.73745  2.73745  0.00000  0.52510
       3     C     3.20178  3.20178  0.00000 -0.40356
       4     C     3.28956  3.28956  0.00000 -0.57911
       5     C     3.16565  3.16565  0.00000 -0.33129
       6     H     0.40054  0.40054  0.00000  0.19891
       7     H     0.41689  0.41689  0.00000  0.16622
       8     C     3.15719  3.15719  0.00000 -0.31439
       9     H     0.40357  0.40357  0.00000  0.19287
      10     H     0.41832  0.41832  0.00000  0.16337
      11     C     3.15460  3.15460  0.00000 -0.30919
      12     H     0.41678  0.41678  0.00000  0.16643
      13     H     0.41803  0.41803  0.00000  0.16393
      14     C     3.24070  3.24070  0.00000 -0.48140
      15     H     0.41916  0.41916  0.00000  0.16168
      16     H     0.42473  0.42473  0.00000  0.15054
      17     H     0.42017  0.42017  0.00000  0.15967
      18     H     0.41823  0.41823  0.00000  0.16354
      19     H     0.42064  0.42064  0.00000  0.15871
      20     H     0.40673  0.40673  0.00000  0.18653
      21     H     0.39702  0.39702  0.00000  0.20596
      22     H     0.41003  0.41003  0.00000  0.17994

   Total alpha = 32.00000, Total beta = 32.00000, Total charge = -0.00000
