  ==> Input File <==

--------------------------------------------------------------------------
set {
	reference rhf
	basis 6-31G*
}

set_num_threads( 1 )
memory 2 gb

molecule MOL {
0 1

O	 -3.594017	 -0.260454	 -0.637448
C	 -2.668563	 0.129746	 -0.000350
C	 -2.716153	 1.341753	 0.894101
O	 -1.481751	 -0.454642	 0.000584
H	 -3.490992	 1.195590	 1.637150
H	 -1.769006	 1.520407	 1.381373
H	 -2.992090	 2.203406	 0.298037
C	 -0.334255	 0.388708	 0.000906
C	 0.891947	 -0.504646	 0.000751
H	 -0.365390	 1.025305	 -0.873475
H	 -0.365484	 1.024911	 0.875569
C	 2.191998	 0.301789	 0.000897
H	 0.855148	 -1.151283	 -0.871571
H	 0.855132	 -1.151660	 0.872805
C	 3.441114	 -0.581407	 0.000108
H	 2.215074	 0.954890	 -0.869742
H	 2.215465	 0.953923	 0.872248
C	 4.739576	 0.224112	 -0.001102
H	 3.419457	 -1.233487	 -0.870178
H	 3.420834	 -1.233096	 0.870717
H	 4.804918	 0.861552	 -0.878265
H	 5.606527	 -0.429058	 -0.001824
H	 4.806469	 0.861674	 0.875853

	symmetry c1
}
set optking {
	frozen_dihedral = ("
		13 9 8 10,
		2 4 8 10,
		16 12 9 13,
		19 15 12 16
	")
}

ee = energy('scf')
oeprop('DIPOLE', 'QUADRUPOLE', 'MULLIKEN_CHARGES')
f=open( 'psi4out.xyz', 'w' )
f.write( "23  " )
f.write( str(ee) + "\n" )
f.write( MOL.save_string_xyz() )
f.close()
--------------------------------------------------------------------------

    Molecular point group: c1

    Geometry (in Angstrom), charge = 0, multiplicity = 1:

       Center              X                  Y                   Z               Mass
    ------------   -----------------  -----------------  -----------------  -----------------
           O         -3.630357838243    -0.334306110483    -0.667439016218    15.994914619560
           C         -2.704903838243     0.055893889517    -0.030341016218    12.000000000000
           C         -2.752493838243     1.267900889517     0.864109983782    12.000000000000
           O         -1.518091838243    -0.528494110483    -0.029407016218    15.994914619560
           H         -3.527332838243     1.121737889517     1.607158983782     1.007825032070
           H         -1.805346838243     1.446554889517     1.351381983782     1.007825032070
           H         -3.028430838243     2.129553889517     0.268045983782     1.007825032070
           C         -0.370595838243     0.314855889517    -0.029085016218    12.000000000000
           C          0.855606161757    -0.578498110483    -0.029240016218    12.000000000000
           H         -0.401730838243     0.951452889517    -0.903466016218     1.007825032070
           H         -0.401824838243     0.951058889517     0.845577983782     1.007825032070
           C          2.155657161757     0.227936889517    -0.029094016218    12.000000000000
           H          0.818807161757    -1.225135110483    -0.901562016218     1.007825032070
           H          0.818791161757    -1.225512110483     0.842813983782     1.007825032070
           C          3.404773161757    -0.655259110483    -0.029883016218    12.000000000000
           H          2.178733161757     0.881037889517    -0.899733016218     1.007825032070
           H          2.179124161757     0.880070889517     0.842256983782     1.007825032070
           C          4.703235161757     0.150259889517    -0.031093016218    12.000000000000
           H          3.383116161757    -1.307339110483    -0.900169016218     1.007825032070
           H          3.384493161757    -1.306948110483     0.840725983782     1.007825032070
           H          4.768577161757     0.787699889517    -0.908256016218     1.007825032070
           H          5.570186161757    -0.502910110483    -0.031815016218     1.007825032070
           H          4.770128161757     0.787821889517     0.845861983782     1.007825032070

  Charge       = 0
  Multiplicity = 1
  Basis Set: 6-31G*
  Basis Set:

    Orbital Energies (a.u.)
    -----------------------

    Doubly Occupied:

       1A    -20.598360     2A    -20.543799     3A    -11.375815
       4A    -11.297740     5A    -11.234220     6A    -11.231609
       7A    -11.230623     8A    -11.226384     9A    -11.217041
      10A     -1.464967    11A     -1.366904    12A     -1.099493
      13A     -1.037541    14A     -1.016593    15A     -0.945398
      16A     -0.850432    17A     -0.809960    18A     -0.780138
      19A     -0.705967    20A     -0.695052    21A     -0.661877
      22A     -0.651830    23A     -0.621446    24A     -0.596974
      25A     -0.584216    26A     -0.576481    27A     -0.561593
      28A     -0.541472    29A     -0.523515    30A     -0.508096
      31A     -0.494490    32A     -0.482595    33A     -0.476697
      34A     -0.475561    35A     -0.450994    36A     -0.430097

  @DF-RHF Final Energy:  -422.95020250378224

   => Energetics <=

    Nuclear Repulsion Energy =            452.0866976077005006
    One-Electron Energy =               -1471.3418638413697863
    Two-Electron Energy =                 596.3049637298865946
    DFT Exchange-Correlation Energy =       0.0000000000000000
    Empirical Dispersion Energy =           0.0000000000000000
    PCM Polarization Energy =               0.0000000000000000
    EFP Energy =                            0.0000000000000000
    Total Energy =                       -422.9502025037827480

  Mulliken Charges: (a.u.)
   Center  Symbol    Alpha    Beta     Spin     Total
       1     O     4.26544  4.26544  0.00000 -0.53087
       2     C     2.61202  2.61202  0.00000  0.77597
       3     C     3.30598  3.30598  0.00000 -0.61195
       4     O     4.30769  4.30769  0.00000 -0.61538
       5     H     0.39202  0.39202  0.00000  0.21596
       6     H     0.40973  0.40973  0.00000  0.18055
       7     H     0.39573  0.39573  0.00000  0.20854
       8     C     3.00263  3.00263  0.00000 -0.00527
       9     C     3.16139  3.16139  0.00000 -0.32277
      10     H     0.41368  0.41368  0.00000  0.17264
      11     H     0.41973  0.41973  0.00000  0.16054
      12     C     3.16138  3.16138  0.00000 -0.32276
      13     H     0.40744  0.40744  0.00000  0.18511
      14     H     0.41090  0.41090  0.00000  0.17821
      15     C     3.15197  3.15197  0.00000 -0.30393
      16     H     0.42109  0.42109  0.00000  0.15781
      17     H     0.42248  0.42248  0.00000  0.15504
      18     C     3.24009  3.24009  0.00000 -0.48019
      19     H     0.41949  0.41949  0.00000  0.16101
      20     H     0.42040  0.42040  0.00000  0.15920
      21     H     0.42072  0.42072  0.00000  0.15855
      22     H     0.41675  0.41675  0.00000  0.16651
      23     H     0.42125  0.42125  0.00000  0.15749

   Total alpha = 36.00000, Total beta = 36.00000, Total charge =  0.00000
