  ==> Input File <==

--------------------------------------------------------------------------
set {
	reference rhf
	basis 6-31G*
}

set_num_threads( 1 )
memory 2 gb

molecule MOL {
0 1

H	 3.829063	 3.629593	 -2.404055
C	 3.884154	 2.705847	 -1.836445
C	 2.610870	 2.481286	 -1.021893
H	 4.044338	 1.894338	 -2.540104
H	 4.758166	 2.764268	 -1.193414
C	 2.658186	 1.189202	 -0.203300
H	 1.757286	 2.454297	 -1.691421
H	 2.459004	 3.326165	 -0.351962
C	 1.404189	 0.946428	 0.636830
H	 2.807269	 0.344067	 -0.865995
H	 3.515848	 1.223106	 0.464763
C	 0.169600	 0.576866	 -0.172154
H	 1.578974	 0.123855	 1.328636
H	 1.179510	 1.810356	 1.258380
C	 -1.181045	 0.701995	 0.511084
O	 0.253022	 0.184567	 -1.297120
C	 -2.285934	 -0.139295	 -0.145128
H	 -1.449051	 1.751551	 0.493206
H	 -1.071135	 0.403303	 1.551943
C	 -3.651768	 0.085446	 0.506485
H	 -2.346596	 0.110469	 -1.202272
H	 -2.034737	 -1.195320	 -0.088721
C	 -4.759797	 -0.746382	 -0.137905
H	 -3.908762	 1.140117	 0.445781
H	 -3.588286	 -0.154158	 1.565709
H	 -4.868882	 -0.505166	 -1.191300
H	 -4.548009	 -1.809175	 -0.062213
H	 -5.715422	 -0.564821	 0.343442

	symmetry c1
}
set optking {
	frozen_dihedral = ("
		10 6 3 2,
		12 15 17 21
	")
}

ee = energy('scf')
oeprop('DIPOLE', 'QUADRUPOLE', 'MULLIKEN_CHARGES')
f=open( 'psi4out.xyz', 'w' )
f.write( "28  " )
f.write( str(ee) + "\n" )
f.write( MOL.save_string_xyz() )
f.close()
--------------------------------------------------------------------------

    Molecular point group: c1

    Geometry (in Angstrom), charge = 0, multiplicity = 1:

       Center              X                  Y                   Z               Mass
    ------------   -----------------  -----------------  -----------------  -----------------
           H          3.923346644495     2.831435415604    -2.071496723305     1.007825032070
           C          3.978437644495     1.907689415604    -1.503886723305    12.000000000000
           C          2.705153644495     1.683128415604    -0.689334723305    12.000000000000
           H          4.138621644495     1.096180415604    -2.207545723305     1.007825032070
           H          4.852449644495     1.966110415604    -0.860855723305     1.007825032070
           C          2.752469644495     0.391044415604     0.129258276695    12.000000000000
           H          1.851569644495     1.656139415604    -1.358862723305     1.007825032070
           H          2.553287644495     2.528007415604    -0.019403723305     1.007825032070
           C          1.498472644495     0.148270415604     0.969388276695    12.000000000000
           H          2.901552644495    -0.454090584396    -0.533436723305     1.007825032070
           H          3.610131644495     0.424948415604     0.797321276695     1.007825032070
           C          0.263883644495    -0.221291584396     0.160404276695    12.000000000000
           H          1.673257644495    -0.674302584396     1.661194276695     1.007825032070
           H          1.273793644495     1.012198415604     1.590938276695     1.007825032070
           C         -1.086761355505    -0.096162584396     0.843642276695    12.000000000000
           O          0.347305644495    -0.613590584396    -0.964561723305    15.994914619560
           C         -2.191650355505    -0.937452584396     0.187430276695    12.000000000000
           H         -1.354767355505     0.953393415604     0.825764276695     1.007825032070
           H         -0.976851355505    -0.394854584396     1.884501276695     1.007825032070
           C         -3.557484355505    -0.712711584396     0.839043276695    12.000000000000
           H         -2.252312355505    -0.687688584396    -0.869713723305     1.007825032070
           H         -1.940453355505    -1.993477584396     0.243837276695     1.007825032070
           C         -4.665513355505    -1.544539584396     0.194653276695    12.000000000000
           H         -3.814478355505     0.341959415604     0.778339276695     1.007825032070
           H         -3.494002355505    -0.952315584396     1.898267276695     1.007825032070
           H         -4.774598355505    -1.303323584396    -0.858741723305     1.007825032070
           H         -4.453725355505    -2.607332584396     0.270345276695     1.007825032070
           H         -5.621138355505    -1.362978584396     0.676000276695     1.007825032070

  Charge       = 0
  Multiplicity = 1
  Basis Set: 6-31G*
  Basis Set:

    Orbital Energies (a.u.)
    -----------------------

    Doubly Occupied:

       1A    -20.548601     2A    -11.323686     3A    -11.231427
       4A    -11.231008     5A    -11.218632     6A    -11.217767
       7A    -11.217086     8A    -11.213099     9A    -11.209919
      10A    -11.206307    11A     -1.394638    12A     -1.087197
      13A     -1.077279    14A     -1.021183    15A     -0.990723
      16A     -0.909745    17A     -0.866516    18A     -0.805796
      19A     -0.791240    20A     -0.723094    21A     -0.669018
      22A     -0.654548    23A     -0.624578    24A     -0.619268
      25A     -0.608943    26A     -0.584507    27A     -0.578156
      28A     -0.573833    29A     -0.536176    30A     -0.527061
      31A     -0.521203    32A     -0.509127    33A     -0.490450
      34A     -0.479599    35A     -0.473228    36A     -0.469371
      37A     -0.468211    38A     -0.466441    39A     -0.456427
      40A     -0.394536

  @DF-RHF Final Energy:  -426.17091447057635

   => Energetics <=

    Nuclear Repulsion Energy =            529.4964885513401214
    One-Electron Energy =               -1627.3554154307703357
    Two-Electron Energy =                 671.6880124088529556
    DFT Exchange-Correlation Energy =       0.0000000000000000
    Empirical Dispersion Energy =           0.0000000000000000
    PCM Polarization Energy =               0.0000000000000000
    EFP Energy =                            0.0000000000000000
    Total Energy =                       -426.1709144705773724

  Mulliken Charges: (a.u.)
   Center  Symbol    Alpha    Beta     Spin     Total
       1     H     0.41931  0.41931  0.00000  0.16138
       2     C     3.24010  3.24010  0.00000 -0.48020
       3     C     3.15655  3.15655  0.00000 -0.31310
       4     H     0.41824  0.41824  0.00000  0.16351
       5     H     0.42346  0.42346  0.00000  0.15308
       6     C     3.14985  3.14985  0.00000 -0.29970
       7     H     0.41069  0.41069  0.00000  0.17861
       8     H     0.42751  0.42751  0.00000  0.14498
       9     C     3.20971  3.20971  0.00000 -0.41942
      10     H     0.40646  0.40646  0.00000  0.18708
      11     H     0.42163  0.42163  0.00000  0.15674
      12     C     2.73183  2.73183  0.00000  0.53634
      13     H     0.40403  0.40403  0.00000  0.19193
      14     H     0.41213  0.41213  0.00000  0.17575
      15     C     3.20775  3.20775  0.00000 -0.41550
      16     O     4.26847  4.26847  0.00000 -0.53694
      17     C     3.14904  3.14904  0.00000 -0.29807
      18     H     0.40497  0.40497  0.00000  0.19006
      19     H     0.41295  0.41295  0.00000  0.17410
      20     C     3.15317  3.15317  0.00000 -0.30634
      21     H     0.40731  0.40731  0.00000  0.18538
      22     H     0.41786  0.41786  0.00000  0.16428
      23     C     3.23932  3.23932  0.00000 -0.47863
      24     H     0.42349  0.42349  0.00000  0.15302
      25     H     0.42468  0.42468  0.00000  0.15063
      26     H     0.41956  0.41956  0.00000  0.16087
      27     H     0.42078  0.42078  0.00000  0.15844
      28     H     0.41914  0.41914  0.00000  0.16171

   Total alpha = 40.00000, Total beta = 40.00000, Total charge = -0.00000
