                              Psi4 1.0.54 Driver

  ==> Input File <==

--------------------------------------------------------------------------
set {
	reference rhf
	basis cc-pvtz
}

set_num_threads( 4 )
memory 2 gb

molecule MOL {
0 1

H	 -0.000342	 -0.223902	 -3.352295
C	 -0.027146	 0.371068	 -2.446756
C	 0.024493	 -0.518541	 -1.216015
H	 -0.932586	 0.964979	 -2.449855
H	 0.819708	 1.049865	 -2.473332
N	 -0.042516	 0.263377	 0.000000
H	 -0.822211	 -1.197105	 -1.225584
H	 0.921114	 -1.142847	 -1.255206
C	 0.024493	 -0.518541	 1.216015
H	 0.682568	 0.950412	 0.000000
C	 -0.967316	 -1.669298	 1.186575
H	 1.031521	 -0.912443	 1.306475
H	 -0.150261	 0.090226	 2.107131
H	 -0.780808	 -2.311329	 0.334770
H	 -0.893793	 -2.263112	 2.090282
H	 -1.987038	 -1.303759	 1.114579

	symmetry c1
}
set optking {
	frozen_dihedral = ("
		12 9 6 3
	")
}

ee,wfn = optimize('scf', return_wfn=True)
oeprop( wfn, 'DIPOLE', 'QUADRUPOLE', 'MULLIKEN_CHARGES')
f=open( 'psi4out.xyz', 'w' )
f.write( "16  " )
f.write( str(ee) + "\n" )
f.write( MOL.save_string_xyz() )
f.close()
--------------------------------------------------------------------------

    Molecular point group: c1
  Charge       = 0
  Multiplicity = 1
  Basis Set: CC-PVTZ
  Basis Set:
  @DF-RHF Final Energy:  -212.38650047014880
    Total Energy =                       -212.3865004701486896
    Molecular point group: c1
  Basis Set: CC-PVTZ
  Basis Set:
  Basis Set: CC-PVTZ
  Basis Set:
  @DF-RHF Final Energy:  -211.63337327367381
    Total Energy =                       -211.6333732736738682
  Basis Set: CC-PVTZ
  Basis Set:
  Basis Set: CC-PVTZ
  Basis Set:
  @DF-RHF Final Energy:  -211.81539937238657
    Total Energy =                       -211.8153993723865369
  Basis Set: CC-PVTZ
  Basis Set:
  Basis Set: CC-PVTZ
  Basis Set:
  @DF-RHF Final Energy:  -212.11479782849219
    Total Energy =                       -212.1147978284919873
  Basis Set: CC-PVTZ
  Basis Set:
  @DF-RHF Final Energy:  -212.33531393437889
    Total Energy =                       -212.3353139343791156
  @DF-RHF Final Energy:  -212.38555237249460
    Total Energy =                       -212.3855523724944874
  Basis Set: CC-PVTZ
  Basis Set:
  @DF-RHF Final Energy:  -212.39063180354742
    Total Energy =                       -212.3906318035474214
  Basis Set: CC-PVTZ
  Basis Set:
  Basis Set: CC-PVTZ
  Basis Set:
  @DF-RHF Final Energy:  -212.39110965321106
    Total Energy =                       -212.3911096532111173
  Basis Set: CC-PVTZ
  Basis Set:
  Basis Set: CC-PVTZ
  Basis Set:
  @DF-RHF Final Energy:  -212.39113638276555
    Total Energy =                       -212.3911363827656942
  Basis Set: CC-PVTZ
  Basis Set:
  Charge       = 0
  Multiplicity = 1
  Basis Set: CC-PVTZ
  Basis Set:

    Orbital Energies (a.u.)
    -----------------------

    Doubly Occupied:

       1A    -15.527297     2A    -11.239446     3A    -11.237986
       4A    -11.207010     5A    -11.205714     6A     -1.204078
       7A     -1.025645     8A     -0.969060     9A     -0.851418
      10A     -0.796200    11A     -0.661882    12A     -0.627215
      13A     -0.617529    14A     -0.589718    15A     -0.538220
      16A     -0.520288    17A     -0.512726    18A     -0.493807
      19A     -0.484433    20A     -0.470787    21A     -0.357433

  @DF-RHF Final Energy:  -212.39113735734449

   => Energetics <=

    Nuclear Repulsion Energy =            191.9081762639148394
    One-Electron Energy =                -666.3228428432483952
    Two-Electron Energy =                 262.0235292219890653
    DFT Exchange-Correlation Energy =       0.0000000000000000
    Empirical Dispersion Energy =           0.0000000000000000
    PCM Polarization Energy =               0.0000000000000000
    EFP Energy =                            0.0000000000000000
    Total Energy =                       -212.3911373573445189
    Molecular point group: c1
  Basis Set: CC-PVTZ
  Basis Set:

  -Total Gradient:
     Atom            X                  Y                   Z
    ------   -----------------  -----------------  -----------------
       1       -0.000001286220     0.000011448983     0.000002520819
       2        0.000083156189     0.000036682492    -0.000035633964
       3       -0.002783040423    -0.001662273081     0.000631933732
       4       -0.000012219268    -0.000014685460     0.000010495401
       5       -0.000026013184    -0.000006445393    -0.000010522777
       6        0.004158659785     0.003115636731    -0.000145901246
       7        0.000016744468    -0.000000593481    -0.000004729991
       8       -0.000005711737     0.000027391856     0.000043916541
       9       -0.002317648934    -0.004109103890    -0.003471994977
      10       -0.000003398431    -0.000015858367    -0.000003058995
      11        0.000016672871    -0.000001587999    -0.000022384304
      12        0.000845123471     0.002623049112     0.002984722948
      13        0.000024995055    -0.000007831232     0.000018200671
      14       -0.000002848027    -0.000011018460     0.000006876650
      15       -0.000003749949     0.000006442450    -0.000004481451
      16        0.000010564333     0.000008745738     0.000000040945

  **** Optimization is complete! (in 10 steps) ****
    Final optimized geometry and variables:
    Molecular point group: c1

    Geometry (in Angstrom), charge = 0, multiplicity = 1:

    H           -1.126711195021     1.399102530597    -2.598839519398
    C           -0.907157568050     1.551433558059    -1.548623731917
    C           -0.219938063553     0.330398349037    -0.959531340513
    H           -1.835399836964     1.753281504186    -1.028230619828
    H           -0.277725398127     2.432311269451    -1.467808890941
    N            0.033922214362     0.518705497896     0.453517010055
    H           -0.862163403700    -0.531234436660    -1.088552584630
    H            0.695601708187     0.125422055913    -1.522341009129
    C            0.822311057871    -0.502295706696     1.118711849874
    H            0.447611597519     1.412299042133     0.609231968828
    C            0.257179364585    -1.905924258983     0.969247837389
    H            1.868730785220    -0.485952709045     0.801996416479
    H            0.833229240557    -0.251555176994     2.174230333767
    H            0.331589666414    -2.273203408583    -0.046558094636
    H            0.806230902910    -2.590956508874     1.604634513188
    H           -0.785494125461    -1.928977601309     1.264107760809

  Mulliken Charges: (a.u.)
   Center  Symbol    Alpha    Beta     Spin     Total
       1     H     0.45323  0.45323  0.00000  0.09355
       2     C     3.14480  3.14480  0.00000 -0.28961
       3     C     3.02141  3.02141  0.00000 -0.04283
       4     H     0.44934  0.44934  0.00000  0.10133
       5     H     0.45927  0.45927  0.00000  0.08147
       6     N     3.63882  3.63882  0.00000 -0.27764
       7     H     0.45702  0.45702  0.00000  0.08595
       8     H     0.47449  0.47449  0.00000  0.05103
       9     C     3.03050  3.03050  0.00000 -0.06101
      10     H     0.44213  0.44213  0.00000  0.11574
      11     C     3.15280  3.15280  0.00000 -0.30560
      12     H     0.46959  0.46959  0.00000  0.06083
      13     H     0.45568  0.45568  0.00000  0.08865
      14     H     0.45359  0.45359  0.00000  0.09281
      15     H     0.44791  0.44791  0.00000  0.10418
      16     H     0.44942  0.44942  0.00000  0.10115

   Total alpha = 21.00000, Total beta = 21.00000, Total charge = -0.00000

*** Psi4 exiting successfully. Buy a developer a beer!
