  ==> Input File <==

--------------------------------------------------------------------------
set {
	reference rhf
	basis 6-31G*
}

set_num_threads( 4 )
memory 2 gb

molecule MOL {
0 1

H	 1.148083	 -1.049780	 0.784252
O	 1.319262	 -0.618148	 -0.041729
C	 0.709265	 0.639550	 -0.033818
C	 1.211378	 1.562231	 1.045590
H	 -0.350965	 0.460545	 0.104287
H	 0.818574	 1.128764	 -1.001158
C	 2.025513	 1.218627	 2.023283
H	 0.850527	 2.577163	 0.980913
H	 2.389901	 0.212914	 2.129072
H	 2.345016	 1.931683	 2.761826

	symmetry c1
}
set optking {
	frozen_dihedral = ("
		5 3 2 1
	")
}

ee = optimize('scf')
oeprop('DIPOLE', 'QUADRUPOLE', 'MULLIKEN_CHARGES')
f=open( 'psi4out.xyz', 'w' )
f.write( "10  " )
f.write( str(ee) + "\n" )
f.write( MOL.save_string_xyz() )
f.close()
--------------------------------------------------------------------------

    Molecular point group: c1
  Charge       = 0
  Multiplicity = 1
  Basis Set: 6-31G*
  Basis Set:
  @DF-RHF Final Energy:  -191.91406052768508
    Total Energy =                       -191.9140605276850522
    Molecular point group: c1
  Basis Set: 6-31G*
  Basis Set:
  Basis Set: 6-31G*
  Basis Set:
  @DF-RHF Final Energy:  -191.91632373484612
    Total Energy =                       -191.9163237348461166
  Basis Set: 6-31G*
  Basis Set:
  Basis Set: 6-31G*
  Basis Set:
  @DF-RHF Final Energy:  -191.91716459240786
    Total Energy =                       -191.9171645924079144
  Basis Set: 6-31G*
  Basis Set:
  Basis Set: 6-31G*
  Basis Set:
  @DF-RHF Final Energy:  -191.91723927286941
    Total Energy =                       -191.9172392728694376
  Basis Set: 6-31G*
  Basis Set:
  Basis Set: 6-31G*
  Basis Set:
  @DF-RHF Final Energy:  -191.91724864555749
    Total Energy =                       -191.9172486455574926
  Basis Set: 6-31G*
  Basis Set:
  Charge       = 0
  Multiplicity = 1
  Basis Set: 6-31G*
  Basis Set:

    Orbital Energies (a.u.)
    -----------------------

    Doubly Occupied:

       1A    -20.560613     2A    -11.278392     3A    -11.231126
       4A    -11.219435     5A     -1.369264     6A     -1.057939
       7A     -0.928522     8A     -0.768859     9A     -0.687732
      10A     -0.661632    11A     -0.615956    12A     -0.570686
      13A     -0.538117    14A     -0.492088    15A     -0.447842
      16A     -0.364805

  @DF-RHF Final Energy:  -191.91724891809173

   => Energetics <=

    Nuclear Repulsion Energy =            119.3903421755244807
    One-Electron Energy =                -497.0291694013923234
    Two-Electron Energy =                 185.7215783077761273
    DFT Exchange-Correlation Energy =       0.0000000000000000
    Empirical Dispersion Energy =           0.0000000000000000
    PCM Polarization Energy =               0.0000000000000000
    EFP Energy =                            0.0000000000000000
    Total Energy =                       -191.9172489180917012
    Molecular point group: c1
  Basis Set: 6-31G*
  Basis Set:

  -Total Gradient:
     Atom            X                  Y                   Z
    ------   -----------------  -----------------  -----------------
       1        0.000023686643    -0.000033650161     0.000012987861
       2       -0.000001268368    -0.000006576745     0.000027090352
       3       -0.000054096333    -0.000038585183     0.000006016611
       4        0.000057063293     0.000050064618    -0.000069145264
       5       -0.000020830999     0.000011732719    -0.000034055455
       6        0.000004579764     0.000039702864     0.000021122525
       7        0.000057453356     0.000035535885    -0.000015546391
       8       -0.000022056709    -0.000013938567     0.000021151688
       9       -0.000018765459    -0.000023961326     0.000012025801
      10       -0.000025765187    -0.000020324102     0.000018352273

  **** Optimization is complete! (in 6 steps) ****
    Final optimized geometry and variables:
    Molecular point group: c1

    Geometry (in Angstrom), charge = 0, multiplicity = 1:

    H           -0.349093062031    -1.704541530813     0.077934600408
    O           -0.031532622366    -1.275128147783    -0.704797514929
    C           -0.568850012452     0.013661020230    -0.767899213617
    C           -0.135542579897     0.918292977785     0.355694984145
    H           -1.657428736866    -0.021783316924    -0.799197303262
    H           -0.245533532813     0.429814842106    -1.715283751860
    C            0.790015635039     0.633022383812     1.249411323629
    H           -0.645930500316     1.868096633204     0.397864611906
    H            1.330555453456    -0.295806467352     1.227485627456
    H            1.048377077497     1.327523210360     2.028362793322

  Mulliken Charges: (a.u.)
   Center  Symbol    Alpha    Beta     Spin     Total
       1     H     0.28087  0.28087  0.00000  0.43826
       2     O     4.36679  4.36679  0.00000 -0.73358
       3     C     3.00036  3.00036  0.00000 -0.00073
       4     C     3.09366  3.09366  0.00000 -0.18732
       5     H     0.42568  0.42568  0.00000  0.14864
       6     H     0.40817  0.40817  0.00000  0.18366
       7     C     3.19717  3.19717  0.00000 -0.39435
       8     H     0.41019  0.41019  0.00000  0.17962
       9     H     0.40611  0.40611  0.00000  0.18779
      10     H     0.41099  0.41099  0.00000  0.17802

   Total alpha = 16.00000, Total beta = 16.00000, Total charge =  0.00000
