                              Psi4 1.0.54 Driver

  ==> Input File <==

--------------------------------------------------------------------------
set {
	reference rhf
	basis cc-pvtz
}

set_num_threads( 4 )
memory 2 gb

molecule MOL {
0 1

H	 -1.530188	 -1.327940	 -0.522437
O	 -2.321472	 -0.864941	 -0.318626
C	 -2.021813	 0.336996	 0.342658
C	 -0.669613	 0.837286	 -0.127252
H	 -2.780861	 1.084746	 0.127159
H	 -2.006390	 0.184138	 1.420053
C	 0.490865	 -0.082543	 0.241244
H	 -0.708709	 0.967192	 -1.204587
H	 -0.507562	 1.822272	 0.303070
C	 1.839800	 0.429565	 -0.255472
H	 0.305636	 -1.070211	 -0.165276
H	 0.527397	 -0.195943	 1.322876
C	 3.001144	 -0.485193	 0.119072
H	 1.804373	 0.541073	 -1.335756
H	 2.020437	 1.423114	 0.146921
H	 2.866892	 -1.477297	 -0.298806
H	 3.943543	 -0.095749	 -0.249061
H	 3.085064	 -0.590459	 1.195790

	symmetry c1
}
set optking {
	frozen_dihedral = ("
		1 2 3 4
	")
}

ee,wfn = optimize('scf', return_wfn=True)
oeprop( wfn, 'DIPOLE', 'QUADRUPOLE', 'MULLIKEN_CHARGES')
f=open( 'psi4out.xyz', 'w' )
f.write( "18  " )
f.write( str(ee) + "\n" )
f.write( MOL.save_string_xyz() )
f.close()
--------------------------------------------------------------------------

    Molecular point group: c1
  Charge       = 0
  Multiplicity = 1
  Basis Set: CC-PVTZ
  Basis Set:
  @DF-RHF Final Energy:  -271.28217819691974
    Total Energy =                       -271.2821781969199151
    Molecular point group: c1
  Basis Set: CC-PVTZ
  Basis Set:
  Basis Set: CC-PVTZ
  Basis Set:
  @DF-RHF Final Energy:  -271.28353450276040
    Total Energy =                       -271.2835345027604603
  Basis Set: CC-PVTZ
  Basis Set:
  Basis Set: CC-PVTZ
  Basis Set:
  @DF-RHF Final Energy:  -271.28447133690759
    Total Energy =                       -271.2844713369077567
  Basis Set: CC-PVTZ
  Basis Set:
  Basis Set: CC-PVTZ
  Basis Set:
  @DF-RHF Final Energy:  -271.28454900059364
    Total Energy =                       -271.2845490005936995
  Basis Set: CC-PVTZ
  Basis Set:
  Basis Set: CC-PVTZ
  Basis Set:
  @DF-RHF Final Energy:  -271.28455480323237
    Total Energy =                       -271.2845548032325382
  Basis Set: CC-PVTZ
  Basis Set:
  Charge       = 0
  Multiplicity = 1
  Basis Set: CC-PVTZ
  Basis Set:

    Orbital Energies (a.u.)
    -----------------------

    Doubly Occupied:

       1A    -20.542900     2A    -11.264591     3A    -11.223086
       4A    -11.220644     5A    -11.219793     6A    -11.212223
       7A     -1.361508     8A     -1.087533     9A     -1.015723
      10A     -0.924608    11A     -0.835151    12A     -0.798157
      13A     -0.678814    14A     -0.657860    15A     -0.623638
      16A     -0.614934    17A     -0.578457    18A     -0.562619
      19A     -0.537167    20A     -0.508374    21A     -0.497718
      22A     -0.479201    23A     -0.473054    24A     -0.450690
      25A     -0.432811

  @DF-RHF Final Energy:  -271.28455545223693

   => Energetics <=

    Nuclear Repulsion Energy =            249.0652007764114728
    One-Electron Energy =                -861.0970002439391919
    Two-Electron Energy =                 340.7472440152908462
    DFT Exchange-Correlation Energy =       0.0000000000000000
    Empirical Dispersion Energy =           0.0000000000000000
    PCM Polarization Energy =               0.0000000000000000
    EFP Energy =                            0.0000000000000000
    Total Energy =                       -271.2845554522368161
    Molecular point group: c1
  Basis Set: CC-PVTZ
  Basis Set:

  -Total Gradient:
     Atom            X                  Y                   Z
    ------   -----------------  -----------------  -----------------
       1       -0.000080208021     0.000796638986    -0.001774507618
       2        0.000380986286    -0.001441051249     0.002477652820
       3       -0.000910851970     0.001227305493    -0.001584644128
       4        0.000560439869    -0.000700928083     0.000814265950
       5        0.000029885437     0.000056668740     0.000016314150
       6        0.000028064181     0.000031686725     0.000004268286
       7        0.000006070207     0.000019764359     0.000020340029
       8       -0.000008668663     0.000013576611    -0.000003980732
       9        0.000017106025    -0.000002750817     0.000002041163
      10       -0.000004081673     0.000006393115     0.000018061939
      11       -0.000007007108     0.000004716517    -0.000002567885
      12        0.000018445715     0.000000871753     0.000022370768
      13       -0.000020700294    -0.000017081524    -0.000013972339
      14       -0.000002134502     0.000004292433     0.000000215134
      15       -0.000002258157    -0.000001589077     0.000011268637
      16        0.000003264489    -0.000009005416     0.000000324952
      17       -0.000007459579     0.000000956027    -0.000007908748
      18       -0.000000892245     0.000009535405     0.000000457620

  **** Optimization is complete! (in 6 steps) ****
    Final optimized geometry and variables:
    Molecular point group: c1

    Geometry (in Angstrom), charge = 0, multiplicity = 1:

    H           -1.858193172650    -1.286113144026    -0.300815229892
    O           -2.525634483020    -0.695803814173    -0.006781446787
    C           -1.954796976358     0.474620774425     0.517808508347
    C           -0.623524129198     0.852612009832    -0.113802385716
    H           -2.673825821010     1.266514335064     0.353697605844
    H           -1.828283094007     0.369099415593     1.593444627348
    C            0.516968600230    -0.120691339282     0.180462352475
    H           -0.758280460281     0.950463926812    -1.187775131065
    H           -0.349875717212     1.836933120948     0.255832491158
    C            1.845870385840     0.312798994659    -0.432798433423
    H            0.275507736009    -1.114315414070    -0.191820050700
    H            0.632588561679    -0.221775719278     1.256743470823
    C            2.985139063965    -0.658469752282    -0.143401779233
    H            1.726537991515     0.419429494376    -1.507312540503
    H            2.107363765742     1.297813746338    -0.056580831895
    H            2.768902130887    -1.645434056409    -0.538791707637
    H            3.912033275914    -0.319623889624    -0.591254044347
    H            3.151346106209    -0.760320145525     0.923809038046

  Mulliken Charges: (a.u.)
   Center  Symbol    Alpha    Beta     Spin     Total
       1     H     0.39097  0.39097  0.00000  0.21807
       2     O     4.20807  4.20807  0.00000 -0.41614
       3     C     2.96005  2.96005  0.00000  0.07989
       4     C     3.10512  3.10512  0.00000 -0.21025
       5     H     0.45631  0.45631  0.00000  0.08739
       6     H     0.47601  0.47601  0.00000  0.04799
       7     C     3.08976  3.08976  0.00000 -0.17951
       8     H     0.44876  0.44876  0.00000  0.10248
       9     H     0.45385  0.45385  0.00000  0.09229
      10     C     3.08444  3.08444  0.00000 -0.16888
      11     H     0.46360  0.46360  0.00000  0.07280
      12     H     0.45107  0.45107  0.00000  0.09786
      13     C     3.14946  3.14946  0.00000 -0.29892
      14     H     0.45295  0.45295  0.00000  0.09410
      15     H     0.45276  0.45276  0.00000  0.09448
      16     H     0.45512  0.45512  0.00000  0.08977
      17     H     0.44732  0.44732  0.00000  0.10535
      18     H     0.45439  0.45439  0.00000  0.09122

   Total alpha = 25.00000, Total beta = 25.00000, Total charge =  0.00000

*** Psi4 exiting successfully. Buy a developer a beer!
