                              Psi4 1.0.54 Driver

  ==> Input File <==

--------------------------------------------------------------------------
set {
	reference rhf
	basis cc-pvtz
}

set_num_threads( 4 )
memory 2 gb

molecule MOL {
0 1

H	 -2.450744	 1.179120	 -1.315530
N	 -1.469159	 1.169227	 -1.138149
C	 -0.804225	 0.161796	 -1.943808
H	 -1.339624	 0.971436	 -0.168563
C	 0.680082	 0.149915	 -1.658609
H	 -1.192212	 -0.843904	 -1.787034
H	 -0.946095	 0.405495	 -2.990963
O	 0.881195	 -0.248324	 -0.336237
H	 1.181263	 -0.539063	 -2.337064
H	 1.090789	 1.144351	 -1.817810
C	 2.208068	 -0.234417	 0.074171
H	 2.725499	 -1.027054	 -0.446768
H	 2.688377	 0.712084	 -0.164856
H	 2.295137	 -0.403407	 1.144883

	symmetry c1
}
set optking {
	frozen_dihedral = ("
		5 8 11 13
	")
}

ee,wfn = optimize('scf', return_wfn=True)
oeprop( wfn, 'DIPOLE', 'QUADRUPOLE', 'MULLIKEN_CHARGES')
f=open( 'psi4out.xyz', 'w' )
f.write( "14  " )
f.write( str(ee) + "\n" )
f.write( MOL.save_string_xyz() )
f.close()
--------------------------------------------------------------------------

    Molecular point group: c1
  Charge       = 0
  Multiplicity = 1
  Basis Set: CC-PVTZ
  Basis Set:
  @DF-RHF Final Energy:  -248.22503361479858
    Total Energy =                       -248.2250336147985195
    Molecular point group: c1
  Basis Set: CC-PVTZ
  Basis Set:
  Basis Set: CC-PVTZ
  Basis Set:
  @DF-RHF Final Energy:  -248.22573915992834
    Total Energy =                       -248.2257391599282528
  Basis Set: CC-PVTZ
  Basis Set:
  Basis Set: CC-PVTZ
  Basis Set:
  @DF-RHF Final Energy:  -248.22592564148161
    Total Energy =                       -248.2259256414815809
  Basis Set: CC-PVTZ
  Basis Set:
  Charge       = 0
  Multiplicity = 1
  Basis Set: CC-PVTZ
  Basis Set:

    Orbital Energies (a.u.)
    -----------------------

    Doubly Occupied:

       1A    -20.550575     2A    -15.523518     3A    -11.264046
       4A    -11.263649     5A    -11.239884     6A     -1.384472
       7A     -1.176004     8A     -1.000644     9A     -0.907698
      10A     -0.815894    11A     -0.685108    12A     -0.676162
      13A     -0.647635    14A     -0.612074    15A     -0.607773
      16A     -0.542192    17A     -0.530255    18A     -0.498324
      19A     -0.474629    20A     -0.419731    21A     -0.383882

  @DF-RHF Final Energy:  -248.22592662709394

   => Energetics <=

    Nuclear Repulsion Energy =            194.6947668730999794
    One-Electron Energy =                -723.4330895648981823
    Two-Electron Energy =                 280.5123960647044896
    DFT Exchange-Correlation Energy =       0.0000000000000000
    Empirical Dispersion Energy =           0.0000000000000000
    PCM Polarization Energy =               0.0000000000000000
    EFP Energy =                            0.0000000000000000
    Total Energy =                       -248.2259266270937133
    Molecular point group: c1
  Basis Set: CC-PVTZ
  Basis Set:

  -Total Gradient:
     Atom            X                  Y                   Z
    ------   -----------------  -----------------  -----------------
       1       -0.000006669435     0.000003374007    -0.000005280494
       2       -0.000014532888     0.000020662260    -0.000005243292
       3        0.000010862565    -0.000085016453     0.000137208729
       4        0.000009899367     0.000003604140    -0.000008560105
       5       -0.000027052425     0.001240915945     0.000273356638
       6       -0.000035398662    -0.000023595144    -0.000013954771
       7        0.000053581789     0.000001417452     0.000030459092
       8        0.000313333552    -0.001785190229    -0.000848597339
       9       -0.000005734574    -0.000020881563     0.000046539189
      10        0.000021300313     0.000011666712     0.000000341816
      11       -0.000632418139     0.001134984679     0.001718863620
      12       -0.000031480200    -0.000004007536    -0.000009294789
      13        0.000401220473    -0.000505964185    -0.001307242586
      14       -0.000056911731     0.000008029912    -0.000008595705

  **** Optimization is complete! (in 4 steps) ****
    Final optimized geometry and variables:
    Molecular point group: c1

    Geometry (in Angstrom), charge = 0, multiplicity = 1:

    H           -2.766520249294     0.928343745546    -0.358916422665
    N           -1.786292872391     0.937650964303    -0.174213658639
    C           -1.095816658840    -0.057585379783    -0.973457723426
    H           -1.660274504124     0.743722121489     0.796578988372
    C            0.386067441154    -0.041116315768    -0.675954018638
    H           -1.466133885952    -1.070361433421    -0.819428940272
    H           -1.233097769968     0.182723544973    -2.022004965863
    O            0.582383221001    -0.433004339815     0.648921566293
    H            0.905235013685    -0.721264331967    -1.350085365082
    H            0.779652099324     0.960428598568    -0.832003513011
    C            1.905222959184    -0.403656414455     1.072037309792
    H            2.487009504486    -1.195430490470     0.604238409360
    H            2.378149650149     0.546292971837     0.835590076255
    H            1.918213614275    -0.548920603954     2.142459611133

  Mulliken Charges: (a.u.)
   Center  Symbol    Alpha    Beta     Spin     Total
       1     H     0.43023  0.43023  0.00000  0.13954
       2     N     3.69420  3.69420  0.00000 -0.38840
       3     C     3.02199  3.02199  0.00000 -0.04397
       4     H     0.42246  0.42246  0.00000  0.15508
       5     C     2.96953  2.96953  0.00000  0.06093
       6     H     0.46449  0.46449  0.00000  0.07102
       7     H     0.45872  0.45872  0.00000  0.08256
       8     O     4.18023  4.18023  0.00000 -0.36046
       9     H     0.47058  0.47058  0.00000  0.05884
      10     H     0.46757  0.46757  0.00000  0.06486
      11     C     3.03151  3.03151  0.00000 -0.06303
      12     H     0.46919  0.46919  0.00000  0.06162
      13     H     0.47160  0.47160  0.00000  0.05680
      14     H     0.44769  0.44769  0.00000  0.10462

   Total alpha = 21.00000, Total beta = 21.00000, Total charge =  0.00000

*** Psi4 exiting successfully. Buy a developer a beer!
