                              Psi4 1.0.54 Driver

  ==> Input File <==

--------------------------------------------------------------------------
set {
	reference rhf
	basis cc-pvtz
}

set_num_threads( 4 )
memory 2 gb

molecule MOL {
0 1

H	 -2.816458	 -0.841657	 -0.064679
N	 -1.878861	 -0.711874	 0.250184
C	 -1.341419	 0.551458	 -0.220231
H	 -1.333674	 -1.468530	 -0.105118
C	 0.082190	 0.731516	 0.254705
H	 -1.357065	 0.652078	 -1.304747
H	 -1.939897	 1.357530	 0.189797
O	 0.095801	 1.664020	 1.292953
H	 0.479062	 -0.221237	 0.602450
H	 0.701326	 1.078295	 -0.569517
C	 1.361776	 1.971492	 1.774605
H	 1.248443	 2.693955	 2.569960
H	 1.860944	 1.090236	 2.171988
H	 1.989571	 2.401154	 0.997542

	symmetry c1
}
set optking {
	frozen_dihedral = ("
		8 5 3 6
	")
}

ee,wfn = optimize('scf', return_wfn=True)
oeprop( wfn, 'DIPOLE', 'QUADRUPOLE', 'MULLIKEN_CHARGES')
f=open( 'psi4out.xyz', 'w' )
f.write( "14  " )
f.write( str(ee) + "\n" )
f.write( MOL.save_string_xyz() )
f.close()
--------------------------------------------------------------------------

    Molecular point group: c1
  Charge       = 0
  Multiplicity = 1
  Basis Set: CC-PVTZ
  Basis Set:
  @DF-RHF Final Energy:  -248.21762806972148
    Total Energy =                       -248.2176280697212860
    Molecular point group: c1
  Basis Set: CC-PVTZ
  Basis Set:
  Basis Set: CC-PVTZ
  Basis Set:
  @DF-RHF Final Energy:  -248.21753589858312
    Total Energy =                       -248.2175358985832645
  Basis Set: CC-PVTZ
  Basis Set:
  Basis Set: CC-PVTZ
  Basis Set:
  @DF-RHF Final Energy:  -248.21848094586537
    Total Energy =                       -248.2184809458652808
  Basis Set: CC-PVTZ
  Basis Set:
  Basis Set: CC-PVTZ
  Basis Set:
  @DF-RHF Final Energy:  -248.21854209942427
    Total Energy =                       -248.2185420994242691
  Basis Set: CC-PVTZ
  Basis Set:
  Basis Set: CC-PVTZ
  Basis Set:
  @DF-RHF Final Energy:  -248.21855506849752
    Total Energy =                       -248.2185550684976079
  Basis Set: CC-PVTZ
  Basis Set:
  Charge       = 0
  Multiplicity = 1
  Basis Set: CC-PVTZ
  Basis Set:

    Orbital Energies (a.u.)
    -----------------------

    Doubly Occupied:

       1A    -20.546013     2A    -15.529782     3A    -11.263230
       4A    -11.259740     5A    -11.240230     6A     -1.380304
       7A     -1.179283     8A     -0.997994     9A     -0.900775
      10A     -0.823106    11A     -0.679686    12A     -0.672260
      13A     -0.645246    14A     -0.619453    15A     -0.608822
      16A     -0.533196    17A     -0.528420    18A     -0.501915
      19A     -0.468389    20A     -0.414895    21A     -0.387454

  @DF-RHF Final Energy:  -248.21855611638483

   => Energetics <=

    Nuclear Repulsion Energy =            191.8233438589003299
    One-Electron Energy =                -717.7234164595107586
    Two-Electron Energy =                 277.6815164842256536
    DFT Exchange-Correlation Energy =       0.0000000000000000
    Empirical Dispersion Energy =           0.0000000000000000
    PCM Polarization Energy =               0.0000000000000000
    EFP Energy =                            0.0000000000000000
    Total Energy =                       -248.2185561163847751
    Molecular point group: c1
  Basis Set: CC-PVTZ
  Basis Set:

  -Total Gradient:
     Atom            X                  Y                   Z
    ------   -----------------  -----------------  -----------------
       1        0.000049151192    -0.000030953014    -0.000010259483
       2       -0.000010022614    -0.000045455784     0.000014410929
       3        0.000688270537    -0.002864913113    -0.000346836739
       4       -0.000047681138     0.000001136226     0.000004328794
       5       -0.000543915003    -0.001085016627     0.002105241493
       6       -0.000471329049     0.002683384319    -0.000093113070
       7        0.000020955722     0.000026827460    -0.000009443253
       8        0.000344886647     0.001348895334    -0.001623237336
       9       -0.000017776643    -0.000009055322    -0.000013238840
      10        0.000009878827    -0.000009253377    -0.000017648222
      11        0.000003183340    -0.000023873565     0.000014535346
      12       -0.000012269415    -0.000001905180    -0.000016909591
      13       -0.000003045304     0.000006052577    -0.000005624756
      14       -0.000010287096     0.000004130068    -0.000002205270

  **** Optimization is complete! (in 6 steps) ****
    Final optimized geometry and variables:
    Molecular point group: c1

    Geometry (in Angstrom), charge = 0, multiplicity = 1:

    H           -2.521532288519    -1.641560240390    -0.515372710621
    N           -1.547119282947    -1.579589404958    -0.310876134296
    C           -0.960869061955    -0.398759441438    -0.923646417138
    H           -1.121201101808    -2.414535417213    -0.654826933736
    C            0.446815223902    -0.125029033105    -0.400182806730
    H           -0.941283124440    -0.438568858903    -2.011685217084
    H           -1.568836016234     0.455571666571    -0.659325285279
    O            0.409413480411     0.927575041056     0.512997625381
    H            0.843614813453    -1.020900901029     0.072472203142
    H            1.112122730725     0.136745080401    -1.221981079709
    C            1.632533865194     1.215788947480     1.102376399682
    H            1.487477037587     2.047120193760     1.776986442508
    H            2.012476089114     0.368141377629     1.668398154857
    H            2.378139976827     1.494535465338     0.359912577008

  Mulliken Charges: (a.u.)
   Center  Symbol    Alpha    Beta     Spin     Total
       1     H     0.42805  0.42805  0.00000  0.14391
       2     N     3.68939  3.68939  0.00000 -0.37877
       3     C     3.03175  3.03175  0.00000 -0.06351
       4     H     0.43184  0.43184  0.00000  0.13632
       5     C     2.95526  2.95526  0.00000  0.08948
       6     H     0.46538  0.46538  0.00000  0.06924
       7     H     0.45014  0.45014  0.00000  0.09971
       8     O     4.17175  4.17175  0.00000 -0.34349
       9     H     0.47708  0.47708  0.00000  0.04584
      10     H     0.47742  0.47742  0.00000  0.04516
      11     C     3.03008  3.03008  0.00000 -0.06016
      12     H     0.44705  0.44705  0.00000  0.10590
      13     H     0.47107  0.47107  0.00000  0.05786
      14     H     0.47375  0.47375  0.00000  0.05251

   Total alpha = 21.00000, Total beta = 21.00000, Total charge = -0.00000

*** Psi4 exiting successfully. Buy a developer a beer!
