  ==> Input File <==

--------------------------------------------------------------------------
set {
	reference rhf
	basis 6-31G*
}

set_num_threads( 1 )
memory 2 gb

molecule MOL {
0 1

H	 3.089270	 -1.380733	 0.000000
O	 2.178328	 -1.639175	 0.000000
C	 1.368216	 -0.558384	 0.000000
C	 0.452652	 -0.314626	 -1.015691
C	 1.474174	 0.322632	 1.062081
H	 0.371786	 -1.001515	 -1.841330
C	 -0.355591	 0.808855	 -0.968751
H	 2.180958	 0.135532	 1.847272
C	 0.661286	 1.445005	 1.101431
H	 -1.060365	 0.986898	 -1.760567
C	 -0.256434	 1.694677	 0.088897
C	 0.769954	 2.395628	 2.239578
H	 -0.883246	 2.567964	 0.127376
O	 1.521944	 2.271260	 3.152590
H	 0.091831	 3.252934	 2.190342

	symmetry c1
}
set optking {
	frozen_dihedral = ("
		11 9 12 14
	")
}

ee = energy('scf')
oeprop('DIPOLE', 'QUADRUPOLE', 'MULLIKEN_CHARGES')
f=open( 'psi4out.xyz', 'w' )
f.write( "15  " )
f.write( str(ee) + "\n" )
f.write( MOL.save_string_xyz() )
f.close()
--------------------------------------------------------------------------

    Molecular point group: c1

    Geometry (in Angstrom), charge = 0, multiplicity = 1:

       Center              X                  Y                   Z               Mass
    ------------   -----------------  -----------------  -----------------  -----------------
           H          2.168428660732    -2.070954100532    -0.664418116235     1.007825032070
           O          1.257486660732    -2.329396100532    -0.664418116235    15.994914619560
           C          0.447374660732    -1.248605100532    -0.664418116235    12.000000000000
           C         -0.468189339268    -1.004847100532    -1.680109116235    12.000000000000
           C          0.553332660732    -0.367589100532     0.397662883765    12.000000000000
           H         -0.549055339268    -1.691736100532    -2.505748116235     1.007825032070
           C         -1.276432339268     0.118633899468    -1.633169116235    12.000000000000
           H          1.260116660732    -0.554689100532     1.182853883765     1.007825032070
           C         -0.259555339268     0.754783899468     0.437012883765    12.000000000000
           H         -1.981206339268     0.296676899468    -2.424985116235     1.007825032070
           C         -1.177275339268     1.004455899468    -0.575521116235    12.000000000000
           C         -0.150887339268     1.705406899468     1.575159883765    12.000000000000
           H         -1.804087339268     1.877742899468    -0.537042116235     1.007825032070
           O          0.601102660732     1.581038899468     2.488171883765    15.994914619560
           H         -0.829010339268     2.562712899468     1.525923883765     1.007825032070

  Charge       = 0
  Multiplicity = 1
  Basis Set: 6-31G*
  Basis Set:

    Orbital Energies (a.u.)
    -----------------------

    Doubly Occupied:

       1A    -20.590169     2A    -20.565715     3A    -11.334046
       4A    -11.305915     5A    -11.251981     6A    -11.251173
       7A    -11.250169     8A    -11.248412     9A    -11.242950
      10A     -1.413548    11A     -1.406723    12A     -1.169664
      13A     -1.048763    14A     -1.025402    15A     -0.897737
      16A     -0.849757    17A     -0.798681    18A     -0.749099
      19A     -0.700334    20A     -0.675036    21A     -0.656491
      22A     -0.632462    23A     -0.618983    24A     -0.607706
      25A     -0.557548    26A     -0.547719    27A     -0.531328
      28A     -0.503677    29A     -0.486219    30A     -0.423752
      31A     -0.352451    32A     -0.336521

  @DF-RHF Final Energy:  -418.28253060240456

   => Energetics <=

    Nuclear Repulsion Energy =            403.3336558797951739
    One-Electron Energy =               -1369.1720770219083079
    Two-Electron Energy =                 547.5558905397090257
    DFT Exchange-Correlation Energy =       0.0000000000000000
    Empirical Dispersion Energy =           0.0000000000000000
    PCM Polarization Energy =               0.0000000000000000
    EFP Energy =                            0.0000000000000000
    Total Energy =                       -418.2825306024041083

  Mulliken Charges: (a.u.)
   Center  Symbol    Alpha    Beta     Spin     Total
       1     H     0.26814  0.26814  0.00000  0.46373
       2     O     4.38400  4.38400  0.00000 -0.76800
       3     C     2.80805  2.80805  0.00000  0.38391
       4     C     3.11087  3.11087  0.00000 -0.22173
       5     C     3.11986  3.11986  0.00000 -0.23973
       6     H     0.38740  0.38740  0.00000  0.22519
       7     C     3.10012  3.10012  0.00000 -0.20023
       8     H     0.37629  0.37629  0.00000  0.24741
       9     C     3.05008  3.05008  0.00000 -0.10015
      10     H     0.39258  0.39258  0.00000  0.21484
      11     C     3.10941  3.10941  0.00000 -0.21882
      12     C     2.83213  2.83213  0.00000  0.33575
      13     H     0.39207  0.39207  0.00000  0.21586
      14     O     4.24715  4.24715  0.00000 -0.49431
      15     H     0.42186  0.42186  0.00000  0.15628

   Total alpha = 32.00000, Total beta = 32.00000, Total charge =  0.00000
