  ==> Input File <==

--------------------------------------------------------------------------
set {
	reference rhf
	basis cc-pvtz
}

set_num_threads( 4 )
memory 2 gb

molecule MOL {
0 1

H	 1.404098	 -1.021244	 2.158279
O	 0.726281	 -0.466050	 1.820080
C	 1.135873	 0.113391	 0.608264
C	 0.027642	 1.012027	 0.090274
H	 1.340930	 -0.658145	 -0.129606
H	 2.052648	 0.679167	 0.749270
C	 -1.138737	 0.285728	 -0.581921
H	 0.464661	 1.708096	 -0.618252
H	 -0.340737	 1.603071	 0.925246
C	 -1.933983	 -0.631436	 0.343653
H	 -0.763151	 -0.285569	 -1.422081
H	 -1.808359	 1.035291	 -0.992333
H	 -2.789188	 -1.049673	 -0.174718
H	 -1.335629	 -1.461368	 0.700418
H	 -2.305435	 -0.092167	 1.209725

	symmetry c1
}
set optking {
	frozen_dihedral = ("
		2 3 4 8
	")
}

ee = optimize('scf')
oeprop('DIPOLE', 'QUADRUPOLE', 'MULLIKEN_CHARGES')
f=open( 'psi4out.xyz', 'w' )
f.write( "15  " )
f.write( str(ee) + "\n" )
f.write( MOL.save_string_xyz() )
f.close()
--------------------------------------------------------------------------

    Molecular point group: c1
  Charge       = 0
  Multiplicity = 1
  Basis Set: CC-PVTZ
  Basis Set:
  @DF-RHF Final Energy:  -232.23550415927340
    Total Energy =                       -232.2355041592732050
    Molecular point group: c1
  Basis Set: CC-PVTZ
  Basis Set:
  Basis Set: CC-PVTZ
  Basis Set:
  @DF-RHF Final Energy:  -232.23586459194698
    Total Energy =                       -232.2358645919467790
  Basis Set: CC-PVTZ
  Basis Set:
  Basis Set: CC-PVTZ
  Basis Set:
  @DF-RHF Final Energy:  -232.23593542704683
    Total Energy =                       -232.2359354270469680
  Basis Set: CC-PVTZ
  Basis Set:
  Basis Set: CC-PVTZ
  Basis Set:
  @DF-RHF Final Energy:  -232.23594911799941
    Total Energy =                       -232.2359491179995530
  Basis Set: CC-PVTZ
  Basis Set:
  Charge       = 0
  Multiplicity = 1
  Basis Set: CC-PVTZ
  Basis Set:

    Orbital Energies (a.u.)
    -----------------------

    Doubly Occupied:

       1A    -20.546705     2A    -11.266790     3A    -11.211609
       4A    -11.210480     5A    -11.195285     6A     -1.364468
       7A     -1.064202     8A     -0.971296     9A     -0.864220
      10A     -0.779647    11A     -0.706286    12A     -0.648033
      13A     -0.606518    14A     -0.577836    15A     -0.554320
      16A     -0.540269    17A     -0.507613    18A     -0.473918
      19A     -0.467980    20A     -0.454133    21A     -0.429689

  @DF-RHF Final Energy:  -232.23594981976240

   => Energetics <=

    Nuclear Repulsion Energy =            192.2993775172164703
    One-Electron Energy =                -696.1880602709270534
    Two-Electron Energy =                 271.6527329339483003
    DFT Exchange-Correlation Energy =       0.0000000000000000
    Empirical Dispersion Energy =           0.0000000000000000
    PCM Polarization Energy =               0.0000000000000000
    EFP Energy =                            0.0000000000000000
    Total Energy =                       -232.2359498197622543
    Molecular point group: c1
  Basis Set: CC-PVTZ
  Basis Set:

  -Total Gradient:
     Atom            X                  Y                   Z
    ------   -----------------  -----------------  -----------------
       1       -0.000006394811    -0.000012157465     0.000028286816
       2        0.000384731964     0.000663147502     0.000507604836
       3       -0.000410779705    -0.000718641089    -0.000431802399
       4       -0.000142880457    -0.000711215816    -0.001029192759
       5       -0.000008541414     0.000020516504     0.000015981915
       6        0.000017553506    -0.000021501900     0.000003626430
       7        0.000046219178     0.000050057400     0.000039911155
       8        0.000207154061     0.000763240906     0.000887185217
       9        0.000016169056     0.000022050303     0.000023866217
      10       -0.000059824829    -0.000052575827    -0.000078258984
      11       -0.000029112279    -0.000000490277    -0.000001580898
      12       -0.000029071204    -0.000023820838     0.000003664931
      13        0.000003472309    -0.000001894678     0.000032690260
      14        0.000024719552    -0.000005417639    -0.000003872515
      15       -0.000013414928     0.000028702913     0.000001889778

  **** Optimization is complete! (in 5 steps) ****
    Final optimized geometry and variables:
    Molecular point group: c1

    Geometry (in Angstrom), charge = 0, multiplicity = 1:

    H            1.697629186047    -1.065207777881     1.620706225633
    O            0.995687384940    -0.522025817669     1.313145538823
    C            1.359041639352     0.094141150897     0.103832210434
    C            0.221054456600     0.971094608814    -0.393482718803
    H            1.609615445574    -0.653326105338    -0.646441713141
    H            2.240715661752     0.711093589358     0.257179823146
    C           -0.940917736510     0.245289170644    -1.074988853361
    H            0.644318805925     1.683483069060    -1.095738579682
    H           -0.144959276856     1.552394740956     0.447598678683
    C           -1.788645116078    -0.639317161995    -0.164111217717
    H           -0.551856825778    -0.350309120249    -1.897241938765
    H           -1.583187170615     0.995226021968    -1.527107594170
    H           -2.619835195390    -1.063729934140    -0.716704738828
    H           -1.211838610843    -1.450189066525     0.257909875378
    H           -2.196379622471    -0.066462775023     0.661838583982

  Mulliken Charges: (a.u.)
   Center  Symbol    Alpha    Beta     Spin     Total
       1     H     0.39576  0.39576  0.00000  0.20849
       2     O     4.19805  4.19805  0.00000 -0.39609
       3     C     2.97587  2.97587  0.00000  0.04825
       4     C     3.09523  3.09523  0.00000 -0.19046
       5     H     0.47295  0.47295  0.00000  0.05410
       6     H     0.46250  0.46250  0.00000  0.07500
       7     C     3.09011  3.09011  0.00000 -0.18021
       8     H     0.44890  0.44890  0.00000  0.10220
       9     H     0.45125  0.45125  0.00000  0.09749
      10     C     3.14150  3.14150  0.00000 -0.28299
      11     H     0.45769  0.45769  0.00000  0.08462
      12     H     0.45082  0.45082  0.00000  0.09836
      13     H     0.45292  0.45292  0.00000  0.09416
      14     H     0.45051  0.45051  0.00000  0.09898
      15     H     0.45595  0.45595  0.00000  0.08811

   Total alpha = 21.00000, Total beta = 21.00000, Total charge = -0.00000
