  ==> Input File <==

--------------------------------------------------------------------------
set {
	reference rhf
	basis cc-pvtz
}

set_num_threads( 4 )
memory 2 gb

molecule MOL {
0 1

H	 4.610195	 0.375526	 0.154316
C	 3.750542	 -0.284094	 0.151488
C	 2.449948	 0.510008	 0.101411
H	 3.841794	 -0.940543	 -0.707456
H	 3.803868	 -0.899106	 1.043639
C	 1.214954	 -0.378662	 0.096630
H	 2.429693	 1.137018	 -0.783017
H	 2.404439	 1.180234	 0.956573
N	 -0.000662	 0.402931	 0.025049
H	 1.246683	 -1.031544	 -0.770496
H	 1.234867	 -1.031336	 0.974527
C	 -1.215959	 -0.382435	 0.027143
H	 -0.023158	 1.060625	 0.776216
C	 -2.451944	 0.502410	 -0.038737
H	 -1.196074	 -1.035336	 -0.840326
H	 -1.284002	 -1.035249	 0.902518
C	 -3.752217	 -0.292550	 0.005776
H	 -2.407325	 1.093801	 -0.946480
H	 -2.431979	 1.206234	 0.790023
H	 -3.817783	 -0.982946	 -0.828547
H	 -4.612613	 0.364348	 -0.042306
H	 -3.830160	 -0.871666	 0.919868

	symmetry c1
}
set optking {
	frozen_dihedral = ("
		15 12 14 18
	")
}

ee = optimize('scf')
oeprop('DIPOLE', 'QUADRUPOLE', 'MULLIKEN_CHARGES')
f=open( 'psi4out.xyz', 'w' )
f.write( "22  " )
f.write( str(ee) + "\n" )
f.write( MOL.save_string_xyz() )
f.close()
--------------------------------------------------------------------------

    Molecular point group: c1
  Charge       = 0
  Multiplicity = 1
  Basis Set: CC-PVTZ
  Basis Set:
  @DF-RHF Final Energy:  -290.49006767572479
    Total Energy =                       -290.4900676757247879
    Molecular point group: c1
  Basis Set: CC-PVTZ
  Basis Set:
  Basis Set: CC-PVTZ
  Basis Set:
  @DF-RHF Final Energy:  -290.49007239204605
    Total Energy =                       -290.4900723920463861
  Basis Set: CC-PVTZ
  Basis Set:
  Charge       = 0
  Multiplicity = 1
  Basis Set: CC-PVTZ
  Basis Set:

    Orbital Energies (a.u.)
    -----------------------

    Doubly Occupied:

       1A    -15.527985     2A    -11.236208     3A    -11.236144
       4A    -11.211806     5A    -11.211769     6A    -11.207527
       7A    -11.207474     8A     -1.207383     9A     -1.060432
      10A     -1.027065    11A     -0.928742    12A     -0.868886
      13A     -0.811908    14A     -0.793892    15A     -0.669857
      16A     -0.627228    17A     -0.616169    18A     -0.614602
      19A     -0.574471    20A     -0.563298    21A     -0.529652
      22A     -0.529163    23A     -0.515781    24A     -0.485424
      25A     -0.483156    26A     -0.474690    27A     -0.466297
      28A     -0.451940    29A     -0.361392

  @DF-RHF Final Energy:  -290.49007372918715

   => Energetics <=

    Nuclear Repulsion Energy =            313.6727645385788605
    One-Electron Energy =               -1013.3249999115456603
    Two-Electron Energy =                 409.1621616437793705
    DFT Exchange-Correlation Energy =       0.0000000000000000
    Empirical Dispersion Energy =           0.0000000000000000
    PCM Polarization Energy =               0.0000000000000000
    EFP Energy =                            0.0000000000000000
    Total Energy =                       -290.4900737291873725
    Molecular point group: c1
  Basis Set: CC-PVTZ
  Basis Set:

  -Total Gradient:
     Atom            X                  Y                   Z
    ------   -----------------  -----------------  -----------------
       1        0.000000550219     0.000000536533    -0.000000188893
       2       -0.000000670276     0.000001426171     0.000000489987
       3        0.000000134566    -0.000004595215    -0.000005149076
       4       -0.000000406390    -0.000000403450    -0.000000961034
       5       -0.000000433443    -0.000000344225     0.000000327533
       6        0.000017110101     0.000011129293     0.000012078134
       7        0.000000744704     0.000000258477     0.000000280897
       8       -0.000001664954    -0.000002120262    -0.000000913071
       9       -0.000036141391    -0.000030036875     0.000019331998
      10       -0.000005582534     0.000003987596     0.000000118691
      11       -0.000004249137     0.000002900107    -0.000002498952
      12       -0.000433304252    -0.000573281068     0.000295090505
      13        0.000011886466     0.000009139343    -0.000004958831
      14        0.000431654725     0.000593119471     0.000287935872
      15        0.000297733894     0.000404135496    -0.000324811727
      16        0.000005274193    -0.000010371549     0.000023336124
      17        0.000019073166     0.000018855819    -0.000000751243
      18       -0.000294876496    -0.000423218340    -0.000311026081
      19       -0.000002407195     0.000002656856     0.000011638795
      20       -0.000001472090     0.000003941459     0.000003236463
      21       -0.000001839759    -0.000003015006    -0.000002808066
      22       -0.000001114122    -0.000004700631     0.000000201976

  **** Optimization is complete! (in 3 steps) ****
    Final optimized geometry and variables:
    Molecular point group: c1

    Geometry (in Angstrom), charge = 0, multiplicity = 1:

    H            4.611138576619     0.372842659882     0.084353686496
    C            3.751632970535    -0.287004194752     0.083849306211
    C            2.450704821580     0.506857741123     0.040342707483
    H            3.839541185192    -0.941985589064    -0.776565880159
    H            3.808590421170    -0.903456232063     0.974784966023
    C            1.215916357181    -0.382100543425     0.037814480763
    H            2.427097249590     1.135916921916    -0.842529621822
    H            2.408051878384     1.174948292220     0.897323726725
    N           -0.000008398204     0.399261296054    -0.029396279306
    H            1.245652743047    -1.033878160569    -0.830224743169
    H            1.238458194729    -1.035883623276     0.914855341464
    C           -1.215515587170    -0.385981503841    -0.024372321207
    H           -0.020138107838     1.056447564212     0.722264249386
    C           -2.450459329353     0.499950026658    -0.096938482015
    H           -1.193624109597    -1.040114534871    -0.890840788221
    H           -1.284178989513    -1.035033280280     0.853648723429
    C           -3.751040838304    -0.295323795991    -0.062601316976
    H           -2.401753741640     1.089638727687    -1.005564180007
    H           -2.436260812442     1.203198640664     0.732198454398
    H           -3.806748315427    -0.990834533503    -0.893470884101
    H           -4.611059563673     0.360925320255    -0.124901464349
    H           -3.839395271795    -0.868995102245     0.853937148083

  Mulliken Charges: (a.u.)
   Center  Symbol    Alpha    Beta     Spin     Total
       1     H     0.44771  0.44771  0.00000  0.10458
       2     C     3.15360  3.15360  0.00000 -0.30719
       3     C     3.08021  3.08021  0.00000 -0.16043
       4     H     0.45475  0.45475  0.00000  0.09049
       5     H     0.45613  0.45613  0.00000  0.08774
       6     C     3.02257  3.02257  0.00000 -0.04514
       7     H     0.44914  0.44914  0.00000  0.10171
       8     H     0.45969  0.45969  0.00000  0.08062
       9     N     3.63884  3.63884  0.00000 -0.27768
      10     H     0.45919  0.45919  0.00000  0.08163
      11     H     0.47498  0.47498  0.00000  0.05005
      12     C     3.02297  3.02297  0.00000 -0.04594
      13     H     0.44553  0.44553  0.00000  0.10894
      14     C     3.07959  3.07959  0.00000 -0.15918
      15     H     0.45880  0.45880  0.00000  0.08241
      16     H     0.47481  0.47481  0.00000  0.05038
      17     C     3.15376  3.15376  0.00000 -0.30751
      18     H     0.44925  0.44925  0.00000  0.10151
      19     H     0.45978  0.45978  0.00000  0.08044
      20     H     0.45487  0.45487  0.00000  0.09027
      21     H     0.44771  0.44771  0.00000  0.10458
      22     H     0.45614  0.45614  0.00000  0.08773

   Total alpha = 29.00000, Total beta = 29.00000, Total charge = -0.00000
