  ==> Input File <==

--------------------------------------------------------------------------
set {
	reference rhf
	basis 6-31G*
}

set_num_threads( 4 )
memory 2 gb

molecule MOL {
0 1

H	 -0.987957	 -0.468212	 -0.937561
N	 -0.712432	 0.000013	 -0.096310
C	 0.734192	 -0.000004	 0.040609
H	 -1.139543	 -0.492714	 0.663725
H	 1.139899	 -0.873598	 -0.456463
H	 1.139939	 0.873831	 -0.456100
H	 1.096456	 -0.000300	 1.069655

	symmetry c1
}
set optking {
	frozen_dihedral = ("
		1 2 3 7
	")
}

ee = optimize('scf')
oeprop('DIPOLE', 'QUADRUPOLE', 'MULLIKEN_CHARGES')
f=open( 'psi4out.xyz', 'w' )
f.write( "7  " )
f.write( str(ee) + "\n" )
f.write( MOL.save_string_xyz() )
f.close()
--------------------------------------------------------------------------

    Molecular point group: c1
  Charge       = 0
  Multiplicity = 1
  Basis Set: 6-31G*
  Basis Set:
  @DF-RHF Final Energy:   -95.20616431359772
    Total Energy =                        -95.2061643135976254
    Molecular point group: c1
  Basis Set: 6-31G*
  Basis Set:
  Basis Set: 6-31G*
  Basis Set:
  @DF-RHF Final Energy:   -95.20770622727096
    Total Energy =                        -95.2077062272711032
  Basis Set: 6-31G*
  Basis Set:
  Basis Set: 6-31G*
  Basis Set:
  @DF-RHF Final Energy:   -95.20793831564632
    Total Energy =                        -95.2079383156463166
  Basis Set: 6-31G*
  Basis Set:
  Charge       = 0
  Multiplicity = 1
  Basis Set: 6-31G*
  Basis Set:

    Orbital Energies (a.u.)
    -----------------------

    Doubly Occupied:

       1A    -15.534530     2A    -11.237728     3A     -1.170144
       4A     -0.897275     5A     -0.663040     6A     -0.602233
       7A     -0.557420     8A     -0.517416     9A     -0.384107

  @DF-RHF Final Energy:   -95.20794075268824

   => Energetics <=

    Nuclear Repulsion Energy =             42.2819669955425255
    One-Electron Energy =                -211.8520291135432103
    Two-Electron Energy =                  74.3621213653123476
    DFT Exchange-Correlation Energy =       0.0000000000000000
    Empirical Dispersion Energy =           0.0000000000000000
    PCM Polarization Energy =               0.0000000000000000
    EFP Energy =                            0.0000000000000000
    Total Energy =                        -95.2079407526883443
    Molecular point group: c1
  Basis Set: 6-31G*
  Basis Set:

  -Total Gradient:
     Atom            X                  Y                   Z
    ------   -----------------  -----------------  -----------------
       1       -0.000057312994    -0.002745239908     0.001633021496
       2        0.000304780942     0.002700177237    -0.001960967092
       3       -0.000174096221     0.002929624555     0.000270864419
       4        0.000036849836     0.000037291072     0.000003974641
       5        0.000002071997    -0.000008824428    -0.000016509542
       6       -0.000038293341     0.000010735604     0.000017291061
       7       -0.000074000220    -0.002923764132     0.000052325017

  **** Optimization is complete! (in 4 steps) ****
    Final optimized geometry and variables:
    Molecular point group: c1

    Geometry (in Angstrom), charge = 0, multiplicity = 1:

    H           -1.023385089173    -0.426663973496    -0.881591564668
    N           -0.718928097117     0.039507007652    -0.049612640985
    C            0.735371233765     0.022699814993     0.049735880368
    H           -1.123124728934    -0.468500581969     0.712279109972
    H            1.197484155951    -0.851461768413    -0.408327403306
    H            1.154249721660     0.906022754766    -0.418568222715
    H            1.027875440228     0.021396558465     1.093346885319

  Mulliken Charges: (a.u.)
   Center  Symbol    Alpha    Beta     Spin     Total
       1     H     0.33319  0.33319  0.00000  0.33361
       2     N     3.91836  3.91836  0.00000 -0.83672
       3     C     3.14773  3.14773  0.00000 -0.29545
       4     H     0.33355  0.33355  0.00000  0.33291
       5     H     0.43127  0.43127  0.00000  0.13746
       6     H     0.41567  0.41567  0.00000  0.16865
       7     H     0.42023  0.42023  0.00000  0.15954

   Total alpha =  9.00000, Total beta =  9.00000, Total charge = -0.00000
