                              Psi4 1.0.54 Driver

  ==> Input File <==

--------------------------------------------------------------------------
set {
	reference rhf
	basis cc-pvtz
}

set_num_threads( 4 )
memory 2 gb

molecule MOL {
0 1

H	 -2.930555	 -1.375054	 0.414568
O	 -2.108174	 -1.044130	 0.104380
C	 -2.021813	 0.336996	 0.342658
C	 -0.669613	 0.837286	 -0.127252
H	 -2.809351	 0.861446	 -0.192561
H	 -2.146996	 0.548080	 1.402921
C	 0.490865	 -0.082543	 0.241244
H	 -0.708709	 0.967192	 -1.204587
H	 -0.507562	 1.822272	 0.303070
C	 1.839800	 0.429565	 -0.255472
H	 0.305636	 -1.070211	 -0.165276
H	 0.527397	 -0.195943	 1.322876
C	 3.001144	 -0.485193	 0.119072
H	 1.804373	 0.541073	 -1.335756
H	 2.020437	 1.423114	 0.146921
H	 2.866892	 -1.477297	 -0.298806
H	 3.943543	 -0.095749	 -0.249061
H	 3.085064	 -0.590459	 1.195790

	symmetry c1
}
set optking {
	frozen_dihedral = ("
		2 3 4 8
	")
}

ee,wfn = optimize('scf', return_wfn=True)
oeprop( wfn, 'DIPOLE', 'QUADRUPOLE', 'MULLIKEN_CHARGES')
f=open( 'psi4out.xyz', 'w' )
f.write( "18  " )
f.write( str(ee) + "\n" )
f.write( MOL.save_string_xyz() )
f.close()
--------------------------------------------------------------------------

    Molecular point group: c1
  Charge       = 0
  Multiplicity = 1
  Basis Set: CC-PVTZ
  Basis Set:
  @DF-RHF Final Energy:  -271.28445443469127
    Total Energy =                       -271.2844544346913835
    Molecular point group: c1
  Basis Set: CC-PVTZ
  Basis Set:
  Basis Set: CC-PVTZ
  Basis Set:
  @DF-RHF Final Energy:  -271.28486227836993
    Total Energy =                       -271.2848622783700989
  Basis Set: CC-PVTZ
  Basis Set:
  Basis Set: CC-PVTZ
  Basis Set:
  @DF-RHF Final Energy:  -271.28499074709180
    Total Energy =                       -271.2849907470915696
  Basis Set: CC-PVTZ
  Basis Set:
  Basis Set: CC-PVTZ
  Basis Set:
  @DF-RHF Final Energy:  -271.28499618555463
    Total Energy =                       -271.2849961855546326
  Basis Set: CC-PVTZ
  Basis Set:
  Charge       = 0
  Multiplicity = 1
  Basis Set: CC-PVTZ
  Basis Set:

    Orbital Energies (a.u.)
    -----------------------

    Doubly Occupied:

       1A    -20.546032     2A    -11.266375     3A    -11.210887
       4A    -11.208368     5A    -11.203769     6A    -11.201983
       7A     -1.364165     8A     -1.075423     9A     -1.009237
      10A     -0.914772    11A     -0.818073    12A     -0.784018
      13A     -0.704545    14A     -0.650901    15A     -0.621685
      16A     -0.583204    17A     -0.573500    18A     -0.555168
      19A     -0.522525    20A     -0.503695    21A     -0.489764
      22A     -0.466591    23A     -0.457654    24A     -0.445923
      25A     -0.432729

  @DF-RHF Final Energy:  -271.28499651996083

   => Energetics <=

    Nuclear Repulsion Energy =            249.7907124902170608
    One-Electron Energy =                -862.9294413101910095
    Two-Electron Energy =                 341.8537323000131778
    DFT Exchange-Correlation Energy =       0.0000000000000000
    Empirical Dispersion Energy =           0.0000000000000000
    PCM Polarization Energy =               0.0000000000000000
    EFP Energy =                            0.0000000000000000
    Total Energy =                       -271.2849965199607709
    Molecular point group: c1
  Basis Set: CC-PVTZ
  Basis Set:

  -Total Gradient:
     Atom            X                  Y                   Z
    ------   -----------------  -----------------  -----------------
       1        0.000000137891    -0.000012066704     0.000010283583
       2        0.001481881022    -0.000663975111     0.003485563050
       3       -0.002270334969     0.002058818953    -0.004458864648
       4        0.002232706271    -0.006153048795     0.000342745477
       5       -0.000009248172    -0.000025212004    -0.000003469449
       6       -0.000009120920    -0.000003880729    -0.000001693187
       7       -0.000024644802     0.000050907191    -0.000002278949
       8       -0.001431450375     0.004748149901     0.000601325951
       9        0.000014755853     0.000020374117     0.000006716702
      10        0.000020289047     0.000004143618     0.000034372063
      11       -0.000014889896    -0.000010067496    -0.000002132880
      12        0.000014324046    -0.000000414850    -0.000000735779
      13        0.000005475861    -0.000002528728    -0.000022832072
      14       -0.000007156490    -0.000006466706     0.000010843400
      15       -0.000001083706    -0.000002079473     0.000005508531
      16        0.000000463880    -0.000006603660     0.000002835227
      17        0.000001384879    -0.000004814978    -0.000006153805
      18       -0.000003489424     0.000008765454    -0.000002033214

  **** Optimization is complete! (in 5 steps) ****
    Final optimized geometry and variables:
    Molecular point group: c1

    Geometry (in Angstrom), charge = 0, multiplicity = 1:

    H           -3.051234743597    -1.316993777153     0.271657620999
    O           -2.199496826780    -1.030128840995    -0.000512877662
    C           -2.063919518693     0.349361611640     0.222271679474
    C           -0.702316945073     0.822296749104    -0.263138998924
    H           -2.846389907650     0.902219233646    -0.290173016513
    H           -2.158066219885     0.557429571458     1.286418451349
    C            0.465197742092    -0.065121133890     0.152600247173
    H           -0.726762130067     0.954942144516    -1.340880644347
    H           -0.554644802878     1.821641741295     0.141308169470
    C            1.816819365032     0.496423190441    -0.279536246951
    H            0.331754334947    -1.055303061511    -0.264763751032
    H            0.455004396801    -0.186447690860     1.233588995211
    C            2.988530495158    -0.391863668589     0.125147430291
    H            1.821960360902     0.627615366474    -1.358347847192
    H            1.952246685449     1.486692497424     0.147650561152
    H            2.899856957082    -1.379467174562    -0.314851608047
    H            3.933109561380     0.030959479668    -0.197897537333
    H            3.032372587046    -0.514717583929     1.202326708884

  Mulliken Charges: (a.u.)
   Center  Symbol    Alpha    Beta     Spin     Total
       1     H     0.39625  0.39625  0.00000  0.20750
       2     O     4.19677  4.19677  0.00000 -0.39354
       3     C     2.97355  2.97355  0.00000  0.05290
       4     C     3.09290  3.09290  0.00000 -0.18580
       5     H     0.46629  0.46629  0.00000  0.06743
       6     H     0.47336  0.47336  0.00000  0.05328
       7     C     3.08313  3.08313  0.00000 -0.16625
       8     H     0.45331  0.45331  0.00000  0.09339
       9     H     0.45729  0.45729  0.00000  0.08542
      10     C     3.08413  3.08413  0.00000 -0.16826
      11     H     0.44292  0.44292  0.00000  0.11415
      12     H     0.45840  0.45840  0.00000  0.08321
      13     C     3.14972  3.14972  0.00000 -0.29943
      14     H     0.45532  0.45532  0.00000  0.08936
      15     H     0.45677  0.45677  0.00000  0.08647
      16     H     0.45448  0.45448  0.00000  0.09105
      17     H     0.44962  0.44962  0.00000  0.10076
      18     H     0.45581  0.45581  0.00000  0.08837

   Total alpha = 25.00000, Total beta = 25.00000, Total charge = -0.00000

*** Psi4 exiting successfully. Buy a developer a beer!
