  ==> Input File <==

--------------------------------------------------------------------------
set {
	reference rhf
	basis 6-31G*
}

set_num_threads( 4 )
memory 2 gb

molecule MOL {
0 1

H	 2.591676	 2.013956	 0.335017
O	 3.341076	 1.666752	 -0.126416
C	 3.569581	 0.339145	 0.272707
C	 2.539767	 -0.640285	 -0.279495
H	 4.553106	 0.084646	 -0.100901
H	 3.608576	 0.269204	 1.359154
C	 1.115811	 -0.397273	 0.226630
H	 2.556196	 -0.582511	 -1.364741
H	 2.852081	 -1.648031	 -0.010655
C	 1.050547	 -0.220042	 1.746218
H	 0.484701	 -1.230784	 -0.068878
H	 0.707281	 0.491538	 -0.254472
C	 -0.341463	 0.111061	 2.296691
H	 1.422846	 -1.122240	 2.228172
H	 1.732261	 0.578593	 2.031085
C	 -1.376224	 -1.007676	 2.147775
H	 -0.242527	 0.353390	 3.352771
H	 -0.713645	 1.013335	 1.813764
C	 -2.716640	 -0.671184	 2.804658
H	 -0.981524	 -1.922610	 2.587340
H	 -1.545319	 -1.223475	 1.095568
C	 -3.753398	 -1.783599	 2.651920
H	 -2.558553	 -0.468360	 3.861710
H	 -3.107886	 0.248027	 2.373539
H	 -3.405051	 -2.708733	 3.102482
H	 -4.691105	 -1.516160	 3.129223
H	 -3.961388	 -1.985196	 1.604799

	symmetry c1
}
set optking {
	frozen_dihedral = ("
		10 7 4 8
	")
}

ee = optimize('scf')
oeprop('DIPOLE', 'QUADRUPOLE', 'MULLIKEN_CHARGES')
f=open( 'psi4out.xyz', 'w' )
f.write( "27  " )
f.write( str(ee) + "\n" )
f.write( MOL.save_string_xyz() )
f.close()
--------------------------------------------------------------------------

    Molecular point group: c1
  Charge       = 0
  Multiplicity = 1
  Basis Set: 6-31G*
  Basis Set:
  @DF-RHF Final Energy:  -388.27726500553473
    Total Energy =                       -388.2772650055346730
    Molecular point group: c1
  Basis Set: 6-31G*
  Basis Set:
  Basis Set: 6-31G*
  Basis Set:
  @DF-RHF Final Energy:  -388.27821760839424
    Total Energy =                       -388.2782176083936747
  Basis Set: 6-31G*
  Basis Set:
  Basis Set: 6-31G*
  Basis Set:
  @DF-RHF Final Energy:  -388.27896011823657
    Total Energy =                       -388.2789601182365686
  Basis Set: 6-31G*
  Basis Set:
  Basis Set: 6-31G*
  Basis Set:
  @DF-RHF Final Energy:  -388.27902781399365
    Total Energy =                       -388.2790278139933662
  Basis Set: 6-31G*
  Basis Set:
  Basis Set: 6-31G*
  Basis Set:
  @DF-RHF Final Energy:  -388.27893364037737
    Total Energy =                       -388.2789336403783409
  Basis Set: 6-31G*
  Basis Set:
  Basis Set: 6-31G*
  Basis Set:
  @DF-RHF Final Energy:  -388.27904846272509
    Total Energy =                       -388.2790484627249725
  Basis Set: 6-31G*
  Basis Set:
  Charge       = 0
  Multiplicity = 1
  Basis Set: 6-31G*
  Basis Set:

    Orbital Energies (a.u.)
    -----------------------

    Doubly Occupied:

       1A    -20.551819     2A    -11.265332     3A    -11.222160
       4A    -11.219772     5A    -11.218869     6A    -11.217332
       7A    -11.215953     8A    -11.215820     9A    -11.210308
      10A     -1.358337    11A     -1.096753    12A     -1.061462
      13A     -1.011613    14A     -0.947853    15A     -0.894027
      16A     -0.828352    17A     -0.798659    18A     -0.773918
      19A     -0.691767    20A     -0.650015    21A     -0.646190
      22A     -0.611281    23A     -0.600822    24A     -0.585951
      25A     -0.571653    26A     -0.566233    27A     -0.544549
      28A     -0.526278    29A     -0.513395    30A     -0.499080
      31A     -0.484579    32A     -0.473140    33A     -0.465464
      34A     -0.462277    35A     -0.454550    36A     -0.441629
      37A     -0.422849

  @DF-RHF Final Energy:  -388.27904875515179

   => Energetics <=

    Nuclear Repulsion Energy =            464.1543641469224326
    One-Electron Energy =               -1446.2267413429790395
    Two-Electron Energy =                 593.7933284409040198
    DFT Exchange-Correlation Energy =       0.0000000000000000
    Empirical Dispersion Energy =           0.0000000000000000
    PCM Polarization Energy =               0.0000000000000000
    EFP Energy =                            0.0000000000000000
    Total Energy =                       -388.2790487551525302
    Molecular point group: c1
  Basis Set: 6-31G*
  Basis Set:

  -Total Gradient:
     Atom            X                  Y                   Z
    ------   -----------------  -----------------  -----------------
       1        0.000017453992    -0.000033980462     0.000011532520
       2        0.000082004111     0.000034416915    -0.000065233744
       3       -0.000108326664     0.000076570251     0.000104324727
       4       -0.000928275035    -0.003002334923    -0.000438472228
       5       -0.000019611281     0.000060552445    -0.000009524666
       6        0.000029136077    -0.000041579344     0.000005100176
       7       -0.000494800731    -0.002774403506     0.000360564346
       8        0.000950549062     0.003267271749     0.000284621094
       9       -0.000045487606    -0.000022076925    -0.000027439246
      10        0.000561330714     0.002442012938    -0.000168879314
      11        0.000060945535     0.000003728974     0.000031380231
      12       -0.000033000582     0.000032763842    -0.000060637523
      13       -0.000027212192     0.000052494527    -0.000124541148
      14       -0.000011199705    -0.000018740797    -0.000006584893
      15        0.000001771711    -0.000027102260    -0.000027292290
      16       -0.000012428713    -0.000023496385     0.000095785968
      17        0.000014433032    -0.000017470544    -0.000044089863
      18       -0.000001112061     0.000042601747     0.000000620200
      19        0.000006780017    -0.000037279243     0.000023786347
      20        0.000016879769    -0.000008418438     0.000022662734
      21       -0.000042517003    -0.000012225808     0.000068627694
      22       -0.000024415873     0.000022289196    -0.000048715658
      23       -0.000002528474    -0.000039204227     0.000008264368
      24        0.000019274156     0.000016928243     0.000023870837
      25        0.000002895805     0.000020420258     0.000004937154
      26       -0.000008950024     0.000004546885    -0.000016110189
      27       -0.000003588043    -0.000018285110    -0.000008557634

  **** Optimization is complete! (in 7 steps) ****
    Final optimized geometry and variables:
    Molecular point group: c1

    Geometry (in Angstrom), charge = 0, multiplicity = 1:

    H            2.357828389718     2.236639166278    -0.901203927346
    O            3.064201789046     1.863095016311    -1.408278069223
    C            3.225358556118     0.508321166831    -1.071393343519
    C            2.080598869403    -0.368359400384    -1.573456198878
    H            4.146741090550     0.196682475376    -1.546334260437
    H            3.366552402097     0.394206637672     0.000505130801
    C            0.686078268697    -0.011967168737    -1.034900473418
    H            2.063938751755    -0.272142160956    -2.655337018462
    H            2.314391479385    -1.404430123668    -1.336772104116
    C            0.590851661796     0.138156986738     0.488049749888
    H           -0.007221673283    -0.774105822656    -1.375275989604
    H            0.354860778700     0.916270310104    -1.497495438085
    C           -0.824478229556     0.424012398805     1.007074167479
    H            0.975324123263    -0.759565465597     0.970217277721
    H            1.236749276454     0.950009730086     0.814243483985
    C           -1.805264488137    -0.745453295537     0.884108235245
    H           -0.754039545146     0.705745676852     2.055487828502
    H           -1.229412502836     1.291473763138     0.487939351701
    C           -3.173723533668    -0.441148075110     1.497634148297
    H           -1.380794317203    -1.621532682698     1.372414566680
    H           -1.941212899368    -1.013870093299    -0.160332114162
    C           -4.160201631786    -1.600519046367     1.362286039492
    H           -3.049976005344    -0.193891922514     2.549813102998
    H           -3.591409977364     0.444602699097     1.023600523039
    H           -3.786482211928    -2.492969745098     1.856358961321
    H           -5.119897215650    -1.354477078360     1.806128145181
    H           -4.332671418670    -1.849214273377     0.318901073265

  Mulliken Charges: (a.u.)
   Center  Symbol    Alpha    Beta     Spin     Total
       1     H     0.27907  0.27907  0.00000  0.44187
       2     O     4.37264  4.37264  0.00000 -0.74528
       3     C     3.00089  3.00089  0.00000 -0.00177
       4     C     3.16179  3.16179  0.00000 -0.32359
       5     H     0.41434  0.41434  0.00000  0.17132
       6     H     0.42877  0.42877  0.00000  0.14246
       7     C     3.16619  3.16619  0.00000 -0.33237
       8     H     0.41374  0.41374  0.00000  0.17252
       9     H     0.42395  0.42395  0.00000  0.15210
      10     C     3.15772  3.15772  0.00000 -0.31544
      11     H     0.41479  0.41479  0.00000  0.17043
      12     H     0.42203  0.42203  0.00000  0.15594
      13     C     3.15275  3.15275  0.00000 -0.30550
      14     H     0.42169  0.42169  0.00000  0.15663
      15     H     0.42749  0.42749  0.00000  0.14502
      16     C     3.15270  3.15270  0.00000 -0.30541
      17     H     0.42089  0.42089  0.00000  0.15821
      18     H     0.42391  0.42391  0.00000  0.15218
      19     C     3.15141  3.15141  0.00000 -0.30282
      20     H     0.42406  0.42406  0.00000  0.15189
      21     H     0.42181  0.42181  0.00000  0.15638
      22     C     3.23932  3.23932  0.00000 -0.47865
      23     H     0.42292  0.42292  0.00000  0.15416
      24     H     0.42276  0.42276  0.00000  0.15448
      25     H     0.42171  0.42171  0.00000  0.15658
      26     H     0.41897  0.41897  0.00000  0.16206
      27     H     0.42169  0.42169  0.00000  0.15662

   Total alpha = 37.00000, Total beta = 37.00000, Total charge =  0.00000
