                              Psi4 1.0.54 Driver

  ==> Input File <==

--------------------------------------------------------------------------
set {
	reference rhf
	basis cc-pvtz
}

set_num_threads( 4 )
memory 2 gb

molecule MOL {
0 1

H	 -3.486185	 0.594275	 1.743139
C	 -3.495977	 0.172835	 0.728655
C	 -2.653809	 0.914422	 -0.273689
O	 -4.144970	 -0.786650	 0.493061
C	 -1.216901	 1.136108	 0.207794
H	 -2.681633	 0.376247	 -1.212266
H	 -3.132030	 1.879313	 -0.427291
C	 -0.247837	 0.040196	 -0.230469
H	 -0.872882	 2.093195	 -0.169002
H	 -1.209325	 1.218376	 1.291938
C	 1.181757	 0.280428	 0.247371
H	 -0.259600	 -0.030819	 -1.314870
H	 -0.591284	 -0.923375	 0.136958
C	 2.151032	 -0.811012	 -0.202643
H	 1.515939	 1.247397	 -0.115449
H	 1.191514	 0.341223	 1.333422
C	 3.580021	 -0.656538	 0.320835
H	 2.170545	 -0.847575	 -1.289412
H	 1.766632	 -1.772905	 0.124928
C	 4.327657	 0.562694	 -0.213579
H	 4.138806	 -1.549270	 0.057813
H	 3.561991	 -0.620783	 1.406976
H	 4.355973	 0.557257	 -1.298551
H	 3.867136	 1.491650	 0.100501
H	 5.351524	 0.571613	 0.142204

	symmetry c1
}
set optking {
	frozen_dihedral = ("
		6 3 5 8
	")
}

ee,wfn = optimize('scf', return_wfn=True)
oeprop( wfn, 'DIPOLE', 'QUADRUPOLE', 'MULLIKEN_CHARGES')
f=open( 'psi4out.xyz', 'w' )
f.write( "25  " )
f.write( str(ee) + "\n" )
f.write( MOL.save_string_xyz() )
f.close()
--------------------------------------------------------------------------

    Molecular point group: c1
  Charge       = 0
  Multiplicity = 1
  Basis Set: CC-PVTZ
  Basis Set:
  @DF-RHF Final Energy:  -387.25836768840384
    Total Energy =                       -387.2583676884038368
    Molecular point group: c1
  Basis Set: CC-PVTZ
  Basis Set:
  Basis Set: CC-PVTZ
  Basis Set:
  @DF-RHF Final Energy:  -387.25847311023864
    Total Energy =                       -387.2584731102386968
  Basis Set: CC-PVTZ
  Basis Set:
  Basis Set: CC-PVTZ
  Basis Set:
  @DF-RHF Final Energy:  -387.25840934731207
    Total Energy =                       -387.2584093473116127
  Basis Set: CC-PVTZ
  Basis Set:
  Basis Set: CC-PVTZ
  Basis Set:
  @DF-RHF Final Energy:  -387.25861581889592
    Total Energy =                       -387.2586158188958052
  Basis Set: CC-PVTZ
  Basis Set:
  @DF-RHF Final Energy:  -387.25862665512381
    Total Energy =                       -387.2586266551236349
  Basis Set: CC-PVTZ
  Basis Set:
  @DF-RHF Final Energy:  -387.25863304457062
    Total Energy =                       -387.2586330445708427
  Basis Set: CC-PVTZ
  Basis Set:
  Basis Set: CC-PVTZ
  Basis Set:
  @DF-RHF Final Energy:  -387.25863375282341
    Total Energy =                       -387.2586337528236982
  Basis Set: CC-PVTZ
  Basis Set:
  Basis Set: CC-PVTZ
  Basis Set:
  @DF-RHF Final Energy:  -387.25863616859311
    Total Energy =                       -387.2586361685931706
  Basis Set: CC-PVTZ
  Basis Set:
  Charge       = 0
  Multiplicity = 1
  Basis Set: CC-PVTZ
  Basis Set:

    Orbital Energies (a.u.)
    -----------------------

    Doubly Occupied:

       1A    -20.551857     2A    -11.320828     3A    -11.233709
       4A    -11.233051     5A    -11.220999     6A    -11.216991
       7A    -11.215901     8A    -11.214649     9A    -11.208632
      10A     -1.406728    11A     -1.104296    12A     -1.070196
      13A     -1.014348    14A     -0.943904    15A     -0.875347
      16A     -0.815994    17A     -0.793004    18A     -0.780811
      19A     -0.671497    20A     -0.662748    21A     -0.634804
      22A     -0.625017    23A     -0.605473    24A     -0.589491
      25A     -0.576740    26A     -0.554258    27A     -0.532642
      28A     -0.526100    29A     -0.513239    30A     -0.496863
      31A     -0.489009    32A     -0.480553    33A     -0.464835
      34A     -0.458887    35A     -0.442578    36A     -0.411700

  @DF-RHF Final Energy:  -387.25863652030853

   => Energetics <=

    Nuclear Repulsion Energy =            438.2531693954756520
    One-Electron Energy =               -1393.1082581569921786
    Two-Electron Energy =                 567.5964522412078850
    DFT Exchange-Correlation Energy =       0.0000000000000000
    Empirical Dispersion Energy =           0.0000000000000000
    PCM Polarization Energy =               0.0000000000000000
    EFP Energy =                            0.0000000000000000
    Total Energy =                       -387.2586365203086416
    Molecular point group: c1
  Basis Set: CC-PVTZ
  Basis Set:

  -Total Gradient:
     Atom            X                  Y                   Z
    ------   -----------------  -----------------  -----------------
       1        0.000007987422     0.000004841531     0.000012126600
       2       -0.000009078674     0.000006420053    -0.000034439307
       3        0.000252542925     0.004336639129    -0.003264794580
       4       -0.000010061925    -0.000029160160     0.000008830528
       5       -0.000640703178    -0.002516349825     0.003556225648
       6       -0.000053562546    -0.003060527634     0.001912709336
       7       -0.000021221280     0.000005876044    -0.000002042092
       8        0.000464413332     0.001237438356    -0.002201919854
       9        0.000018141652     0.000003684243     0.000004676313
      10        0.000008070079     0.000001114402     0.000011160174
      11       -0.000008689618     0.000011860368    -0.000003222437
      12       -0.000006632611     0.000003422477    -0.000001240141
      13       -0.000004497870    -0.000005390091     0.000004237836
      14       -0.000003101045    -0.000001120359    -0.000001051693
      15        0.000003534011     0.000002534931     0.000000165553
      16       -0.000001377833     0.000001633801    -0.000000355083
      17        0.000001292898    -0.000000469117    -0.000001731927
      18        0.000001563641     0.000000331494    -0.000001363909
      19       -0.000000480928    -0.000002679440     0.000000585433
      20       -0.000002449969    -0.000000245143     0.000001462835
      21        0.000002103786     0.000000474788     0.000000635852
      22       -0.000001789411     0.000000559698     0.000001250897
      23       -0.000001111359     0.000000096104    -0.000004213311
      24        0.000000878975    -0.000000470606     0.000001196633
      25        0.000004229518    -0.000000515043     0.000001110697

  **** Optimization is complete! (in 9 steps) ****
    Final optimized geometry and variables:
    Molecular point group: c1

    Geometry (in Angstrom), charge = 0, multiplicity = 1:

    H           -3.459624082400     0.541524607929     1.622362839067
    C           -3.406770913014     0.063607166775     0.634866459521
    C           -2.632396312026     0.832520013861    -0.403142209515
    O           -3.932281919496    -0.979787981972     0.453989161366
    C           -1.183246668253     1.090017305669     0.044168869794
    H           -2.667785752079     0.257768867995    -1.318911191261
    H           -3.151540999225     1.774025029718    -0.555730013088
    C           -0.220836700344    -0.018927693986    -0.375616289372
    H           -0.842996824634     2.027215370599    -0.382271382993
    H           -1.149346761545     1.224186353772     1.122363042559
    C            1.207907015939     0.211705207852     0.108513019343
    H           -0.227691066300    -0.095497779391    -1.459332338196
    H           -0.579409919261    -0.974745743821    -0.002274217336
    C            2.171290087939    -0.886221420373    -0.338558921691
    H            1.550754587980     1.176762122025    -0.251792798596
    H            1.213475317008     0.271018967775     1.194605626567
    C            3.598073297839    -0.744916348722     0.194441165860
    H            2.197696587850    -0.919665408914    -1.425350190784
    H            1.776869885557    -1.845790781202    -0.016235256366
    C            4.358388939368     0.470621337169    -0.330419765024
    H            4.151636084565    -1.640929113347    -0.068539628931
    H            3.573321361813    -0.713255796804     1.280543707064
    H            4.392610065923     0.469766618783    -1.415262966327
    H            3.903607224823     1.401849947748    -0.014693658213
    H            5.380347816233     0.469732394051     0.030958713558

  Mulliken Charges: (a.u.)
   Center  Symbol    Alpha    Beta     Spin     Total
       1     H     0.46606  0.46606  0.00000  0.06787
       2     C     2.90344  2.90344  0.00000  0.19313
       3     C     3.08958  3.08958  0.00000 -0.17915
       4     O     4.16553  4.16553  0.00000 -0.33107
       5     C     3.11337  3.11337  0.00000 -0.22673
       6     H     0.44404  0.44404  0.00000  0.11193
       7     H     0.43954  0.43954  0.00000  0.12091
       8     C     3.08780  3.08780  0.00000 -0.17560
       9     H     0.44396  0.44396  0.00000  0.11208
      10     H     0.45212  0.45212  0.00000  0.09577
      11     C     3.09335  3.09335  0.00000 -0.18670
      12     H     0.45104  0.45104  0.00000  0.09792
      13     H     0.44670  0.44670  0.00000  0.10659
      14     C     3.09562  3.09562  0.00000 -0.19123
      15     H     0.45243  0.45243  0.00000  0.09515
      16     H     0.45384  0.45384  0.00000  0.09233
      17     C     3.09057  3.09057  0.00000 -0.18114
      18     H     0.45344  0.45344  0.00000  0.09312
      19     H     0.44771  0.44771  0.00000  0.10458
      20     C     3.15270  3.15270  0.00000 -0.30539
      21     H     0.44772  0.44772  0.00000  0.10456
      22     H     0.45452  0.45452  0.00000  0.09096
      23     H     0.45470  0.45470  0.00000  0.09060
      24     H     0.45436  0.45436  0.00000  0.09129
      25     H     0.44589  0.44589  0.00000  0.10822

   Total alpha = 36.00000, Total beta = 36.00000, Total charge = -0.00000

*** Psi4 exiting successfully. Buy a developer a beer!
