                              Psi4 1.0.54 Driver

  ==> Input File <==

--------------------------------------------------------------------------
set {
	reference rhf
	basis cc-pvtz
}

set_num_threads( 4 )
memory 2 gb

molecule MOL {
0 1

O	 -2.741285	 0.316358	 -0.027106
C	 -2.067019	 -0.414667	 0.622816
C	 -0.836998	 -1.075548	 0.032618
C	 -2.385313	 -0.708978	 2.069481
C	 0.376695	 -0.140025	 0.100361
H	 -1.056123	 -1.312004	 -1.000911
H	 -0.619293	 -2.000661	 0.555720
C	 1.630207	 -0.772146	 -0.501001
H	 0.127940	 0.777036	 -0.418627
H	 0.574520	 0.129366	 1.135056
C	 2.907848	 -0.545876	 0.309149
H	 1.772784	 -0.391628	 -1.509394
H	 1.468529	 -1.842059	 -0.599744
C	 3.373802	 0.906639	 0.372125
H	 3.699140	 -1.146831	 -0.127906
H	 2.764321	 -0.923458	 1.318191
H	 3.519798	 1.311927	 -0.623875
H	 4.316899	 0.983758	 0.900700
H	 2.661122	 1.540651	 0.885346
H	 -2.685217	 -1.747733	 2.164579
H	 -3.185080	 -0.070418	 2.411800
H	 -1.507261	 -0.571147	 2.690462

	symmetry c1
}
set optking {
	frozen_dihedral = ("
		3 5 8 12
	")
}

ee,wfn = optimize('scf', return_wfn=True)
oeprop( wfn, 'DIPOLE', 'QUADRUPOLE', 'MULLIKEN_CHARGES')
f=open( 'psi4out.xyz', 'w' )
f.write( "22  " )
f.write( str(ee) + "\n" )
f.write( MOL.save_string_xyz() )
f.close()
--------------------------------------------------------------------------

    Molecular point group: c1
  Charge       = 0
  Multiplicity = 1
  Basis Set: CC-PVTZ
  Basis Set:
  @DF-RHF Final Energy:  -348.21927223361575
    Total Energy =                       -348.2192722336155839
    Molecular point group: c1
  Basis Set: CC-PVTZ
  Basis Set:
  Basis Set: CC-PVTZ
  Basis Set:
  @DF-RHF Final Energy:  -348.21952032774789
    Total Energy =                       -348.2195203277476594
  Basis Set: CC-PVTZ
  Basis Set:
  Basis Set: CC-PVTZ
  Basis Set:
  @DF-RHF Final Energy:  -348.21965980932271
    Total Energy =                       -348.2196598093225930
  Basis Set: CC-PVTZ
  Basis Set:
  Basis Set: CC-PVTZ
  Basis Set:
  @DF-RHF Final Energy:  -348.21964157527663
    Total Energy =                       -348.2196415752766825
  Basis Set: CC-PVTZ
  Basis Set:
  @DF-RHF Final Energy:  -348.21961826095077
    Total Energy =                       -348.2196182609506536
  Basis Set: CC-PVTZ
  Basis Set:
  @DF-RHF Final Energy:  -348.21966582885909
    Total Energy =                       -348.2196658288588651
  Basis Set: CC-PVTZ
  Basis Set:
  Basis Set: CC-PVTZ
  Basis Set:
  @DF-RHF Final Energy:  -348.21966296971488
    Total Energy =                       -348.2196629697148182
  Basis Set: CC-PVTZ
  Basis Set:
  Basis Set: CC-PVTZ
  Basis Set:
  @DF-RHF Final Energy:  -348.21966815155048
    Total Energy =                       -348.2196681515503656
  Basis Set: CC-PVTZ
  Basis Set:
  Charge       = 0
  Multiplicity = 1
  Basis Set: CC-PVTZ
  Basis Set:

    Orbital Energies (a.u.)
    -----------------------

    Doubly Occupied:

       1A    -20.536763     2A    -11.319124     3A    -11.228350
       4A    -11.227753     5A    -11.226957     6A    -11.220520
       7A    -11.219713     8A    -11.210861     9A     -1.396908
      10A     -1.096474    11A     -1.046287    12A     -0.999976
      13A     -0.938200    14A     -0.860025    15A     -0.787056
      16A     -0.735633    17A     -0.664359    18A     -0.646555
      19A     -0.629016    20A     -0.618643    21A     -0.596611
      22A     -0.591500    23A     -0.560815    24A     -0.541876
      25A     -0.534220    26A     -0.526004    27A     -0.497994
      28A     -0.492008    29A     -0.469413    30A     -0.466993
      31A     -0.459996    32A     -0.398365

  @DF-RHF Final Energy:  -348.21966824069648

   => Energetics <=

    Nuclear Repulsion Energy =            373.9182878974125970
    One-Electron Energy =               -1212.7859752659630885
    Two-Electron Energy =                 490.6480191278543543
    DFT Exchange-Correlation Energy =       0.0000000000000000
    Empirical Dispersion Energy =           0.0000000000000000
    PCM Polarization Energy =               0.0000000000000000
    EFP Energy =                            0.0000000000000000
    Total Energy =                       -348.2196682406961372
    Molecular point group: c1
  Basis Set: CC-PVTZ
  Basis Set:

  -Total Gradient:
     Atom            X                  Y                   Z
    ------   -----------------  -----------------  -----------------
       1        0.000060362298    -0.000093143582     0.000071799073
       2       -0.000035613903     0.000081698584    -0.000041641653
       3        0.000618005771    -0.001071812442     0.002374832797
       4        0.000006048599     0.000024154337    -0.000001043079
       5       -0.000412111185     0.002114689206    -0.002953643989
       6        0.000003183356     0.000017785795     0.000029236949
       7        0.000008405772     0.000018091412    -0.000017448326
       8       -0.002332385030    -0.003814876936    -0.000785958234
       9       -0.000026430237    -0.000005325504    -0.000002991869
      10       -0.000017015187     0.000011507766    -0.000003141365
      11        0.000030817377    -0.000015368231    -0.000034790972
      12        0.002110714216     0.002750348157     0.001434204551
      13        0.000029153905    -0.000006083474    -0.000019396496
      14       -0.000029671675     0.000006288829    -0.000034916108
      15       -0.000014602254    -0.000000242791     0.000031664106
      16       -0.000023809424     0.000034981120    -0.000055858443
      17       -0.000012523418    -0.000025659024     0.000050457427
      18        0.000019144485     0.000007140414     0.000000157554
      19        0.000026617074    -0.000010053977    -0.000008043258
      20       -0.000002979208     0.000000805690     0.000004974105
      21        0.000028469326    -0.000021795998    -0.000012932554
      22       -0.000033780656    -0.000003129350    -0.000025520213

  **** Optimization is complete! (in 9 steps) ****
    Final optimized geometry and variables:
    Molecular point group: c1

    Geometry (in Angstrom), charge = 0, multiplicity = 1:

    O           -2.762734799126     0.637238990370    -0.394574079272
    C           -2.103231925996    -0.110115407835     0.251672573974
    C           -0.880784473118    -0.784867431839    -0.338654452562
    C           -2.434552754925    -0.414188163484     1.693300747885
    C            0.348850768687     0.129440904124    -0.259064886701
    H           -1.101426482588    -1.014342096301    -1.373794387559
    H           -0.674929589905    -1.714637200075     0.180442151687
    C            1.602368188466    -0.505384285109    -0.888753280493
    H            0.116297556881     1.073053172229    -0.735405505985
    H            0.544955416493     0.353178224850     0.785837438142
    C            2.889345502887    -0.262427277648    -0.097231621704
    H            1.745784078476    -0.103407265152    -1.887086979542
    H            1.457466154358    -1.574844336349    -0.995382028096
    C            3.312780961045     1.202690639118    -0.037050744839
    H            3.689356125355    -0.841000471321    -0.548595724105
    H            2.768021580630    -0.646964126767     0.912197424564
    H            3.473554699172     1.600463124943    -1.033666832238
    H            4.237309639994     1.316704749985     0.517002749519
    H            2.563969802133     1.819747640117     0.446112415391
    H           -2.752334489704    -1.448739444661     1.775426664064
    H           -3.225685907829     0.233827487464     2.037703003505
    H           -1.558244954026    -0.297671147217     2.320974406430

  Mulliken Charges: (a.u.)
   Center  Symbol    Alpha    Beta     Spin     Total
       1     O     4.17742  4.17742  0.00000 -0.35485
       2     C     2.85919  2.85919  0.00000  0.28163
       3     C     3.09755  3.09755  0.00000 -0.19509
       4     C     3.15561  3.15561  0.00000 -0.31122
       5     C     3.10806  3.10806  0.00000 -0.21612
       6     H     0.43868  0.43868  0.00000  0.12265
       7     H     0.44915  0.44915  0.00000  0.10170
       8     C     3.09770  3.09770  0.00000 -0.19541
       9     H     0.43553  0.43553  0.00000  0.12895
      10     H     0.45189  0.45189  0.00000  0.09623
      11     C     3.09073  3.09073  0.00000 -0.18146
      12     H     0.44825  0.44825  0.00000  0.10350
      13     H     0.44762  0.44762  0.00000  0.10477
      14     C     3.14969  3.14969  0.00000 -0.29938
      15     H     0.44792  0.44792  0.00000  0.10416
      16     H     0.45617  0.45617  0.00000  0.08765
      17     H     0.45354  0.45354  0.00000  0.09293
      18     H     0.44677  0.44677  0.00000  0.10646
      19     H     0.45327  0.45327  0.00000  0.09347
      20     H     0.44831  0.44831  0.00000  0.10338
      21     H     0.43597  0.43597  0.00000  0.12806
      22     H     0.45100  0.45100  0.00000  0.09801

   Total alpha = 32.00000, Total beta = 32.00000, Total charge = -0.00000

*** Psi4 exiting successfully. Buy a developer a beer!
