  ==> Input File <==

--------------------------------------------------------------------------
set {
	reference rhf
	basis 6-31G*
}

set_num_threads( 4 )
memory 2 gb

molecule MOL {
0 1

O	 -2.042549	 -1.228399	 -0.269030
C	 -1.653912	 -0.146171	 0.050137
C	 -0.332303	 0.024011	 0.778412
C	 -2.438579	 1.106236	 -0.272369
C	 0.845713	 -0.001731	 -0.208243
H	 -0.323783	 0.953829	 1.340327
H	 -0.235459	 -0.796807	 1.480410
C	 2.201152	 0.119568	 0.489685
H	 0.739947	 0.807385	 -0.928817
H	 0.804264	 -0.928447	 -0.772707
C	 3.374828	 0.085241	 -0.488329
H	 2.232459	 1.045130	 1.060457
H	 2.306283	 -0.688507	 1.209776
H	 3.316036	 0.902715	 -1.201304
H	 3.388653	 -0.843597	 -1.050924
H	 4.322300	 0.169993	 0.034299
H	 -3.277823	 0.863061	 -0.908988
H	 -1.806773	 1.843019	 -0.759671
H	 -2.802853	 1.554979	 0.648059

	symmetry c1
}
set optking {
	frozen_dihedral = ("
		9 5 3 2
	")
}

ee = optimize('scf')
oeprop('DIPOLE', 'QUADRUPOLE', 'MULLIKEN_CHARGES')
f=open( 'psi4out.xyz', 'w' )
f.write( "19  " )
f.write( str(ee) + "\n" )
f.write( MOL.save_string_xyz() )
f.close()
--------------------------------------------------------------------------

    Molecular point group: c1
  Charge       = 0
  Multiplicity = 1
  Basis Set: 6-31G*
  Basis Set:
  @DF-RHF Final Energy:  -309.06516079759382
    Total Energy =                       -309.0651607975942170
    Molecular point group: c1
  Basis Set: 6-31G*
  Basis Set:
  Charge       = 0
  Multiplicity = 1
  Basis Set: 6-31G*
  Basis Set:

    Orbital Energies (a.u.)
    -----------------------

    Doubly Occupied:

       1A    -20.547564     2A    -11.324675     3A    -11.230542
       4A    -11.229436     5A    -11.228312     6A    -11.224791
       7A    -11.214885     8A     -1.393320     9A     -1.091343
      10A     -1.029284    11A     -0.983849    12A     -0.889911
      13A     -0.806706    14A     -0.733277    15A     -0.663651
      16A     -0.645286    17A     -0.622661    18A     -0.613107
      19A     -0.582343    20A     -0.573146    21A     -0.552952
      22A     -0.537133    23A     -0.513092    24A     -0.499217
      25A     -0.482247    26A     -0.475801    27A     -0.467233
      28A     -0.396900

  @DF-RHF Final Energy:  -309.06516090761670

   => Energetics <=

    Nuclear Repulsion Energy =            301.2219902195332679
    One-Electron Energy =               -1015.4689782384220962
    Two-Electron Energy =                 405.1818271112720709
    DFT Exchange-Correlation Energy =       0.0000000000000000
    Empirical Dispersion Energy =           0.0000000000000000
    PCM Polarization Energy =               0.0000000000000000
    EFP Energy =                            0.0000000000000000
    Total Energy =                       -309.0651609076167574
    Molecular point group: c1
  Basis Set: 6-31G*
  Basis Set:

  -Total Gradient:
     Atom            X                  Y                   Z
    ------   -----------------  -----------------  -----------------
       1       -0.000019594706    -0.000000321754     0.000003392688
       2        0.000036744851    -0.000130941716    -0.000008016492
       3       -0.000005258338     0.000247200553     0.000013808090
       4        0.000003407734     0.000006401085     0.000005028433
       5       -0.000071692127    -0.000224755514    -0.000084071728
       6       -0.000002562109     0.000005221866     0.000038003483
       7        0.000002938735     0.000005188507    -0.000028080617
       8       -0.000026548322     0.000015456787    -0.000023875849
       9        0.000085383549     0.000097280681     0.000104061174
      10        0.000014950429    -0.000032479279    -0.000015100746
      11       -0.000001367476     0.000014967643    -0.000006094184
      12       -0.000000195325    -0.000002066513     0.000012788655
      13       -0.000009697667    -0.000003808162    -0.000016207705
      14        0.000001097451    -0.000000194605    -0.000004134045
      15       -0.000002391368     0.000000248032     0.000005835363
      16       -0.000001195395     0.000004834321     0.000001181274
      17        0.000000654424    -0.000001275799     0.000000307988
      18       -0.000002550740    -0.000000426984     0.000001490078
      19       -0.000002123592    -0.000000529147    -0.000000315862

  **** Optimization is complete! (in 2 steps) ****
    Final optimized geometry and variables:
    Molecular point group: c1

    Geometry (in Angstrom), charge = 0, multiplicity = 1:

    O           -2.043977544957    -1.222923044444    -0.268286153055
    C           -1.654278403451    -0.140788931998     0.049883924651
    C           -0.332310049142     0.028701752560     0.777707655857
    C           -2.438026824969     1.112036115355    -0.273244012775
    C            0.845695220687     0.000143410348    -0.208904047400
    H           -0.322231452704     0.958642954379     1.339390363916
    H           -0.236734012658    -0.792074414035     1.479917600675
    C            2.200936116745     0.123044645810     0.489121689398
    H            0.740638682557     0.808518161721    -0.930404350551
    H            0.804552608657    -0.927751946887    -0.771477451350
    C            3.374628709253     0.091998560309    -0.488976824898
    H            2.230644336269     1.047957778101     1.061052767152
    H            2.307464448077    -0.685740231939     1.208174223290
    H            3.314081020797     0.909923566559    -1.201307554050
    H            3.390387534068    -0.836373345295    -1.052286662815
    H            4.321939497395     0.178342085533     0.033691962857
    H           -3.277853542819     0.869099490807    -0.909188085856
    H           -1.805807811435     1.847815845434    -0.761536107777
    H           -2.801381599929     1.561905374635     0.647007540673

  Mulliken Charges: (a.u.)
   Center  Symbol    Alpha    Beta     Spin     Total
       1     O     4.26202  4.26202  0.00000 -0.52404
       2     C     2.73727  2.73727  0.00000  0.52547
       3     C     3.20014  3.20014  0.00000 -0.40028
       4     C     3.28955  3.28955  0.00000 -0.57909
       5     C     3.16104  3.16104  0.00000 -0.32208
       6     H     0.41681  0.41681  0.00000  0.16639
       7     H     0.40106  0.40106  0.00000  0.19788
       8     C     3.15178  3.15178  0.00000 -0.30356
       9     H     0.42103  0.42103  0.00000  0.15794
      10     H     0.40637  0.40637  0.00000  0.18726
      11     C     3.24034  3.24034  0.00000 -0.48068
      12     H     0.42240  0.42240  0.00000  0.15519
      13     H     0.41915  0.41915  0.00000  0.16170
      14     H     0.42120  0.42120  0.00000  0.15759
      15     H     0.41881  0.41881  0.00000  0.16238
      16     H     0.41743  0.41743  0.00000  0.16514
      17     H     0.39701  0.39701  0.00000  0.20598
      18     H     0.40984  0.40984  0.00000  0.18032
      19     H     0.40675  0.40675  0.00000  0.18650

   Total alpha = 28.00000, Total beta = 28.00000, Total charge = -0.00000
