                              Psi4 1.0.54 Driver

  ==> Input File <==

--------------------------------------------------------------------------
set {
	reference rhf
	basis cc-pvtz
}

set_num_threads( 4 )
memory 2 gb

molecule MOL {
0 1

H	 2.614283	 2.028610	 0.296620
O	 3.358864	 1.662087	 -0.142800
C	 3.565468	 0.338079	 0.273842
C	 2.533667	 -0.637565	 -0.272227
H	 4.548038	 0.064914	 -0.086598
H	 3.593945	 0.282242	 1.360360
C	 2.880190	 -1.215034	 -1.642738
H	 2.408435	 -1.444404	 0.443655
H	 1.580631	 -0.117381	 -0.331638
C	 1.806405	 -2.164075	 -2.172967
H	 3.827841	 -1.739655	 -1.581636
H	 3.018323	 -0.400829	 -2.352158
C	 2.066660	 -2.715195	 -3.576103
H	 1.687589	 -2.992254	 -1.478540
H	 0.855410	 -1.638715	 -2.181564
C	 3.262277	 -3.659457	 -3.688403
H	 1.176571	 -3.244492	 -3.904912
H	 2.196831	 -1.886338	 -4.268350
C	 3.420573	 -4.259508	 -5.083140
H	 3.152536	 -4.463487	 -2.963862
H	 4.177215	 -3.136685	 -3.426488
C	 4.615575	 -5.199860	 -5.199760
H	 2.513521	 -4.795911	 -5.347914
H	 3.521841	 -3.457296	 -5.809269
H	 4.528300	 -6.031249	 -4.508087
H	 4.697162	 -5.609650	 -6.200022
H	 5.543658	 -4.683413	 -4.977733

	symmetry c1
}
set optking {
	frozen_dihedral = ("
		8 4 3 2
	")
}

ee,wfn = optimize('scf', return_wfn=True)
oeprop( wfn, 'DIPOLE', 'QUADRUPOLE', 'MULLIKEN_CHARGES')
f=open( 'psi4out.xyz', 'w' )
f.write( "27  " )
f.write( str(ee) + "\n" )
f.write( MOL.save_string_xyz() )
f.close()
--------------------------------------------------------------------------

    Molecular point group: c1
  Charge       = 0
  Multiplicity = 1
  Basis Set: CC-PVTZ
  Basis Set:
  @DF-RHF Final Energy:  -388.42525844873660
    Total Energy =                       -388.4252584487364857
    Molecular point group: c1
  Basis Set: CC-PVTZ
  Basis Set:
  Basis Set: CC-PVTZ
  Basis Set:
  @DF-RHF Final Energy:  -388.42564645322443
    Total Energy =                       -388.4256464532242035
  Basis Set: CC-PVTZ
  Basis Set:
  Basis Set: CC-PVTZ
  Basis Set:
  @DF-RHF Final Energy:  -388.42569976174514
    Total Energy =                       -388.4256997617450224
  Basis Set: CC-PVTZ
  Basis Set:
  Basis Set: CC-PVTZ
  Basis Set:
  @DF-RHF Final Energy:  -388.42570387542492
    Total Energy =                       -388.4257038754244604
  Basis Set: CC-PVTZ
  Basis Set:
  Charge       = 0
  Multiplicity = 1
  Basis Set: CC-PVTZ
  Basis Set:

    Orbital Energies (a.u.)
    -----------------------

    Doubly Occupied:

       1A    -20.545008     2A    -11.265246     3A    -11.215067
       4A    -11.211775     5A    -11.211513     6A    -11.210922
       7A    -11.210266     8A    -11.209071     9A    -11.205306
      10A     -1.363097    11A     -1.093421    12A     -1.060496
      13A     -1.010432    14A     -0.945474    15A     -0.884292
      16A     -0.823607    17A     -0.803166    18A     -0.776384
      19A     -0.683686    20A     -0.650874    21A     -0.637799
      22A     -0.613308    23A     -0.609182    24A     -0.583905
      25A     -0.574424    26A     -0.557652    27A     -0.536963
      28A     -0.520785    29A     -0.512605    30A     -0.490147
      31A     -0.480246    32A     -0.475707    33A     -0.464822
      34A     -0.458709    35A     -0.454997    36A     -0.441802
      37A     -0.420490

  @DF-RHF Final Energy:  -388.42570416567435

   => Energetics <=

    Nuclear Repulsion Energy =            457.0900882145305104
    One-Electron Energy =               -1432.6062960336921606
    Two-Electron Energy =                 587.0905036534873034
    DFT Exchange-Correlation Energy =       0.0000000000000000
    Empirical Dispersion Energy =           0.0000000000000000
    PCM Polarization Energy =               0.0000000000000000
    EFP Energy =                            0.0000000000000000
    Total Energy =                       -388.4257041656743468
    Molecular point group: c1
  Basis Set: CC-PVTZ
  Basis Set:

  -Total Gradient:
     Atom            X                  Y                   Z
    ------   -----------------  -----------------  -----------------
       1       -0.000082378601     0.000079614467    -0.000004368269
       2       -0.002198540183     0.000597055120     0.003163259187
       3        0.002285700660    -0.000503509112    -0.003761009608
       4        0.003709626529    -0.002871688101    -0.001606494135
       5        0.000003388473     0.000009792894    -0.000017486538
       6       -0.000023565228     0.000113554978     0.000006436272
       7       -0.000059522289     0.000003469726     0.000086723318
       8       -0.003541598114     0.002494448136     0.002134727491
       9       -0.000094170969     0.000041518392    -0.000019064248
      10        0.000020326790     0.000014807197    -0.000018178002
      11        0.000014981413    -0.000029139940    -0.000004855380
      12       -0.000023884380     0.000039693320     0.000012858635
      13       -0.000023330166    -0.000051894613    -0.000000765046
      14       -0.000011516452     0.000020780735    -0.000015627125
      15        0.000011355468     0.000008400247    -0.000004836601
      16       -0.000002179211     0.000000129309     0.000013059424
      17        0.000002409702    -0.000012255986     0.000000450432
      18       -0.000014245930     0.000002604605     0.000005449687
      19        0.000009504308     0.000008825923    -0.000005529931
      20       -0.000001508224     0.000004580294    -0.000006630166
      21        0.000026620447     0.000024733172     0.000036904961
      22       -0.000007709487     0.000001488039     0.000006497662
      23       -0.000001085321    -0.000000749488     0.000002569484
      24       -0.000001429167     0.000005715794    -0.000006497395
      25        0.000002207112    -0.000005088425     0.000002979664
      26       -0.000002329093     0.000001813778    -0.000000355905
      27        0.000002871915     0.000001299542    -0.000000217867

  **** Optimization is complete! (in 5 steps) ****
    Final optimized geometry and variables:
    Molecular point group: c1

    Geometry (in Angstrom), charge = 0, multiplicity = 1:

    H           -0.529595521258     3.855003666497     2.543566309792
    O            0.295647321810     3.543435493159     2.219845063516
    C            0.513618591277     2.230741446187     2.667103305676
    C           -0.512670857563     1.236378407023     2.127487424616
    H            1.511714592004     1.964747289124     2.345078863396
    H            0.510791229912     2.210074013441     3.753883750011
    C           -0.177762831835     0.684295766737     0.746227930046
    H           -0.650462607098     0.434290959996     2.847618991797
    H           -1.475446404641     1.743229093879     2.087558523417
    C           -1.266320212173    -0.228690086204     0.186166419108
    H            0.764254653012     0.148430669498     0.804848064420
    H           -0.017953413455     1.516412091112     0.066088636231
    C           -1.006860485014    -0.747885850639    -1.229298501762
    H           -1.408458298948    -1.073173593955     0.857056322616
    H           -2.206619269685     0.315942123200     0.184098369387
    C            0.176811787391    -1.704686647016    -1.359328762352
    H           -1.902051655371    -1.256497964761    -1.576625371587
    H           -0.861007249833     0.096929856933    -1.898343433746
    C            0.337873084276    -2.267530130276    -2.769096663119
    H            0.050493915864    -2.527499654671    -0.658751819827
    H            1.096071780720    -1.201442871890    -1.075985509337
    C            1.521090886472    -3.220279116482    -2.903376649605
    H           -0.574141664988    -2.783921660543    -3.055905784764
    H            0.455756655426    -1.446610196116    -3.471249340288
    H            1.417000770851    -4.070046993795    -2.236722931116
    H            1.605611460820    -3.602270765314    -3.914345469361
    H            2.453950503499    -2.722944536404    -2.659141138783

  Mulliken Charges: (a.u.)
   Center  Symbol    Alpha    Beta     Spin     Total
       1     H     0.39498  0.39498  0.00000  0.21005
       2     O     4.20496  4.20496  0.00000 -0.40991
       3     C     2.97207  2.97207  0.00000  0.05587
       4     C     3.09388  3.09388  0.00000 -0.18777
       5     H     0.45999  0.45999  0.00000  0.08003
       6     H     0.46377  0.46377  0.00000  0.07245
       7     C     3.09431  3.09431  0.00000 -0.18863
       8     H     0.45280  0.45280  0.00000  0.09440
       9     H     0.46264  0.46264  0.00000  0.07473
      10     C     3.10007  3.10007  0.00000 -0.20013
      11     H     0.45262  0.45262  0.00000  0.09476
      12     H     0.44709  0.44709  0.00000  0.10581
      13     C     3.09746  3.09746  0.00000 -0.19491
      14     H     0.45454  0.45454  0.00000  0.09092
      15     H     0.44810  0.44810  0.00000  0.10380
      16     C     3.08813  3.08813  0.00000 -0.17627
      17     H     0.44889  0.44889  0.00000  0.10222
      18     H     0.45303  0.45303  0.00000  0.09393
      19     C     3.08395  3.08395  0.00000 -0.16790
      20     H     0.45568  0.45568  0.00000  0.08864
      21     H     0.45326  0.45326  0.00000  0.09348
      22     C     3.14977  3.14977  0.00000 -0.29954
      23     H     0.45432  0.45432  0.00000  0.09136
      24     H     0.45429  0.45429  0.00000  0.09142
      25     H     0.45555  0.45555  0.00000  0.08891
      26     H     0.44853  0.44853  0.00000  0.10294
      27     H     0.45532  0.45532  0.00000  0.08936

   Total alpha = 37.00000, Total beta = 37.00000, Total charge =  0.00000

*** Psi4 exiting successfully. Buy a developer a beer!
