  ==> Input File <==

--------------------------------------------------------------------------
set {
	reference rhf
	basis 6-31G*
}

set_num_threads( 4 )
memory 2 gb

molecule MOL {
0 1

O	 -0.988096	 -1.408613	 0.050699
C	 -0.676749	 -0.249230	 -0.009274
C	 -1.746085	 0.827156	 -0.009539
N	 0.623947	 0.147590	 -0.102813
H	 -1.701500	 1.431508	 -0.908902
H	 -2.703425	 0.330732	 0.036390
H	 -1.647323	 1.487769	 0.845106
C	 1.580804	 -0.378012	 0.851149
C	 1.066126	 1.304484	 -0.850020
H	 2.524176	 -0.565784	 0.350342
H	 1.206397	 -1.298308	 1.264448
H	 1.757455	 0.325418	 1.661952
H	 2.064824	 1.121409	 -1.228338
H	 0.427123	 1.498220	 -1.696824
H	 1.100819	 2.199086	 -0.230911

	symmetry c1
}
set optking {
	frozen_dihedral = ("
		8 4 2 3
	")
}

ee = optimize('scf')
oeprop('DIPOLE', 'QUADRUPOLE', 'MULLIKEN_CHARGES')
f=open( 'psi4out.xyz', 'w' )
f.write( "15  " )
f.write( str(ee) + "\n" )
f.write( MOL.save_string_xyz() )
f.close()
--------------------------------------------------------------------------

    Molecular point group: c1
  Charge       = 0
  Multiplicity = 1
  Basis Set: 6-31G*
  Basis Set:
  @DF-RHF Final Energy:  -286.01317296208583
    Total Energy =                       -286.0131729620861165
    Molecular point group: c1
  Basis Set: 6-31G*
  Basis Set:
  Basis Set: 6-31G*
  Basis Set:
  @DF-RHF Final Energy:  -286.01720929475346
    Total Energy =                       -286.0172092947534566
  Basis Set: 6-31G*
  Basis Set:
  Basis Set: 6-31G*
  Basis Set:
  @DF-RHF Final Energy:  -286.01909535652828
    Total Energy =                       -286.0190953565283962
  Basis Set: 6-31G*
  Basis Set:
  Basis Set: 6-31G*
  Basis Set:
  @DF-RHF Final Energy:  -286.01952880001465
    Total Energy =                       -286.0195288000147684
  Basis Set: 6-31G*
  Basis Set:
  @DF-RHF Final Energy:  -286.01970735579778
    Total Energy =                       -286.0197073557979479
  @DF-RHF Final Energy:  -286.01973466661843
    Total Energy =                       -286.0197346666186604
  Basis Set: 6-31G*
  Basis Set:
  @DF-RHF Final Energy:  -286.01973876295278
    Total Energy =                       -286.0197387629527839
  Basis Set: 6-31G*
  Basis Set:
  Basis Set: 6-31G*
  Basis Set:
  @DF-RHF Final Energy:  -286.01973772536701
    Total Energy =                       -286.0197377253670084
  Basis Set: 6-31G*
  Basis Set:
  Basis Set: 6-31G*
  Basis Set:
  @DF-RHF Final Energy:  -286.01973852412840
    Total Energy =                       -286.0197385241286270
  Basis Set: 6-31G*
  Basis Set:
  Charge       = 0
  Multiplicity = 1
  Basis Set: 6-31G*
  Basis Set:

    Orbital Energies (a.u.)
    -----------------------

    Doubly Occupied:

       1A    -20.526658     2A    -15.577197     3A    -11.345453
       4A    -11.261844     5A    -11.252119     6A    -11.231503
       7A     -1.393052     8A     -1.241761     9A     -1.013350
      10A     -0.968927    11A     -0.915954    12A     -0.737674
      13A     -0.682006    14A     -0.659152    15A     -0.649739
      16A     -0.592043    17A     -0.578561    18A     -0.571513
      19A     -0.561178    20A     -0.551248    21A     -0.528045
      22A     -0.500427    23A     -0.417085    24A     -0.369384

  @DF-RHF Final Energy:  -286.01973959422196

   => Energetics <=

    Nuclear Repulsion Energy =            252.6732016786309316
    One-Electron Energy =                -889.1341339844518643
    Two-Electron Energy =                 350.4411927115993421
    DFT Exchange-Correlation Energy =       0.0000000000000000
    Empirical Dispersion Energy =           0.0000000000000000
    PCM Polarization Energy =               0.0000000000000000
    EFP Energy =                            0.0000000000000000
    Total Energy =                       -286.0197395942216190
    Molecular point group: c1
  Basis Set: 6-31G*
  Basis Set:

  -Total Gradient:
     Atom            X                  Y                   Z
    ------   -----------------  -----------------  -----------------
       1       -0.000005627873     0.000024629517     0.000034074267
       2       -0.002033029302     0.000850327699    -0.010831604873
       3        0.001003258086     0.001665378971     0.008405801909
       4        0.002017535645    -0.010047138003    -0.002001788454
       5       -0.000015055966     0.000011326467     0.000003735267
       6        0.000007035111    -0.000001085730    -0.000010148833
       7        0.000005642372     0.000004734221     0.000002967023
       8       -0.000991652003     0.007514511477     0.004378399703
       9       -0.000024719775    -0.000017505267     0.000019193902
      10        0.000018360930     0.000006026743     0.000009598532
      11       -0.000001716680     0.000014715164    -0.000000341871
      12        0.000001368716    -0.000009713943    -0.000001581931
      13       -0.000004250028    -0.000003668373     0.000003519294
      14        0.000006632096    -0.000010332545    -0.000008689670
      15        0.000016218673    -0.000002206399    -0.000003134266

  **** Optimization is complete! (in 10 steps) ****
    Final optimized geometry and variables:
    Molecular point group: c1

    Geometry (in Angstrom), charge = 0, multiplicity = 1:

    O           -0.993706456150    -1.393657357094     0.353708403313
    C           -0.665310488655    -0.306677952635    -0.023015884812
    C           -1.689918671108     0.808122634022    -0.121959022711
    N            0.667634883304     0.000399462231    -0.243620432280
    H           -1.768292542945     1.227400166304    -1.118555663184
    H           -2.648418654917     0.401738727324     0.163440933774
    H           -1.419387371409     1.612963477328     0.553664479865
    C            1.603615629787    -0.468611371819     0.766800025158
    C            1.032652389769     1.291046536912    -0.792930447039
    H            2.591249762837    -0.564037486319     0.331596269446
    H            1.290013660231    -1.433773768598     1.128623968131
    H            1.662732145584     0.227978665515     1.602519796043
    H            2.054459454753     1.235552594294    -1.146815999559
    H            0.411372798345     1.541220691268    -1.640854242403
    H            0.974478844627     2.100549744197    -0.064959119842

  Mulliken Charges: (a.u.)
   Center  Symbol    Alpha    Beta     Spin     Total
       1     O     4.28756  4.28756  0.00000 -0.57512
       2     C     2.63372  2.63372  0.00000  0.73255
       3     C     3.29628  3.29628  0.00000 -0.59256
       4     N     3.81245  3.81245  0.00000 -0.62490
       5     H     0.40651  0.40651  0.00000  0.18698
       6     H     0.39097  0.39097  0.00000  0.21807
       7     H     0.40709  0.40709  0.00000  0.18581
       8     C     3.15199  3.15199  0.00000 -0.30398
       9     C     3.14723  3.14723  0.00000 -0.29446
      10     H     0.41392  0.41392  0.00000  0.17216
      11     H     0.38741  0.38741  0.00000  0.22519
      12     H     0.42446  0.42446  0.00000  0.15108
      13     H     0.40723  0.40723  0.00000  0.18554
      14     H     0.40959  0.40959  0.00000  0.18083
      15     H     0.42359  0.42359  0.00000  0.15281

   Total alpha = 24.00000, Total beta = 24.00000, Total charge =  0.00000
