  ==> Input File <==

--------------------------------------------------------------------------
set {
	reference rhf
	basis 6-31G*
}

set_num_threads( 4 )
memory 2 gb

molecule MOL {
0 1

H	 -0.000158	 1.970498	 0.756846
O	 -0.000074	 1.880206	 -0.189275
C	 -0.000015	 0.544847	 -0.545111
C	 -1.278788	 -0.123820	 -0.051541
C	 1.278802	 -0.123718	 -0.051505
H	 -0.000001	 0.490777	 -1.623619
F	 -2.091852	 0.786104	 0.440914
F	 -1.913191	 -0.758957	 -1.014085
F	 -1.013987	 -0.992328	 0.911357
F	 2.323327	 0.466644	 -0.591854
F	 1.326242	 -1.401483	 -0.363667
F	 1.388946	 -0.015632	 1.262939

	symmetry c1
}
set optking {
	frozen_dihedral = ("
		7 4 3 6
	")
}

ee = optimize('scf')
oeprop('DIPOLE', 'QUADRUPOLE', 'MULLIKEN_CHARGES')
f=open( 'psi4out.xyz', 'w' )
f.write( "12  " )
f.write( str(ee) + "\n" )
f.write( MOL.save_string_xyz() )
f.close()
--------------------------------------------------------------------------

    Molecular point group: c1
  Charge       = 0
  Multiplicity = 1
  Basis Set: 6-31G*
  Basis Set:
  @DF-RHF Final Energy:  -786.27055359059159
    Total Energy =                       -786.2705535905922716
    Molecular point group: c1
  Basis Set: 6-31G*
  Basis Set:
  Basis Set: 6-31G*
  Basis Set:
  @DF-RHF Final Energy:  -786.27139917833961
    Total Energy =                       -786.2713991783396068
  Basis Set: 6-31G*
  Basis Set:
  Basis Set: 6-31G*
  Basis Set:
  @DF-RHF Final Energy:  -786.27224152846657
    Total Energy =                       -786.2722415284663384
  Basis Set: 6-31G*
  Basis Set:
  Basis Set: 6-31G*
  Basis Set:
  @DF-RHF Final Energy:  -786.27230931581630
    Total Energy =                       -786.2723093158159600
  Basis Set: 6-31G*
  Basis Set:
  Basis Set: 6-31G*
  Basis Set:
  @DF-RHF Final Energy:  -786.27232155182082
    Total Energy =                       -786.2723215518212783
  Basis Set: 6-31G*
  Basis Set:
  Basis Set: 6-31G*
  Basis Set:
  @DF-RHF Final Energy:  -786.27232363328505
    Total Energy =                       -786.2723236332852821
  Basis Set: 6-31G*
  Basis Set:
  Charge       = 0
  Multiplicity = 1
  Basis Set: 6-31G*
  Basis Set:

    Orbital Energies (a.u.)
    -----------------------

    Doubly Occupied:

       1A    -26.361294     2A    -26.361243     3A    -26.360905
       4A    -26.359923     5A    -26.359711     6A    -26.356505
       7A    -20.616777     8A    -11.527581     9A    -11.523727
      10A    -11.349377    11A     -1.764325    12A     -1.757641
      13A     -1.659284    14A     -1.657976    15A     -1.657871
      16A     -1.653012    17A     -1.435230    18A     -1.099599
      19A     -0.995329    20A     -0.936902    21A     -0.865043
      22A     -0.859258    23A     -0.850224    24A     -0.845738
      25A     -0.833027    26A     -0.812770    27A     -0.733357
      28A     -0.729923    29A     -0.727938    30A     -0.722203
      31A     -0.687688    32A     -0.684816    33A     -0.682544
      34A     -0.677226    35A     -0.666944    36A     -0.661892
      37A     -0.655470    38A     -0.650758    39A     -0.617454
      40A     -0.548877    41A     -0.505366

  @DF-RHF Final Energy:  -786.27232391463758

   => Energetics <=

    Nuclear Repulsion Energy =            669.4525980087114476
    One-Electron Energy =               -2425.8243921027888064
    Two-Electron Energy =                 970.0994701794403454
    DFT Exchange-Correlation Energy =       0.0000000000000000
    Empirical Dispersion Energy =           0.0000000000000000
    PCM Polarization Energy =               0.0000000000000000
    EFP Energy =                            0.0000000000000000
    Total Energy =                       -786.2723239146370133
    Molecular point group: c1
  Basis Set: 6-31G*
  Basis Set:

  -Total Gradient:
     Atom            X                  Y                   Z
    ------   -----------------  -----------------  -----------------
       1       -0.000007352774    -0.000005614011    -0.000008076958
       2        0.000013759186     0.000008436618     0.000010449594
       3       -0.001048345462     0.002154509394     0.000314865566
       4       -0.000639758203    -0.000194552793    -0.002015880915
       5       -0.000001514268     0.000021191632     0.000037453201
       6        0.001052781820    -0.001826255181     0.000097794495
       7        0.000672469796    -0.000171007001     0.001604355938
       8        0.000004447873     0.000025468403     0.000001804710
       9        0.000012241954     0.000013792601    -0.000022814577
      10       -0.000024628741     0.000008146233     0.000011304039
      11       -0.000029842602    -0.000042989640    -0.000008975887
      12       -0.000004258591     0.000008873740    -0.000022279206

  **** Optimization is complete! (in 7 steps) ****
    Final optimized geometry and variables:
    Molecular point group: c1

    Geometry (in Angstrom), charge = 0, multiplicity = 1:

    H           -0.013257704414     2.031651536090     0.755070619616
    O            0.039552358002     1.917826051662    -0.186180304052
    C            0.004111142639     0.582304803322    -0.525995987343
    C           -1.282097978234    -0.125554332592    -0.039911148525
    C            1.275660102904    -0.111217648539    -0.051274012282
    H            0.010221022243     0.520485754957    -1.603362597239
    F           -2.138877480325     0.748842023425     0.444701062846
    F           -1.861164325450    -0.762485371007    -1.038300242706
    F           -1.051432345869    -1.009673359217     0.914214008342
    F            2.322911232800     0.434033047721    -0.632781735418
    F            1.266279884508    -1.394582616529    -0.351888188085
    F            1.430614301676     0.015597404583     1.255633324096

  Mulliken Charges: (a.u.)
   Center  Symbol    Alpha    Beta     Spin     Total
       1     H     0.26715  0.26715  0.00000  0.46570
       2     O     4.35908  4.35908  0.00000 -0.71817
       3     C     3.06485  3.06485  0.00000 -0.12970
       4     C     2.43809  2.43809  0.00000  1.12381
       5     C     2.43703  2.43703  0.00000  1.12594
       6     H     0.37164  0.37164  0.00000  0.25673
       7     F     4.67526  4.67526  0.00000 -0.35052
       8     F     4.67630  4.67630  0.00000 -0.35260
       9     F     4.67625  4.67625  0.00000 -0.35250
      10     F     4.67546  4.67546  0.00000 -0.35092
      11     F     4.67711  4.67711  0.00000 -0.35421
      12     F     4.68178  4.68178  0.00000 -0.36356

   Total alpha = 41.00000, Total beta = 41.00000, Total charge = -0.00000
