  ==> Input File <==

--------------------------------------------------------------------------
set {
	reference rhf
	basis 6-31G*
}

set_num_threads( 4 )
memory 2 gb

molecule MOL {
0 1

H	 -1.942633	 1.451523	 0.156730
C	 -1.976943	 0.418441	 -0.176027
O	 -0.774054	 0.001095	 -0.743181
H	 -2.727276	 0.336748	 -0.951048
H	 -2.280774	 -0.205910	 0.658877
C	 0.406953	 0.000033	 0.038965
C	 1.527284	 -0.003667	 -0.998752
C	 0.498933	 1.262172	 0.902524
C	 0.494271	 -1.259566	 0.906664
H	 1.452513	 0.873252	 -1.631882
H	 1.448863	 -0.881882	 -1.629595
H	 2.502020	 -0.005104	 -0.521731
H	 0.364280	 2.147110	 0.289513
H	 1.472180	 1.321775	 1.378800
H	 -0.247853	 1.275162	 1.689097
H	 0.356778	 -2.146106	 0.296587
H	 1.467182	 -1.320941	 1.383330
H	 -0.252763	 -1.267328	 1.693119

	symmetry c1
}
set optking {
	frozen_dihedral = ("
		2 3 6 7
	")
}

ee = optimize('scf')
oeprop('DIPOLE', 'QUADRUPOLE', 'MULLIKEN_CHARGES')
f=open( 'psi4out.xyz', 'w' )
f.write( "18  " )
f.write( str(ee) + "\n" )
f.write( MOL.save_string_xyz() )
f.close()
--------------------------------------------------------------------------

    Molecular point group: c1
  Charge       = 0
  Multiplicity = 1
  Basis Set: 6-31G*
  Basis Set:
  @DF-RHF Final Energy:  -271.17424782256569
    Total Energy =                       -271.1742478225657464
    Molecular point group: c1
  Basis Set: 6-31G*
  Basis Set:
  Basis Set: 6-31G*
  Basis Set:
  @DF-RHF Final Energy:  -271.17472538917872
    Total Energy =                       -271.1747253891784908
  Basis Set: 6-31G*
  Basis Set:
  Basis Set: 6-31G*
  Basis Set:
  @DF-RHF Final Energy:  -271.17481634264709
    Total Energy =                       -271.1748163426470910
  Basis Set: 6-31G*
  Basis Set:
  Basis Set: 6-31G*
  Basis Set:
  @DF-RHF Final Energy:  -271.17484765577854
    Total Energy =                       -271.1748476557785352
  Basis Set: 6-31G*
  Basis Set:
  Basis Set: 6-31G*
  Basis Set:
  @DF-RHF Final Energy:  -271.17490579978255
    Total Energy =                       -271.1749057997826071
  Basis Set: 6-31G*
  Basis Set:
  Basis Set: 6-31G*
  Basis Set:
  @DF-RHF Final Energy:  -271.17490784594230
    Total Energy =                       -271.1749078459424140
  Basis Set: 6-31G*
  Basis Set:
  Basis Set: 6-31G*
  Basis Set:
  @DF-RHF Final Energy:  -271.17490673016766
    Total Energy =                       -271.1749067301675495
  Basis Set: 6-31G*
  Basis Set:
  Charge       = 0
  Multiplicity = 1
  Basis Set: 6-31G*
  Basis Set:

    Orbital Energies (a.u.)
    -----------------------

    Doubly Occupied:

       1A    -20.546226     2A    -11.281336     3A    -11.261226
       4A    -11.211239     5A    -11.206397     6A    -11.203330
       7A     -1.369551     8A     -1.073125     9A     -0.947814
      10A     -0.938150    11A     -0.912114    12A     -0.752119
      13A     -0.655753    14A     -0.645264    15A     -0.637569
      16A     -0.590028    17A     -0.573912    18A     -0.552191
      19A     -0.535402    20A     -0.524650    21A     -0.514888
      22A     -0.490326    23A     -0.485139    24A     -0.439759
      25A     -0.402203

  @DF-RHF Final Energy:  -271.17490875397436

   => Energetics <=

    Nuclear Repulsion Energy =            272.3213991305809714
    One-Electron Energy =                -907.4931922250355001
    Two-Electron Energy =                 363.9968843404802783
    DFT Exchange-Correlation Energy =       0.0000000000000000
    Empirical Dispersion Energy =           0.0000000000000000
    PCM Polarization Energy =               0.0000000000000000
    EFP Energy =                            0.0000000000000000
    Total Energy =                       -271.1749087539742504
    Molecular point group: c1
  Basis Set: 6-31G*
  Basis Set:

  -Total Gradient:
     Atom            X                  Y                   Z
    ------   -----------------  -----------------  -----------------
       1        0.000000529756    -0.000000772030    -0.000001098829
       2        0.000380557196     0.001964582463    -0.000608193910
       3       -0.000553131619    -0.002465922659     0.000912829149
       4        0.000003362209    -0.000000623526    -0.000002634205
       5        0.000002052709    -0.000002856065     0.000002227163
       6        0.000184648380    -0.001203791068    -0.000290996258
       7       -0.000013638595     0.001708573651    -0.000011095256
       8        0.000003910538     0.000002586238     0.000003204051
       9       -0.000004028979    -0.000002578982     0.000000608368
      10        0.000000028222    -0.000000543579    -0.000000610045
      11       -0.000000124428    -0.000001695251    -0.000000750251
      12       -0.000003181200     0.000001256846     0.000000800695
      13        0.000000230610     0.000002656200    -0.000000863741
      14       -0.000000838506     0.000000698858     0.000000544469
      15        0.000001203534    -0.000001516724    -0.000001683856
      16        0.000001840171    -0.000001630260    -0.000001261726
      17       -0.000000862469     0.000003843684    -0.000001515754
      18       -0.000002557526    -0.000002267796     0.000000489935

  **** Optimization is complete! (in 8 steps) ****
    Final optimized geometry and variables:
    Molecular point group: c1

    Geometry (in Angstrom), charge = 0, multiplicity = 1:

    H           -2.006445247039     1.397822931010     0.039186433543
    C           -1.986774583484     0.330122605892    -0.155848568936
    O           -0.784526388540    -0.078878717932    -0.729535937794
    H           -2.764947723621     0.099286683936    -0.871185689247
    H           -2.208980690021    -0.195086204360     0.769548076972
    C            0.403039688663    -0.066902878908     0.045422964868
    C            1.525599732062    -0.064704773256    -0.989666592597
    C            0.514609701619     1.185582389446     0.921180079293
    C            0.461966215988    -1.333645215208     0.902659489743
    H            1.476362331342     0.834724737887    -1.592994045066
    H            1.425802770548    -0.918720598203    -1.650173546467
    H            2.498957394003    -0.110027740909    -0.511510548354
    H            0.402204075583     2.084033519419     0.323171874427
    H            1.490499311248     1.216657753343     1.393932449003
    H           -0.229543842639     1.204083809815     1.710104565589
    H            0.384372582342    -2.212891084599     0.272809856727
    H            1.395585314885    -1.386176987006     1.454112660424
    H           -0.348579897830    -1.362569170311     1.623726683341

  Mulliken Charges: (a.u.)
   Center  Symbol    Alpha    Beta     Spin     Total
       1     H     0.42771  0.42771  0.00000  0.14458
       2     C     3.07859  3.07859  0.00000 -0.15717
       3     O     4.32002  4.32002  0.00000 -0.64005
       4     H     0.41266  0.41266  0.00000  0.17469
       5     H     0.43180  0.43180  0.00000  0.13641
       6     C     2.84232  2.84232  0.00000  0.31535
       7     C     3.23269  3.23269  0.00000 -0.46537
       8     C     3.25402  3.25402  0.00000 -0.50803
       9     C     3.23882  3.23882  0.00000 -0.47764
      10     H     0.41585  0.41585  0.00000  0.16830
      11     H     0.41324  0.41324  0.00000  0.17352
      12     H     0.42529  0.42529  0.00000  0.14941
      13     H     0.41390  0.41390  0.00000  0.17219
      14     H     0.41676  0.41676  0.00000  0.16648
      15     H     0.41863  0.41863  0.00000  0.16274
      16     H     0.41350  0.41350  0.00000  0.17300
      17     H     0.42299  0.42299  0.00000  0.15402
      18     H     0.42121  0.42121  0.00000  0.15757

   Total alpha = 25.00000, Total beta = 25.00000, Total charge = -0.00000
