  ==> Input File <==

--------------------------------------------------------------------------
set {
	reference rhf
	basis cc-pvtz
}

set_num_threads( 4 )
memory 2 gb

molecule MOL {
0 1

O	 1.060984	 0.693359	 -0.928100
C	 0.576499	 0.134701	 -0.003900
C	 -0.765656	 -0.550508	 -0.002152
O	 1.162742	 0.045961	 1.178647
C	 -1.945526	 0.411052	 0.000603
H	 -0.794329	 -1.203792	 -0.868145
H	 -0.791555	 -1.205429	 0.862701
C	 -3.282915	 -0.321280	 0.002596
H	 -1.880300	 1.059126	 -0.864925
H	 -1.877207	 1.057892	 0.866807
H	 -3.388495	 -0.952755	 -0.873419
H	 -4.107811	 0.380864	 0.004116
H	 -3.385717	 -0.953283	 0.878571
C	 2.431744	 0.652084	 1.320981
H	 3.142587	 0.213035	 0.636881
H	 2.734597	 0.471408	 2.339473
H	 2.370388	 1.713606	 1.132705

	symmetry c1
}
set optking {
	frozen_dihedral = ("
		1 2 3 6
	")
}

ee = optimize('scf')
oeprop('DIPOLE', 'QUADRUPOLE', 'MULLIKEN_CHARGES')
f=open( 'psi4out.xyz', 'w' )
f.write( "17  " )
f.write( str(ee) + "\n" )
f.write( MOL.save_string_xyz() )
f.close()
--------------------------------------------------------------------------

    Molecular point group: c1
  Charge       = 0
  Multiplicity = 1
  Basis Set: CC-PVTZ
  Basis Set:
  @DF-RHF Final Energy:  -345.03323840204700
    Total Energy =                       -345.0332384020468908
    Molecular point group: c1
  Basis Set: CC-PVTZ
  Basis Set:
  Basis Set: CC-PVTZ
  Basis Set:
  @DF-RHF Final Energy:  -345.03382530750906
    Total Energy =                       -345.0338253075090051
  Basis Set: CC-PVTZ
  Basis Set:
  Basis Set: CC-PVTZ
  Basis Set:
  @DF-RHF Final Energy:  -345.03396881273414
    Total Energy =                       -345.0339688127341446
  Basis Set: CC-PVTZ
  Basis Set:
  Basis Set: CC-PVTZ
  Basis Set:
  @DF-RHF Final Energy:  -345.03400143899228
    Total Energy =                       -345.0340014389925614
  Basis Set: CC-PVTZ
  Basis Set:
  Charge       = 0
  Multiplicity = 1
  Basis Set: CC-PVTZ
  Basis Set:

    Orbital Energies (a.u.)
    -----------------------

    Doubly Occupied:

       1A    -20.598828     2A    -20.531484     3A    -11.364010
       4A    -11.278723     5A    -11.232575     6A    -11.228670
       7A    -11.215826     8A     -1.472646     9A     -1.364734
      10A     -1.083995    11A     -1.001281    12A     -0.942328
      13A     -0.829563    14A     -0.774946    15A     -0.700581
      16A     -0.683443    17A     -0.676223    18A     -0.637660
      19A     -0.596318    20A     -0.583814    21A     -0.559066
      22A     -0.538572    23A     -0.527459    24A     -0.505818
      25A     -0.485842    26A     -0.484639    27A     -0.458105
      28A     -0.437072

  @DF-RHF Final Energy:  -345.03400206507877

   => Energetics <=

    Nuclear Repulsion Energy =            313.8054942878377460
    One-Electron Energy =               -1092.0905455239465027
    Two-Electron Energy =                 433.2510491710302176
    DFT Exchange-Correlation Energy =       0.0000000000000000
    Empirical Dispersion Energy =           0.0000000000000000
    PCM Polarization Energy =               0.0000000000000000
    EFP Energy =                            0.0000000000000000
    Total Energy =                       -345.0340020650785391
    Molecular point group: c1
  Basis Set: CC-PVTZ
  Basis Set:

  -Total Gradient:
     Atom            X                  Y                   Z
    ------   -----------------  -----------------  -----------------
       1       -0.000041932985     0.000054870845     0.000191814911
       2        0.000032185575    -0.000125347730    -0.000227369768
       3       -0.000130829551     0.000181207522    -0.000094135061
       4        0.000096566804    -0.000009003750    -0.000004616644
       5        0.000005951154    -0.000004542216     0.000023699064
       6        0.000068093445    -0.000129081345     0.000075813205
       7        0.000002118450     0.000013388090     0.000001262921
       8       -0.000016413909     0.000004641185    -0.000008820601
       9       -0.000009126129    -0.000011045250     0.000017522525
      10       -0.000010552129     0.000003100647    -0.000002476671
      11        0.000005786159    -0.000004693556    -0.000002958958
      12        0.000012621724     0.000006076130    -0.000004032605
      13        0.000003235262     0.000002853272     0.000005588275
      14       -0.000071189797     0.000018553379     0.000035800271
      15        0.000001964983    -0.000011360426    -0.000011551715
      16        0.000032457370     0.000009108319     0.000001617635
      17        0.000019063575     0.000001274882     0.000002843211

  **** Optimization is complete! (in 5 steps) ****
    Final optimized geometry and variables:
    Molecular point group: c1

    Geometry (in Angstrom), charge = 0, multiplicity = 1:

    O            1.078404100047     0.554622241359    -1.140498187062
    C            0.647818128769    -0.042563382061    -0.212449587566
    C           -0.681137557702    -0.753942628622    -0.208170398093
    O            1.280561557143    -0.136754257780     0.944038525204
    C           -1.843543529283     0.243457009787    -0.230682826131
    H           -0.714368379262    -1.372280907740    -1.096941617928
    H           -0.747788943781    -1.395710559129     0.659183070316
    C           -3.198769046553    -0.452520686523    -0.271592305496
    H           -1.733088733758     0.890380989810    -1.092174791810
    H           -1.787815513325     0.877963209334     0.648511307616
    H           -3.292938084619    -1.071865684308    -1.157029055916
    H           -4.004414851010     0.271672875470    -0.286641176012
    H           -3.341008362767    -1.088888365477     0.595221938850
    C            2.527712254453     0.519986726604     1.054314216039
    H            3.228629391769     0.128531117868     0.332201745332
    H            2.877681900294     0.328080211372     2.055591334167
    H            2.414258704473     1.582002100209     0.895249951718

  Mulliken Charges: (a.u.)
   Center  Symbol    Alpha    Beta     Spin     Total
       1     O     4.20527  4.20527  0.00000 -0.41054
       2     C     2.80944  2.80944  0.00000  0.38113
       3     C     3.07938  3.07938  0.00000 -0.15876
       4     O     4.14581  4.14581  0.00000 -0.29161
       5     C     3.08953  3.08953  0.00000 -0.17906
       6     H     0.44325  0.44325  0.00000  0.11350
       7     H     0.44187  0.44187  0.00000  0.11626
       8     C     3.15139  3.15139  0.00000 -0.30277
       9     H     0.44079  0.44079  0.00000  0.11841
      10     H     0.45084  0.45084  0.00000  0.09832
      11     H     0.45326  0.45326  0.00000  0.09348
      12     H     0.44606  0.44606  0.00000  0.10789
      13     H     0.45468  0.45468  0.00000  0.09064
      14     C     3.03517  3.03517  0.00000 -0.07033
      15     H     0.45379  0.45379  0.00000  0.09243
      16     H     0.44531  0.44531  0.00000  0.10938
      17     H     0.45418  0.45418  0.00000  0.09163

   Total alpha = 28.00000, Total beta = 28.00000, Total charge = -0.00000
