  ==> Input File <==

--------------------------------------------------------------------------
set {
	reference rhf
	basis 6-31G*
}

set_num_threads( 4 )
memory 2 gb

molecule MOL {
0 1

O	 -1.276010	 1.052711	 -0.768302
C	 -1.204840	 0.067374	 -0.106123
C	 -2.388195	 -0.672128	 0.458071
O	 -0.067104	 -0.527208	 0.221609
H	 -2.388023	 -1.694060	 0.097175
H	 -3.300579	 -0.174919	 0.164318
H	 -2.315377	 -0.706351	 1.539059
C	 0.709063	 0.003084	 1.305252
C	 2.141833	 -0.423945	 1.039913
C	 0.167703	 -0.517184	 2.627710
H	 0.628137	 1.079687	 1.275540
H	 2.482798	 -0.046563	 0.082535
H	 2.796578	 -0.037019	 1.813819
H	 2.224022	 -1.505518	 1.030017
H	 0.765134	 -0.137788	 3.450602
H	 -0.855233	 -0.195764	 2.776925
H	 0.202774	 -1.601720	 2.651386

	symmetry c1
}
set optking {
	frozen_dihedral = ("
		8 4 2 1
	")
}

ee = optimize('scf')
oeprop('DIPOLE', 'QUADRUPOLE', 'MULLIKEN_CHARGES')
f=open( 'psi4out.xyz', 'w' )
f.write( "17  " )
f.write( str(ee) + "\n" )
f.write( MOL.save_string_xyz() )
f.close()
--------------------------------------------------------------------------

    Molecular point group: c1
  Charge       = 0
  Multiplicity = 1
  Basis Set: 6-31G*
  Basis Set:
  @DF-RHF Final Energy:  -344.89183064270424
    Total Energy =                       -344.8918306427044058
    Molecular point group: c1
  Basis Set: 6-31G*
  Basis Set:
  Basis Set: 6-31G*
  Basis Set:
  @DF-RHF Final Energy:  -344.89453274586936
    Total Energy =                       -344.8945327458689576
  Basis Set: 6-31G*
  Basis Set:
  Basis Set: 6-31G*
  Basis Set:
  @DF-RHF Final Energy:  -344.89482926189839
    Total Energy =                       -344.8948292618981668
  Basis Set: 6-31G*
  Basis Set:
  Basis Set: 6-31G*
  Basis Set:
  @DF-RHF Final Energy:  -344.89520376202665
    Total Energy =                       -344.8952037620265969
  Basis Set: 6-31G*
  Basis Set:
  @DF-RHF Final Energy:  -344.89524072441793
    Total Energy =                       -344.8952407244179881
  Basis Set: 6-31G*
  Basis Set:
  @DF-RHF Final Energy:  -344.89524864267759
    Total Energy =                       -344.8952486426774726
  Basis Set: 6-31G*
  Basis Set:
  Basis Set: 6-31G*
  Basis Set:
  @DF-RHF Final Energy:  -344.89525335226341
    Total Energy =                       -344.8952533522635235
  Basis Set: 6-31G*
  Basis Set:
  Basis Set: 6-31G*
  Basis Set:
  @DF-RHF Final Energy:  -344.89525612973148
    Total Energy =                       -344.8952561297314219
  Basis Set: 6-31G*
  Basis Set:
  Charge       = 0
  Multiplicity = 1
  Basis Set: 6-31G*
  Basis Set:

    Orbital Energies (a.u.)
    -----------------------

    Doubly Occupied:

       1A    -20.580858     2A    -20.553354     3A    -11.375505
       4A    -11.300107     5A    -11.234253     6A    -11.228360
       7A    -11.220510     8A     -1.455151     9A     -1.363373
      10A     -1.075420    11A     -1.011131    12A     -0.954208
      13A     -0.847573    14A     -0.765245    15A     -0.696479
      16A     -0.667661    17A     -0.656410    18A     -0.625495
      19A     -0.588208    20A     -0.580298    21A     -0.564259
      22A     -0.552713    23A     -0.551191    24A     -0.522551
      25A     -0.498284    26A     -0.484026    27A     -0.445836
      28A     -0.435436

  @DF-RHF Final Energy:  -344.89525701798362

   => Energetics <=

    Nuclear Repulsion Energy =            322.1647930991063618
    One-Electron Energy =               -1108.4523042280479785
    Two-Electron Energy =                 441.3922541109578788
    DFT Exchange-Correlation Energy =       0.0000000000000000
    Empirical Dispersion Energy =           0.0000000000000000
    PCM Polarization Energy =               0.0000000000000000
    EFP Energy =                            0.0000000000000000
    Total Energy =                       -344.8952570179836812
    Molecular point group: c1
  Basis Set: 6-31G*
  Basis Set:

  -Total Gradient:
     Atom            X                  Y                   Z
    ------   -----------------  -----------------  -----------------
       1       -0.000734557668    -0.004383439315    -0.007307473769
       2       -0.000470681361     0.004168770920     0.012990695983
       3       -0.000030810607    -0.000026702891    -0.000017916191
       4        0.004392065436     0.004757925752    -0.009944439904
       5        0.000018583072    -0.000002944650     0.000026447428
       6       -0.000038160854    -0.000011701422     0.000024887649
       7       -0.000030720114     0.000056553010    -0.000057825706
       8       -0.003141586858    -0.004628443356     0.004105291040
       9       -0.000024105899     0.000008511633     0.000012044741
      10        0.000005444001    -0.000000112746     0.000060935918
      11       -0.000002240650     0.000031034867     0.000044969061
      12       -0.000003761788     0.000012395518     0.000004700607
      13        0.000004555761     0.000000191758     0.000001675799
      14       -0.000006254329     0.000004740412    -0.000005394147
      15       -0.000000436855     0.000008751904     0.000020748719
      16        0.000060074797     0.000007314125     0.000021639793
      17        0.000002593921    -0.000002845520     0.000019012983

  **** Optimization is complete! (in 9 steps) ****
    Final optimized geometry and variables:
    Molecular point group: c1

    Geometry (in Angstrom), charge = 0, multiplicity = 1:

    O           -1.089796247564     1.260399357296    -1.305065668351
    C           -0.974344681148     0.236388404406    -0.724315168483
    C           -2.133619764808    -0.644597179716    -0.337921267101
    O            0.232161880638    -0.322433394603    -0.493021800574
    H           -2.053515381941    -1.580173707684    -0.881147885211
    H           -3.065676824663    -0.157140829246    -0.583549283198
    H           -2.105154486964    -0.882609115641     0.718023818204
    C            1.039966677387     0.158339478505     0.585175193009
    C            2.439190240413    -0.366745464506     0.318838514928
    C            0.496274132317    -0.291159190276     1.934708560516
    H            1.046134476459     1.241751134099     0.536158429070
    H            2.785751607592    -0.033594673543    -0.651589526271
    H            3.128591795649    -0.008972962453     1.076430232113
    H            2.444568806795    -1.451467713656     0.331337959886
    H            1.171811694883     0.019435042448     2.724920573147
    H           -0.473278817913     0.146863840671     2.146397197946
    H            0.403270658572    -1.371582582991     1.967658985099

  Mulliken Charges: (a.u.)
   Center  Symbol    Alpha    Beta     Spin     Total
       1     O     4.25502  4.25502  0.00000 -0.51004
       2     C     2.62297  2.62297  0.00000  0.75406
       3     C     3.28651  3.28651  0.00000 -0.57302
       4     O     4.32524  4.32524  0.00000 -0.65048
       5     H     0.39813  0.39813  0.00000  0.20373
       6     H     0.39792  0.39792  0.00000  0.20416
       7     H     0.40569  0.40569  0.00000  0.18862
       8     C     2.92365  2.92365  0.00000  0.15270
       9     C     3.24213  3.24213  0.00000 -0.48427
      10     C     3.25367  3.25367  0.00000 -0.50733
      11     H     0.40893  0.40893  0.00000  0.18215
      12     H     0.40527  0.40527  0.00000  0.18945
      13     H     0.41909  0.41909  0.00000  0.16182
      14     H     0.41373  0.41373  0.00000  0.17253
      15     H     0.41349  0.41349  0.00000  0.17302
      16     H     0.41654  0.41654  0.00000  0.16692
      17     H     0.41201  0.41201  0.00000  0.17598

   Total alpha = 28.00000, Total beta = 28.00000, Total charge = -0.00000
