  ==> Input File <==

--------------------------------------------------------------------------
set {
	reference rhf
	basis 6-31G*
}

set_num_threads( 1 )
memory 2 gb

molecule MOL {
0 1

H	 -4.028921	 0.351699	 -0.987085
C	 -3.355375	 -0.300142	 -0.465452
C	 -2.076860	 -0.007332	 -0.404944
H	 -3.751841	 -1.184002	 -0.002292
O	 -1.180634	 -0.819263	 0.215062
H	 -1.661091	 0.876412	 -0.855863
C	 0.051604	 -1.018856	 -0.387932
C	 1.043764	 0.054862	 -0.001873
H	 -0.017620	 -1.041351	 -1.469781
H	 0.437898	 -1.966374	 -0.042284
F	 2.212596	 -0.199467	 -0.571921
F	 0.652529	 1.252447	 -0.405055
F	 1.230877	 0.110694	 1.300533

	symmetry c1
}
set optking {
	frozen_dihedral = ("
		11 8 7 9,
		3 5 7 9,
		6 3 2 1
	")
}

ee = energy('scf')
oeprop('DIPOLE', 'QUADRUPOLE', 'MULLIKEN_CHARGES')
f=open( 'psi4out.xyz', 'w' )
f.write( "13  " )
f.write( str(ee) + "\n" )
f.write( MOL.save_string_xyz() )
f.close()
--------------------------------------------------------------------------

    Molecular point group: c1

    Geometry (in Angstrom), charge = 0, multiplicity = 1:

       Center              X                  Y                   Z               Mass
    ------------   -----------------  -----------------  -----------------  -----------------
           H         -4.011455089920     0.425019410088    -0.916315528800     1.007825032070
           C         -3.337909089920    -0.226821589912    -0.394682528800    12.000000000000
           C         -2.059394089920     0.065988410088    -0.334174528800    12.000000000000
           H         -3.734375089920    -1.110681589912     0.068477471200     1.007825032070
           O         -1.163168089920    -0.745942589912     0.285831471200    15.994914619560
           H         -1.643625089920     0.949732410088    -0.785093528800     1.007825032070
           C          0.069069910080    -0.945535589912    -0.317162528800    12.000000000000
           C          1.061229910080     0.128182410088     0.068896471200    12.000000000000
           H         -0.000154089920    -0.968030589912    -1.399011528800     1.007825032070
           H          0.455363910080    -1.893053589912     0.028485471200     1.007825032070
           F          2.230061910080    -0.126146589912    -0.501151528800    18.998403224000
           F          0.669994910080     1.325767410088    -0.334285528800    18.998403224000
           F          1.248342910080     0.184014410088     1.371302471200    18.998403224000

  Charge       = 0
  Multiplicity = 1
  Basis Set: 6-31G*
  Basis Set:

    Orbital Energies (a.u.)
    -----------------------

    Doubly Occupied:

       1A    -26.347158     2A    -26.344919     3A    -26.341301
       4A    -20.602440     5A    -11.503729     6A    -11.316653
       7A    -11.295481     8A    -11.220993     9A     -1.743279
      10A     -1.642023    11A     -1.639303    12A     -1.434282
      13A     -1.083120    14A     -1.016778    15A     -0.926582
      16A     -0.836828    17A     -0.832296    18A     -0.827471
      19A     -0.778436    20A     -0.725644    21A     -0.712593
      22A     -0.701798    23A     -0.676286    24A     -0.659290
      25A     -0.655454    26A     -0.644710    27A     -0.631014
      28A     -0.594605    29A     -0.566549    30A     -0.528588
      31A     -0.484934    32A     -0.360446

  @DF-RHF Final Energy:  -527.53454941039320

   => Energetics <=

    Nuclear Repulsion Energy =            412.6529107981334619
    One-Electron Energy =               -1549.0249543297200034
    Two-Electron Energy =                 608.8374941211943678
    DFT Exchange-Correlation Energy =       0.0000000000000000
    Empirical Dispersion Energy =           0.0000000000000000
    PCM Polarization Energy =               0.0000000000000000
    EFP Energy =                            0.0000000000000000
    Total Energy =                       -527.5345494103921737

  Mulliken Charges: (a.u.)
   Center  Symbol    Alpha    Beta     Spin     Total
       1     H     0.40661  0.40661  0.00000  0.18677
       2     C     3.22473  3.22473  0.00000 -0.44945
       3     C     2.91178  2.91178  0.00000  0.17643
       4     H     0.40204  0.40204  0.00000  0.19593
       5     O     4.30575  4.30575  0.00000 -0.61149
       6     H     0.39935  0.39935  0.00000  0.20131
       7     C     3.06064  3.06064  0.00000 -0.12128
       8     C     2.45810  2.45810  0.00000  1.08381
       9     H     0.40418  0.40418  0.00000  0.19164
      10     H     0.39005  0.39005  0.00000  0.21990
      11     F     4.68277  4.68277  0.00000 -0.36555
      12     F     4.67970  4.67970  0.00000 -0.35940
      13     F     4.67431  4.67431  0.00000 -0.34862

   Total alpha = 32.00000, Total beta = 32.00000, Total charge =  0.00000
