  ==> Input File <==

--------------------------------------------------------------------------
set {
	reference rhf
	basis 6-31G*
}

set_num_threads( 1 )
memory 2 gb

molecule MOL {
0 1

H	 -1.784935	 0.877483	 2.480300
O	 -1.388375	 1.676263	 2.162371
C	 -0.725420	 1.424905	 0.952289
C	 0.572842	 0.671408	 1.181255
H	 -1.352183	 0.870959	 0.258986
H	 -0.511030	 2.385864	 0.506145
O	 1.171513	 0.459272	 -0.058250
H	 0.371307	 -0.279889	 1.677640
H	 1.220457	 1.250323	 1.837025
C	 2.397842	 -0.198080	 -0.002151
H	 2.508049	 -0.905315	 -0.822092
H	 3.173794	 0.550865	 -0.078850
H	 2.517602	 -0.735921	 0.936026

	symmetry c1
}
set optking {
	frozen_dihedral = ("
		8 4 3 5,
		1 2 3 5,
		10 7 4 8
	")
}

ee = energy('scf')
oeprop('DIPOLE', 'QUADRUPOLE', 'MULLIKEN_CHARGES')
f=open( 'psi4out.xyz', 'w' )
f.write( "13  " )
f.write( str(ee) + "\n" )
f.write( MOL.save_string_xyz() )
f.close()
--------------------------------------------------------------------------

    Molecular point group: c1

    Geometry (in Angstrom), charge = 0, multiplicity = 1:

       Center              X                  Y                   Z               Mass
    ------------   -----------------  -----------------  -----------------  -----------------
           H         -2.175002873858     0.075637773455     1.611421718480     1.007825032070
           O         -1.778442873858     0.874417773455     1.293492718480    15.994914619560
           C         -1.115487873858     0.623059773455     0.083410718480    12.000000000000
           C          0.182774126142    -0.130437226545     0.312376718480    12.000000000000
           H         -1.742250873858     0.069113773455    -0.609892281520     1.007825032070
           H         -0.901097873858     1.584018773455    -0.362733281520     1.007825032070
           O          0.781445126142    -0.342573226545    -0.927128281520    15.994914619560
           H         -0.018760873858    -1.081734226545     0.808761718480     1.007825032070
           H          0.830389126142     0.448477773455     0.968146718480     1.007825032070
           C          2.007774126142    -0.999925226545    -0.871029281520    12.000000000000
           H          2.117981126142    -1.707160226545    -1.690970281520     1.007825032070
           H          2.783726126142    -0.250980226545    -0.947728281520     1.007825032070
           H          2.127534126142    -1.537766226545     0.067147718480     1.007825032070

  Charge       = 0
  Multiplicity = 1
  Basis Set: 6-31G*
  Basis Set:

    Orbital Energies (a.u.)
    -----------------------

    Doubly Occupied:

       1A    -20.560072     2A    -20.559536     3A    -11.271523
       4A    -11.269607     5A    -11.268740     6A     -1.387868
       7A     -1.365047     8A     -1.017974     9A     -0.913074
      10A     -0.842759    11A     -0.709119    12A     -0.672373
      13A     -0.659860    14A     -0.638118    15A     -0.595963
      16A     -0.566779    17A     -0.549875    18A     -0.489051
      19A     -0.482486    20A     -0.438537    21A     -0.417277

  @DF-RHF Final Energy:  -267.94693531409990

   => Energetics <=

    Nuclear Repulsion Energy =            190.2881945220815396
    One-Electron Energy =                -743.1189923280198855
    Two-Electron Energy =                 284.8838624918379310
    DFT Exchange-Correlation Energy =       0.0000000000000000
    Empirical Dispersion Energy =           0.0000000000000000
    PCM Polarization Energy =               0.0000000000000000
    EFP Energy =                            0.0000000000000000
    Total Energy =                       -267.9469353141004149

  Mulliken Charges: (a.u.)
   Center  Symbol    Alpha    Beta     Spin     Total
       1     H     0.28132  0.28132  0.00000  0.43736
       2     O     4.37081  4.37081  0.00000 -0.74161
       3     C     3.00493  3.00493  0.00000 -0.00986
       4     C     2.99786  2.99786  0.00000  0.00429
       5     H     0.42224  0.42224  0.00000  0.15552
       6     H     0.40844  0.40844  0.00000  0.18311
       7     O     4.30922  4.30922  0.00000 -0.61843
       8     H     0.43678  0.43678  0.00000  0.12644
       9     H     0.42344  0.42344  0.00000  0.15312
      10     C     3.07844  3.07844  0.00000 -0.15687
      11     H     0.41585  0.41585  0.00000  0.16830
      12     H     0.42158  0.42158  0.00000  0.15685
      13     H     0.42911  0.42911  0.00000  0.14179

   Total alpha = 21.00000, Total beta = 21.00000, Total charge = -0.00000
