  ==> Input File <==

--------------------------------------------------------------------------
set {
	reference rhf
	basis 6-31G*
}

set_num_threads( 4 )
memory 2 gb

molecule MOL {
0 1

O	 0.749854	 1.307668	 -0.000040
C	 0.576249	 0.131685	 -0.000108
C	 -0.766779	 -0.556801	 -0.000461
O	 1.568443	 -0.749345	 -0.000005
C	 -1.945214	 0.412366	 0.000161
H	 -0.796911	 -1.211249	 -0.867467
H	 -0.796854	 -1.212390	 0.865687
C	 -2.180885	 1.027976	 1.378585
H	 -2.837451	 -0.108712	 -0.329980
H	 -1.765258	 1.195153	 -0.728836
H	 -2.394837	 0.264696	 2.121606
H	 -3.022315	 1.712787	 1.357845
H	 -1.311227	 1.583930	 1.717826
C	 2.886820	 -0.232538	 0.000322
H	 3.059106	 0.369571	 -0.880203
H	 3.540187	 -1.091012	 0.000050
H	 3.059019	 0.368956	 0.881266

	symmetry c1
}
set optking {
	frozen_dihedral = ("
		9 5 3 6
	")
}

ee = optimize('scf')
oeprop('DIPOLE', 'QUADRUPOLE', 'MULLIKEN_CHARGES')
f=open( 'psi4out.xyz', 'w' )
f.write( "17  " )
f.write( str(ee) + "\n" )
f.write( MOL.save_string_xyz() )
f.close()
--------------------------------------------------------------------------

    Molecular point group: c1
  Charge       = 0
  Multiplicity = 1
  Basis Set: 6-31G*
  Basis Set:
  @DF-RHF Final Energy:  -344.90594149448140
    Total Energy =                       -344.9059414944814534
    Molecular point group: c1
  Basis Set: 6-31G*
  Basis Set:
  Basis Set: 6-31G*
  Basis Set:
  @DF-RHF Final Energy:  -344.90613513757074
    Total Energy =                       -344.9061351375711411
  Basis Set: 6-31G*
  Basis Set:
  Basis Set: 6-31G*
  Basis Set:
  @DF-RHF Final Energy:  -344.90560345438303
    Total Energy =                       -344.9056034543829128
  Basis Set: 6-31G*
  Basis Set:
  Basis Set: 6-31G*
  Basis Set:
  @DF-RHF Final Energy:  -344.90618861839192
    Total Energy =                       -344.9061886183922070
  Basis Set: 6-31G*
  Basis Set:
  Basis Set: 6-31G*
  Basis Set:
  @DF-RHF Final Energy:  -344.90620136007902
    Total Energy =                       -344.9062013600787964
  Basis Set: 6-31G*
  Basis Set:
  Basis Set: 6-31G*
  Basis Set:
  @DF-RHF Final Energy:  -344.90620775899077
    Total Energy =                       -344.9062077589906607
  Basis Set: 6-31G*
  Basis Set:
  Charge       = 0
  Multiplicity = 1
  Basis Set: 6-31G*
  Basis Set:

    Orbital Energies (a.u.)
    -----------------------

    Doubly Occupied:

       1A    -20.604822     2A    -20.546700     3A    -11.373566
       4A    -11.281628     5A    -11.235977     6A    -11.221803
       7A    -11.208352     8A     -1.470614     9A     -1.363878
      10A     -1.078898    11A     -0.999838    12A     -0.938428
      13A     -0.829309    14A     -0.766264    15A     -0.702168
      16A     -0.681886    17A     -0.672104    18A     -0.617257
      19A     -0.616254    20A     -0.566911    21A     -0.565790
      22A     -0.534243    23A     -0.523864    24A     -0.487555
      25A     -0.483283    26A     -0.481656    27A     -0.457067
      28A     -0.438033

  @DF-RHF Final Energy:  -344.90620868537309

   => Energetics <=

    Nuclear Repulsion Energy =            317.4400724978262929
    One-Electron Energy =               -1099.1962657638264318
    Two-Electron Energy =                 436.8499845806270514
    DFT Exchange-Correlation Energy =       0.0000000000000000
    Empirical Dispersion Energy =           0.0000000000000000
    PCM Polarization Energy =               0.0000000000000000
    EFP Energy =                            0.0000000000000000
    Total Energy =                       -344.9062086853730307
    Molecular point group: c1
  Basis Set: 6-31G*
  Basis Set:

  -Total Gradient:
     Atom            X                  Y                   Z
    ------   -----------------  -----------------  -----------------
       1        0.000032262599     0.000019754613    -0.000020138757
       2       -0.000034758653     0.000005916186     0.000057436883
       3        0.001224987618     0.001644110546    -0.001526044669
       4        0.000004403390     0.000007314429    -0.000008340151
       5       -0.000605496883    -0.000919804295     0.002260852446
       6       -0.000958523720    -0.001230244164     0.000914428243
       7       -0.000005541834     0.000004343968    -0.000019033797
       8       -0.000016729663     0.000012039952    -0.000003817930
       9        0.000339970584     0.000474824487    -0.001645648640
      10       -0.000003164303     0.000010502053    -0.000014122121
      11       -0.000012926690    -0.000012474959     0.000023860515
      12        0.000020021745    -0.000005862117    -0.000010282272
      13        0.000005286570    -0.000008696074    -0.000001438723
      14        0.000014048699     0.000000607200    -0.000015817842
      15        0.000002681463    -0.000001159264     0.000003776601
      16       -0.000001579381    -0.000000570666     0.000002067503
      17       -0.000004941546    -0.000000601896     0.000002262710

  **** Optimization is complete! (in 7 steps) ****
    Final optimized geometry and variables:
    Molecular point group: c1

    Geometry (in Angstrom), charge = 0, multiplicity = 1:

    O            0.600692881568     1.109797001862    -0.321148693117
    C            0.416873120283    -0.061732652808    -0.232856393486
    C           -0.930402716257    -0.744083947753    -0.223731701094
    O            1.402031178625    -0.945385422177    -0.143679404365
    C           -2.115255132375     0.220157984589    -0.170464260667
    H           -0.977009583306    -1.372737883867    -1.108879862249
    H           -0.944991985110    -1.431534283075     0.617138448042
    C           -2.350041588809     0.818846386888     1.215364251567
    H           -3.003501570387    -0.311424537062    -0.499788501077
    H           -1.951907490839     1.017616574225    -0.886590375446
    H           -2.552880237805     0.042858007413     1.948913578274
    H           -3.200261679367     1.493211241600     1.204988469580
    H           -1.485234472965     1.382066714174     1.547587747851
    C            2.724464749938    -0.438931210255    -0.163681324255
    H            2.915484252592     0.088557478352    -1.087108218303
    H            3.370815207994    -1.298968203056    -0.083554154682
    H            2.887100354876     0.230775696156     0.668448617044

  Mulliken Charges: (a.u.)
   Center  Symbol    Alpha    Beta     Spin     Total
       1     O     4.28660  4.28660  0.00000 -0.57320
       2     C     2.60718  2.60718  0.00000  0.78564
       3     C     3.20801  3.20801  0.00000 -0.41602
       4     O     4.30594  4.30594  0.00000 -0.61189
       5     C     3.15490  3.15490  0.00000 -0.30979
       6     H     0.39804  0.39804  0.00000  0.20393
       7     H     0.40099  0.40099  0.00000  0.19801
       8     C     3.24464  3.24464  0.00000 -0.48928
       9     H     0.41875  0.41875  0.00000  0.16250
      10     H     0.40576  0.40576  0.00000  0.18848
      11     H     0.42446  0.42446  0.00000  0.15108
      12     H     0.41751  0.41751  0.00000  0.16498
      13     H     0.40873  0.40873  0.00000  0.18255
      14     C     3.09240  3.09240  0.00000 -0.18480
      15     H     0.40897  0.40897  0.00000  0.18206
      16     H     0.40827  0.40827  0.00000  0.18346
      17     H     0.40886  0.40886  0.00000  0.18229

   Total alpha = 28.00000, Total beta = 28.00000, Total charge =  0.00000
