  ==> Input File <==

--------------------------------------------------------------------------
set {
	reference rhf
	basis cc-pvtz
}

set_num_threads( 4 )
memory 2 gb

molecule MOL {
0 1

O	 -0.280889	 1.284371	 -0.402574
C	 -0.441389	 0.127393	 -0.214106
C	 -1.774355	 -0.564059	 -0.186670
O	 0.550743	 -0.719877	 0.000412
H	 -1.797388	 -1.338011	 -0.942894
H	 -2.557683	 0.154213	 -0.365599
H	 -1.916532	 -1.039821	 0.775033
C	 1.863204	 -0.194033	 0.000410
H	 2.031502	 0.409177	 -0.879273
H	 2.524488	 -1.045142	 0.000793
H	 2.031291	 0.409823	 0.879686

	symmetry c1
}
set optking {
	frozen_dihedral = ("
		2 4 8 9
	")
}

ee = optimize('scf')
oeprop('DIPOLE', 'QUADRUPOLE', 'MULLIKEN_CHARGES')
f=open( 'psi4out.xyz', 'w' )
f.write( "11  " )
f.write( str(ee) + "\n" )
f.write( MOL.save_string_xyz() )
f.close()
--------------------------------------------------------------------------

    Molecular point group: c1
  Charge       = 0
  Multiplicity = 1
  Basis Set: CC-PVTZ
  Basis Set:
  @DF-RHF Final Energy:  -266.93905187589019
    Total Energy =                       -266.9390518758901294
    Molecular point group: c1
  Basis Set: CC-PVTZ
  Basis Set:
  Basis Set: CC-PVTZ
  Basis Set:
  @DF-RHF Final Energy:  -266.93906329719459
    Total Energy =                       -266.9390632971946502
  Basis Set: CC-PVTZ
  Basis Set:
  Basis Set: CC-PVTZ
  Basis Set:
  @DF-RHF Final Energy:  -266.93901078878889
    Total Energy =                       -266.9390107887888917
  Basis Set: CC-PVTZ
  Basis Set:
  Basis Set: CC-PVTZ
  Basis Set:
  @DF-RHF Final Energy:  -266.93907200849878
    Total Energy =                       -266.9390720084986697
  Basis Set: CC-PVTZ
  Basis Set:
  Charge       = 0
  Multiplicity = 1
  Basis Set: CC-PVTZ
  Basis Set:

    Orbital Energies (a.u.)
    -----------------------

    Doubly Occupied:

       1A    -20.598732     2A    -20.535265     3A    -11.368945
       4A    -11.279876     5A    -11.233210     6A     -1.474165
       7A     -1.367729     8A     -1.037032     9A     -0.953739
      10A     -0.780229    11A     -0.698363    12A     -0.684319
      13A     -0.681199    14A     -0.595834    15A     -0.593619
      16A     -0.561960    17A     -0.527167    18A     -0.525147
      19A     -0.462083    20A     -0.445961

  @DF-RHF Final Energy:  -266.93907311508332

   => Energetics <=

    Nuclear Repulsion Energy =            183.6828154608091950
    One-Electron Energy =                -728.4346364026544052
    Two-Electron Energy =                 277.8127478267621200
    DFT Exchange-Correlation Energy =       0.0000000000000000
    Empirical Dispersion Energy =           0.0000000000000000
    PCM Polarization Energy =               0.0000000000000000
    EFP Energy =                            0.0000000000000000
    Total Energy =                       -266.9390731150830334
    Molecular point group: c1
  Basis Set: CC-PVTZ
  Basis Set:

  -Total Gradient:
     Atom            X                  Y                   Z
    ------   -----------------  -----------------  -----------------
       1        0.000003609071    -0.000013818171     0.000008935957
       2        0.000042442422    -0.000118993966    -0.000789983895
       3        0.000004767655    -0.000004582761    -0.000007424250
       4       -0.000147683544     0.000394568655     0.001235513463
       5        0.000000065622    -0.000002476522     0.000004630761
       6        0.000001273715     0.000001280084     0.000001495238
       7       -0.000001452063     0.000002242359     0.000003100235
       8        0.000396031326    -0.000996943580    -0.000904772734
       9       -0.000296342505     0.000746073377     0.000452346254
      10       -0.000001219917    -0.000005146953    -0.000001420389
      11       -0.000001491782    -0.000002202520    -0.000002420640

  **** Optimization is complete! (in 5 steps) ****
    Final optimized geometry and variables:
    Molecular point group: c1

    Geometry (in Angstrom), charge = 0, multiplicity = 1:

    O           -0.289381260919     1.300512940086    -0.235402155880
    C           -0.447272096466     0.142216268064    -0.052998822650
    C           -1.778738535777    -0.552327899039    -0.032729992573
    O            0.545402579516    -0.704429163289     0.161942606551
    H           -1.798004027191    -1.322751376771    -0.792625360689
    H           -2.563162733598     0.165132801800    -0.210148445760
    H           -1.922293891516    -1.032860038518     0.926399760851
    C            1.860106363157    -0.184136873907     0.151479628010
    H            2.028830610823     0.412170761671    -0.731654932606
    H            2.519701902057    -1.036341529486     0.166256020020
    H            2.028443469841     0.429982419360     1.024745650658

  Mulliken Charges: (a.u.)
   Center  Symbol    Alpha    Beta     Spin     Total
       1     O     4.19680  4.19680  0.00000 -0.39360
       2     C     2.80149  2.80149  0.00000  0.39702
       3     C     3.13810  3.13810  0.00000 -0.27620
       4     O     4.14787  4.14787  0.00000 -0.29574
       5     H     0.44560  0.44560  0.00000  0.10881
       6     H     0.43787  0.43787  0.00000  0.12425
       7     H     0.44527  0.44527  0.00000  0.10945
       8     C     3.03359  3.03359  0.00000 -0.06717
       9     H     0.45201  0.45201  0.00000  0.09599
      10     H     0.44570  0.44570  0.00000  0.10860
      11     H     0.45570  0.45570  0.00000  0.08859

   Total alpha = 20.00000, Total beta = 20.00000, Total charge =  0.00000
