  ==> Input File <==

--------------------------------------------------------------------------
set {
	reference rhf
	basis cc-pvtz
}

set_num_threads( 4 )
memory 2 gb

molecule MOL {
0 1

H	 -1.267710	 1.380451	 -1.958572
C	 -0.992181	 0.765941	 -1.127671
C	 -1.916281	 0.457748	 -0.078762
C	 0.238932	 0.256989	 -1.036231
H	 -2.914317	 0.851657	 -0.122536
C	 -1.546008	 -0.312941	 0.948620
H	 0.986240	 0.442950	 -1.781945
N	 0.640204	 -0.530428	 -0.000115
H	 -2.209886	 -0.563918	 1.750018
C	 -0.202946	 -0.866237	 1.044949
C	 2.006991	 -1.033007	 -0.000020
O	 0.166991	 -1.562057	 1.951164
H	 2.182444	 -1.636914	 -0.880881
H	 2.678769	 -0.195442	 -0.002236
H	 2.183828	 -1.633244	 0.883082

	symmetry c1
}
set optking {
	frozen_dihedral = ("
		10 8 11 13
	")
}

ee = optimize('scf')
oeprop('DIPOLE', 'QUADRUPOLE', 'MULLIKEN_CHARGES')
f=open( 'psi4out.xyz', 'w' )
f.write( "15  " )
f.write( str(ee) + "\n" )
f.write( MOL.save_string_xyz() )
f.close()
--------------------------------------------------------------------------

    Molecular point group: c1
  Charge       = 0
  Multiplicity = 1
  Basis Set: CC-PVTZ
  Basis Set:
  @DF-RHF Final Energy:  -360.72224575614672
    Total Energy =                       -360.7222457561468332
    Molecular point group: c1
  Basis Set: CC-PVTZ
  Basis Set:
  Basis Set: CC-PVTZ
  Basis Set:
  @DF-RHF Final Energy:  -360.72250288148712
    Total Energy =                       -360.7225028814871166
  Basis Set: CC-PVTZ
  Basis Set:
  Basis Set: CC-PVTZ
  Basis Set:
  @DF-RHF Final Energy:  -360.72253122849105
    Total Energy =                       -360.7225312284913343
  Basis Set: CC-PVTZ
  Basis Set:
  Basis Set: CC-PVTZ
  Basis Set:
  @DF-RHF Final Energy:  -360.72252939319139
    Total Energy =                       -360.7225293931913939
  Basis Set: CC-PVTZ
  Basis Set:
  Charge       = 0
  Multiplicity = 1
  Basis Set: CC-PVTZ
  Basis Set:

    Orbital Energies (a.u.)
    -----------------------

    Doubly Occupied:

       1A    -20.501772     2A    -15.616378     3A    -11.339706
       4A    -11.293130     5A    -11.263341     6A    -11.258228
       7A    -11.230779     8A    -11.228427     9A     -1.390521
      10A     -1.285771    11A     -1.118807    12A     -1.028853
      13A     -0.972272    14A     -0.875700    15A     -0.838538
      16A     -0.719086    17A     -0.703178    18A     -0.663342
      19A     -0.652662    20A     -0.625142    21A     -0.611948
      22A     -0.573858    23A     -0.558546    24A     -0.550467
      25A     -0.529221    26A     -0.482672    27A     -0.420024
      28A     -0.410903    29A     -0.311079

  @DF-RHF Final Energy:  -360.72253156897301

   => Energetics <=

    Nuclear Repulsion Energy =            358.4284208252610711
    One-Electron Energy =               -1200.1932041468571697
    Two-Electron Energy =                 481.0422517526229171
    DFT Exchange-Correlation Energy =       0.0000000000000000
    Empirical Dispersion Energy =           0.0000000000000000
    PCM Polarization Energy =               0.0000000000000000
    EFP Energy =                            0.0000000000000000
    Total Energy =                       -360.7225315689731246
    Molecular point group: c1
  Basis Set: CC-PVTZ
  Basis Set:

  -Total Gradient:
     Atom            X                  Y                   Z
    ------   -----------------  -----------------  -----------------
       1        0.000004071712     0.000001708933     0.000005822007
       2        0.000002656330     0.000015476226     0.000016800945
       3       -0.000005365185    -0.000019674248    -0.000009692990
       4        0.000002466730    -0.000042079423    -0.000020579944
       5       -0.000001400627     0.000003626112     0.000008398397
       6        0.000001927144    -0.000001677610     0.000006614787
       7        0.000007789484     0.000004051078     0.000005368552
       8       -0.000008406023     0.000027958605    -0.000000714256
       9       -0.000005800189     0.000003806889    -0.000000558522
      10       -0.000005817245     0.000012894716    -0.000013834636
      11        0.000018661772     0.000012975756    -0.000013493204
      12       -0.000001971484    -0.000006469350     0.000002867777
      13       -0.000007192613    -0.000003057584     0.000004586297
      14       -0.000006834933    -0.000004050395     0.000000662634
      15        0.000005215125    -0.000005489704     0.000007752157

  **** Optimization is complete! (in 5 steps) ****
    Final optimized geometry and variables:
    Molecular point group: c1

    Geometry (in Angstrom), charge = 0, multiplicity = 1:

    H           -1.127926838875     1.768018493524    -2.198089957751
    C           -0.851146970182     1.154295056696    -1.367012312957
    C           -1.774303628796     0.845476075612    -0.317164055305
    C            0.380611846472     0.646819054588    -1.276364841295
    H           -2.772877388056     1.238109332430    -0.360340910456
    C           -1.402222484178     0.075952799532     0.710278726717
    H            1.127071035940     0.833387083226    -2.022805248403
    N            0.783771079555    -0.139467648019    -0.240086904743
    H           -2.064992536930    -0.175558070574     1.512525343514
    C           -0.058025670421    -0.475428538179     0.806053899828
    C            2.151300353826    -0.639839776826    -0.240572727483
    O            0.313500222610    -1.169807714804     1.712510985681
    H            2.327022141504    -1.244470755338    -1.120909733334
    H            2.851052721042     0.185847886761    -0.231336122162
    H            2.295855222445    -1.239368435137     0.638418530119

  Mulliken Charges: (a.u.)
   Center  Symbol    Alpha    Beta     Spin     Total
       1     H     0.41416  0.41416  0.00000  0.17168
       2     C     3.10190  3.10190  0.00000 -0.20380
       3     C     3.06196  3.06196  0.00000 -0.12392
       4     C     3.03304  3.03304  0.00000 -0.06609
       5     H     0.41832  0.41832  0.00000  0.16336
       6     C     3.11586  3.11586  0.00000 -0.23172
       7     H     0.42020  0.42020  0.00000  0.15959
       8     N     3.51285  3.51285  0.00000 -0.02571
       9     H     0.40887  0.40887  0.00000  0.18227
      10     C     2.84559  2.84559  0.00000  0.30882
      11     C     3.11045  3.11045  0.00000 -0.22089
      12     O     4.23663  4.23663  0.00000 -0.47327
      13     H     0.44986  0.44986  0.00000  0.10027
      14     H     0.44977  0.44977  0.00000  0.10047
      15     H     0.42053  0.42053  0.00000  0.15894

   Total alpha = 29.00000, Total beta = 29.00000, Total charge = -0.00000
