  ==> Input File <==

--------------------------------------------------------------------------
set {
	reference rhf
	basis 6-31G*
}

set_num_threads( 1 )
memory 2 gb

molecule MOL {
0 1

O	 3.225979	 0.970355	 -0.599647
C	 2.701189	 0.057885	 -0.047330
C	 1.245376	 -0.013843	 0.345420
O	 3.347903	 -1.046386	 0.304773
C	 0.380886	 1.026576	 -0.363313
H	 0.910887	 -1.026128	 0.143953
H	 1.195686	 0.105920	 1.424718
C	 -1.079212	 1.036196	 0.101999
H	 0.424228	 0.858754	 -1.435263
H	 0.813365	 2.007129	 -0.196281
C	 -1.874126	 -0.227029	 -0.240763
H	 -1.572427	 1.891411	 -0.354147
H	 -1.115975	 1.205310	 1.177200
C	 -3.350889	 -0.123911	 0.145937
H	 -1.795037	 -0.420418	 -1.309484
H	 -1.439875	 -1.090059	 0.258812
C	 -4.153986	 -1.382568	 -0.187156
H	 -3.796660	 0.730336	 -0.360803
H	 -3.430419	 0.080134	 1.212586
C	 -5.628493	 -1.269966	 0.198655
H	 -4.074769	 -1.588490	 -1.252502
H	 -3.712525	 -2.236804	 0.321935
H	 -6.170880	 -2.177017	 -0.049702
H	 -6.107848	 -0.445250	 -0.321208
H	 -5.742677	 -1.097948	 1.265260
C	 4.728119	 -1.109107	 -0.004993
H	 4.882018	 -1.033965	 -1.071845
H	 5.068212	 -2.067527	 0.355250
H	 5.265056	 -0.311663	 0.488280

	symmetry c1
}
set optking {
	frozen_dihedral = ("
		21 17 14 11,
		17 14 11 15,
		15 11 8 5,
		6 3 5 9,
		11 8 5 9,
		2 4 26 27,
		1 2 4 26
	")
}

ee = energy('scf')
oeprop('DIPOLE', 'QUADRUPOLE', 'MULLIKEN_CHARGES')
f=open( 'psi4out.xyz', 'w' )
f.write( "29  " )
f.write( str(ee) + "\n" )
f.write( MOL.save_string_xyz() )
f.close()
--------------------------------------------------------------------------

    Molecular point group: c1

    Geometry (in Angstrom), charge = 0, multiplicity = 1:

       Center              X                  Y                   Z               Mass
    ------------   -----------------  -----------------  -----------------  -----------------
           O          3.224614423106     1.172424332495    -0.567800357017    15.994914619560
           C          2.699824423106     0.259954332495    -0.015483357017    12.000000000000
           C          1.244011423106     0.188226332495     0.377266642983    12.000000000000
           O          3.346538423106    -0.844316667505     0.336619642983    15.994914619560
           C          0.379521423106     1.228645332495    -0.331466357017    12.000000000000
           H          0.909522423106    -0.824058667505     0.175799642983     1.007825032070
           H          1.194321423106     0.307989332495     1.456564642983     1.007825032070
           C         -1.080576576894     1.238265332495     0.133845642983    12.000000000000
           H          0.422863423106     1.060823332495    -1.403416357017     1.007825032070
           H          0.812000423106     2.209198332495    -0.164434357017     1.007825032070
           C         -1.875490576894    -0.024959667505    -0.208916357017    12.000000000000
           H         -1.573791576894     2.093480332495    -0.322300357017     1.007825032070
           H         -1.117339576894     1.407379332495     1.209046642983     1.007825032070
           C         -3.352253576894     0.078158332495     0.177783642983    12.000000000000
           H         -1.796401576894    -0.218348667505    -1.277637357017     1.007825032070
           H         -1.441239576894    -0.887989667505     0.290658642983     1.007825032070
           C         -4.155350576894    -1.180498667505    -0.155309357017    12.000000000000
           H         -3.798024576894     0.932405332495    -0.328956357017     1.007825032070
           H         -3.431783576894     0.282203332495     1.244432642983     1.007825032070
           C         -5.629857576894    -1.067896667505     0.230501642983    12.000000000000
           H         -4.076133576894    -1.386420667505    -1.220655357017     1.007825032070
           H         -3.713889576894    -2.034734667505     0.353781642983     1.007825032070
           H         -6.172244576894    -1.974947667505    -0.017855357017     1.007825032070
           H         -6.109212576894    -0.243180667505    -0.289361357017     1.007825032070
           H         -5.744041576894    -0.895878667505     1.297106642983     1.007825032070
           C          4.726754423106    -0.907037667505     0.026853642983    12.000000000000
           H          4.880653423106    -0.831895667505    -1.039998357017     1.007825032070
           H          5.066847423106    -1.865457667505     0.387096642983     1.007825032070
           H          5.263691423106    -0.109593667505     0.520126642983     1.007825032070

  Charge       = 0
  Multiplicity = 1
  Basis Set: 6-31G*
  Basis Set:

    Orbital Energies (a.u.)
    -----------------------

    Doubly Occupied:

       1A    -20.603799     2A    -20.544967     3A    -11.372022
       4A    -11.280651     5A    -11.234443     6A    -11.219673
       7A    -11.217879     8A    -11.216056     9A    -11.215919
      10A    -11.214531    11A    -11.209117    12A     -1.469176
      13A     -1.362503    14A     -1.098236    15A     -1.066907
      16A     -1.019547    17A     -0.977304    18A     -0.928628
      19A     -0.861720    20A     -0.799366    21A     -0.790520
      22A     -0.764661    23A     -0.700495    24A     -0.681928
      25A     -0.672232    26A     -0.650873    27A     -0.628151
      28A     -0.605070    29A     -0.595513    30A     -0.581032
      31A     -0.565066    32A     -0.552005    33A     -0.531687
      34A     -0.530267    35A     -0.515603    36A     -0.512601
      37A     -0.496297    38A     -0.477991    39A     -0.470439
      40A     -0.462679    41A     -0.459142    42A     -0.455413
      43A     -0.440377    44A     -0.435676

  @DF-RHF Final Energy:  -501.04386296284656

   => Energetics <=

    Nuclear Repulsion Energy =            610.3940424342376900
    One-Electron Energy =               -1891.8994495450551767
    Two-Electron Energy =                 780.4615441479731999
    DFT Exchange-Correlation Energy =       0.0000000000000000
    Empirical Dispersion Energy =           0.0000000000000000
    PCM Polarization Energy =               0.0000000000000000
    EFP Energy =                            0.0000000000000000
    Total Energy =                       -501.0438629628442868

  Mulliken Charges: (a.u.)
   Center  Symbol    Alpha    Beta     Spin     Total
       1     O     4.28596  4.28596  0.00000 -0.57192
       2     C     2.60391  2.60391  0.00000  0.79218
       3     C     3.21112  3.21112  0.00000 -0.42224
       4     O     4.30718  4.30718  0.00000 -0.61436
       5     C     3.15520  3.15520  0.00000 -0.31040
       6     H     0.39912  0.39912  0.00000  0.20176
       7     H     0.40046  0.40046  0.00000  0.19908
       8     C     3.15665  3.15665  0.00000 -0.31330
       9     H     0.41562  0.41562  0.00000  0.16876
      10     H     0.40536  0.40536  0.00000  0.18928
      11     C     3.15498  3.15498  0.00000 -0.30996
      12     H     0.41820  0.41820  0.00000  0.16360
      13     H     0.42358  0.42358  0.00000  0.15285
      14     C     3.15033  3.15033  0.00000 -0.30065
      15     H     0.42292  0.42292  0.00000  0.15416
      16     H     0.42327  0.42327  0.00000  0.15346
      17     C     3.15144  3.15144  0.00000 -0.30288
      18     H     0.42336  0.42336  0.00000  0.15329
      19     H     0.42395  0.42395  0.00000  0.15210
      20     C     3.23935  3.23935  0.00000 -0.47870
      21     H     0.42287  0.42287  0.00000  0.15426
      22     H     0.42338  0.42338  0.00000  0.15324
      23     H     0.41923  0.41923  0.00000  0.16154
      24     H     0.42156  0.42156  0.00000  0.15689
      25     H     0.42181  0.42181  0.00000  0.15639
      26     C     3.09265  3.09265  0.00000 -0.18529
      27     H     0.40893  0.40893  0.00000  0.18214
      28     H     0.40850  0.40850  0.00000  0.18301
      29     H     0.40914  0.40914  0.00000  0.18171

   Total alpha = 44.00000, Total beta = 44.00000, Total charge =  0.00000
