  ==> Input File <==

--------------------------------------------------------------------------
set {
	reference rhf
	basis 6-31G*
}

set_num_threads( 4 )
memory 2 gb

molecule MOL {
0 1

H	 -0.899202	 1.454297	 4.535500
O	 -0.008588	 1.454249	 4.854684
C	 0.500481	 0.144816	 4.837696
C	 0.805315	 -0.363447	 3.432893
H	 1.411817	 0.175764	 5.420948
H	 -0.183353	 -0.536462	 5.342682
C	 -0.428327	 -0.490806	 2.535800
H	 1.524280	 0.308550	 2.971507
H	 1.289933	 -1.334367	 3.521356
C	 -0.096891	 -1.054337	 1.151097
H	 -0.894059	 0.484870	 2.428486
H	 -1.161694	 -1.137143	 3.018255
C	 -1.309753	 -1.282496	 0.241564
H	 0.606423	 -0.389454	 0.652973
H	 0.421195	 -2.002550	 1.278293
C	 -2.037799	 -0.007733	 -0.193645
H	 -0.974837	 -1.811383	 -0.648338
H	 -2.013256	 -1.947210	 0.740639
C	 -3.489788	 0.042957	 0.286558
H	 -2.017067	 0.064384	 -1.280144
H	 -1.513726	 0.868678	 0.179924
C	 -4.216917	 1.317354	 -0.141063
H	 -4.025645	 -0.823308	 -0.095450
H	 -3.513059	 -0.038752	 1.371301
H	 -4.239342	 1.411634	 -1.223113
H	 -5.243387	 1.322503	 0.212445
H	 -3.726170	 2.201406	 0.256408

	symmetry c1
}
set optking {
	frozen_dihedral = ("
		10 13 16 20
	")
}

ee = optimize('scf')
oeprop('DIPOLE', 'QUADRUPOLE', 'MULLIKEN_CHARGES')
f=open( 'psi4out.xyz', 'w' )
f.write( "27  " )
f.write( str(ee) + "\n" )
f.write( MOL.save_string_xyz() )
f.close()
--------------------------------------------------------------------------

    Molecular point group: c1
  Charge       = 0
  Multiplicity = 1
  Basis Set: 6-31G*
  Basis Set:
  @DF-RHF Final Energy:  -388.27638974064121
    Total Energy =                       -388.2763897406410933
    Molecular point group: c1
  Basis Set: 6-31G*
  Basis Set:
  Basis Set: 6-31G*
  Basis Set:
  @DF-RHF Final Energy:  -388.27667063138745
    Total Energy =                       -388.2766706313871055
  Basis Set: 6-31G*
  Basis Set:
  Basis Set: 6-31G*
  Basis Set:
  @DF-RHF Final Energy:  -388.27661342764287
    Total Energy =                       -388.2766134276430421
  Basis Set: 6-31G*
  Basis Set:
  Basis Set: 6-31G*
  Basis Set:
  @DF-RHF Final Energy:  -388.27678180325199
    Total Energy =                       -388.2767818032509695
  Basis Set: 6-31G*
  Basis Set:
  Basis Set: 6-31G*
  Basis Set:
  @DF-RHF Final Energy:  -388.27676963335222
    Total Energy =                       -388.2767696333523872
  Basis Set: 6-31G*
  Basis Set:
  Basis Set: 6-31G*
  Basis Set:
  @DF-RHF Final Energy:  -388.27678511771649
    Total Energy =                       -388.2767851177165994
  Basis Set: 6-31G*
  Basis Set:
  Charge       = 0
  Multiplicity = 1
  Basis Set: 6-31G*
  Basis Set:

    Orbital Energies (a.u.)
    -----------------------

    Doubly Occupied:

       1A    -20.552498     2A    -11.267231     3A    -11.220058
       4A    -11.217385     5A    -11.217204     6A    -11.215408
       7A    -11.215330     8A    -11.214218     9A    -11.209735
      10A     -1.359239    11A     -1.094569    12A     -1.060482
      13A     -1.011379    14A     -0.947848    15A     -0.888789
      16A     -0.823198    17A     -0.797966    18A     -0.780336
      19A     -0.694110    20A     -0.650632    21A     -0.636614
      22A     -0.612266    23A     -0.599454    24A     -0.588776
      25A     -0.578336    26A     -0.556235    27A     -0.545227
      28A     -0.520136    29A     -0.508063    30A     -0.494414
      31A     -0.485936    32A     -0.478319    33A     -0.469624
      34A     -0.459944    35A     -0.447573    36A     -0.441454
      37A     -0.423126

  @DF-RHF Final Energy:  -388.27678520956425

   => Energetics <=

    Nuclear Repulsion Energy =            467.2269155122642701
    One-Electron Energy =               -1452.4411775432863578
    Two-Electron Energy =                 596.9374768214579490
    DFT Exchange-Correlation Energy =       0.0000000000000000
    Empirical Dispersion Energy =           0.0000000000000000
    PCM Polarization Energy =               0.0000000000000000
    EFP Energy =                            0.0000000000000000
    Total Energy =                       -388.2767852095641956
    Molecular point group: c1
  Basis Set: 6-31G*
  Basis Set:

  -Total Gradient:
     Atom            X                  Y                   Z
    ------   -----------------  -----------------  -----------------
       1       -0.000004169625     0.000008089655    -0.000000353897
       2       -0.000021113365    -0.000009811099    -0.000002650972
       3        0.000035382724     0.000018503072    -0.000003729080
       4       -0.000009999838    -0.000011928749     0.000006524139
       5        0.000004029318    -0.000004116874     0.000001674890
       6        0.000000365771     0.000002079107    -0.000004898984
       7        0.000002086070    -0.000029400884     0.000006621603
       8        0.000001635682     0.000004461598     0.000016004021
       9       -0.000006026234    -0.000001439986    -0.000006278562
      10        0.000107100854     0.000037362989    -0.000158811462
      11       -0.000011557996    -0.000001842847    -0.000012838808
      12        0.000010458997     0.000008129851     0.000014249930
      13       -0.000121430215     0.000036975642     0.000216332389
      14        0.000008390251    -0.000006120252    -0.000000343924
      15       -0.000007836226    -0.000001136060     0.000001619184
      16       -0.000213172022    -0.000163478696    -0.000068332431
      17       -0.000008057110     0.000014890204    -0.000014486375
      18       -0.000011154732     0.000001703710     0.000000362132
      19        0.000026027979    -0.000016298591     0.000005439490
      20        0.000219803525     0.000115628324    -0.000001970142
      21        0.000002834017    -0.000003826498     0.000008203406
      22        0.000000849565    -0.000001244071    -0.000000888929
      23        0.000000342781    -0.000001504622     0.000001075138
      24       -0.000002101443     0.000002198687    -0.000001917764
      25       -0.000000206199     0.000000097345     0.000001275825
      26       -0.000002391071     0.000003978880    -0.000000703813
      27       -0.000000091461    -0.000001949834    -0.000001177008

  **** Optimization is complete! (in 7 steps) ****
    Final optimized geometry and variables:
    Molecular point group: c1

    Geometry (in Angstrom), charge = 0, multiplicity = 1:

    H            0.137918173267     1.335118050206     2.628907037488
    O            1.034721672344     1.414842923163     2.919602484468
    C            1.657375766007     0.155810047544     2.884231787020
    C            1.966018797836    -0.321792988235     1.469593939639
    H            2.578457949460     0.267143039145     3.441774643313
    H            1.051214414026    -0.583871236525     3.405908725639
    C            0.723707926988    -0.549388367296     0.605067635535
    H            2.613684399667     0.408914149873     0.992255585935
    H            2.532105862266    -1.249123424253     1.540515453736
    C            1.057987954930    -1.094960998188    -0.785662085607
    H            0.179757498619     0.386718383694     0.505835155948
    H            0.054711866985    -1.247401070384     1.108262633620
    C           -0.164070477905    -1.320562583053    -1.684013310341
    H            1.748747832243    -0.416487002530    -1.282876048587
    H            1.588021475529    -2.038163440151    -0.670773396172
    C           -0.888288158175    -0.027743494812    -2.126160123837
    H            0.158555996625    -1.871437385896    -2.562720984565
    H           -0.863132049089    -1.974718114085    -1.166797527872
    C           -2.337546410859     0.069950198278    -1.642616712880
    H           -0.878767984635     0.042720418278    -3.210840058318
    H           -0.340558433142     0.843152235766    -1.773297195531
    C           -3.031334862091     1.355851782905    -2.089165881589
    H           -2.895715639485    -0.788463235940    -2.010270027132
    H           -2.361629518296     0.003549252223    -0.556681559739
    H           -3.053508300141     1.432864182862    -3.172601946414
    H           -4.056634755505     1.394501749167    -1.734200250952
    H           -2.515895031338     2.232985717435    -1.707781866927

  Mulliken Charges: (a.u.)
   Center  Symbol    Alpha    Beta     Spin     Total
       1     H     0.27987  0.27987  0.00000  0.44026
       2     O     4.37095  4.37095  0.00000 -0.74189
       3     C     2.99751  2.99751  0.00000  0.00497
       4     C     3.16076  3.16076  0.00000 -0.32151
       5     H     0.41441  0.41441  0.00000  0.17118
       6     H     0.43195  0.43195  0.00000  0.13610
       7     C     3.16305  3.16305  0.00000 -0.32609
       8     H     0.41506  0.41506  0.00000  0.16988
       9     H     0.42419  0.42419  0.00000  0.15162
      10     C     3.15315  3.15315  0.00000 -0.30630
      11     H     0.42317  0.42317  0.00000  0.15366
      12     H     0.42534  0.42534  0.00000  0.14932
      13     C     3.15751  3.15751  0.00000 -0.31501
      14     H     0.42144  0.42144  0.00000  0.15712
      15     H     0.42224  0.42224  0.00000  0.15551
      16     C     3.15611  3.15611  0.00000 -0.31222
      17     H     0.41833  0.41833  0.00000  0.16333
      18     H     0.42146  0.42146  0.00000  0.15708
      19     C     3.15287  3.15287  0.00000 -0.30574
      20     H     0.42018  0.42018  0.00000  0.15964
      21     H     0.42095  0.42095  0.00000  0.15810
      22     C     3.24019  3.24019  0.00000 -0.48038
      23     H     0.42211  0.42211  0.00000  0.15577
      24     H     0.42494  0.42494  0.00000  0.15013
      25     H     0.42116  0.42116  0.00000  0.15768
      26     H     0.41932  0.41932  0.00000  0.16136
      27     H     0.42178  0.42178  0.00000  0.15644

   Total alpha = 37.00000, Total beta = 37.00000, Total charge = -0.00000
