                              Psi4 1.0.54 Driver

  ==> Input File <==

--------------------------------------------------------------------------
set {
	reference rhf
	basis cc-pvtz
}

set_num_threads( 4 )
memory 2 gb

molecule MOL {
0 1

H	 2.190573	 -0.629143	 -0.208718
O	 1.355408	 -0.529451	 0.208662
C	 0.700177	 0.619554	 -0.266242
C	 -0.713111	 0.588314	 0.266177
H	 0.678680	 0.627133	 -1.351786
H	 1.199747	 1.521489	 0.077736
O	 -1.421673	 -0.521378	 -0.196983
H	 -1.244794	 1.469161	 -0.069059
H	 -0.685100	 0.604721	 1.352683
H	 -0.975539	 -1.300575	 0.085576

	symmetry c1
}
set optking {
	frozen_dihedral = ("
		10 7 4 3
	")
}

ee,wfn = optimize('scf', return_wfn=True)
oeprop( wfn, 'DIPOLE', 'QUADRUPOLE', 'MULLIKEN_CHARGES')
f=open( 'psi4out.xyz', 'w' )
f.write( "10  " )
f.write( str(ee) + "\n" )
f.write( MOL.save_string_xyz() )
f.close()
--------------------------------------------------------------------------

    Molecular point group: c1
  Charge       = 0
  Multiplicity = 1
  Basis Set: CC-PVTZ
  Basis Set:
  @DF-RHF Final Energy:  -229.02882595602935
    Total Energy =                       -229.0288259560292943
    Molecular point group: c1
  Basis Set: CC-PVTZ
  Basis Set:
  Basis Set: CC-PVTZ
  Basis Set:
  @DF-RHF Final Energy:  -229.02883109620666
    Total Energy =                       -229.0288310962066021
  Basis Set: CC-PVTZ
  Basis Set:
  Charge       = 0
  Multiplicity = 1
  Basis Set: CC-PVTZ
  Basis Set:

    Orbital Energies (a.u.)
    -----------------------

    Doubly Occupied:

       1A    -20.559496     2A    -20.543165     3A    -11.272925
       4A    -11.266894     5A     -1.384047     6A     -1.356158
       7A     -1.003638     8A     -0.844158     9A     -0.729453
      10A     -0.684180    11A     -0.648599    12A     -0.606997
      13A     -0.577891    14A     -0.531841    15A     -0.493919
      16A     -0.455261    17A     -0.436693

  @DF-RHF Final Energy:  -229.02883610880014

   => Energetics <=

    Nuclear Repulsion Energy =            134.4267302125767287
    One-Electron Energy =                -580.1205014377089810
    Two-Electron Energy =                 216.6649351163322592
    DFT Exchange-Correlation Energy =       0.0000000000000000
    Empirical Dispersion Energy =           0.0000000000000000
    PCM Polarization Energy =               0.0000000000000000
    EFP Energy =                            0.0000000000000000
    Total Energy =                       -229.0288361087999931
    Molecular point group: c1
  Basis Set: CC-PVTZ
  Basis Set:

  -Total Gradient:
     Atom            X                  Y                   Z
    ------   -----------------  -----------------  -----------------
       1        0.000013492184    -0.000009491657     0.000007941713
       2        0.000050777569    -0.000096352662     0.000005704617
       3       -0.000174583963     0.000376330432    -0.000362103640
       4        0.000082558297    -0.000336258544     0.000638008402
       5       -0.000018224790    -0.000021222692     0.000031692791
       6        0.000024078945     0.000031887073    -0.000011831514
       7        0.000424204379     0.000079400193    -0.000942844984
       8       -0.000008487561     0.000036505056     0.000016378966
       9        0.000034731112     0.000006489233    -0.000024292901
      10       -0.000428546170    -0.000067286432     0.000641346550

  **** Optimization is complete! (in 3 steps) ****
    Final optimized geometry and variables:
    Molecular point group: c1

    Geometry (in Angstrom), charge = 0, multiplicity = 1:

    H            2.195252492768    -0.627001384924    -0.206315656766
    O            1.362215505322    -0.525164612234     0.214820319344
    C            0.700035301636     0.615579669402    -0.269734425639
    C           -0.711893950383     0.584908374300     0.266209851409
    H            0.674055437933     0.612401878027    -1.355075096603
    H            1.197207573604     1.523323734715     0.063229617543
    O           -1.426348610067    -0.518586433374    -0.203463725261
    H           -1.241258043644     1.469526996040    -0.063091205553
    H           -0.681823206814     0.595872224484     1.352557082538
    H           -0.984396442255    -1.303042396263     0.070424371008

  Mulliken Charges: (a.u.)
   Center  Symbol    Alpha    Beta     Spin     Total
       1     H     0.39105  0.39105  0.00000  0.21790
       2     O     4.20678  4.20678  0.00000 -0.41355
       3     C     2.97217  2.97217  0.00000  0.05567
       4     C     2.96607  2.96607  0.00000  0.06786
       5     H     0.46955  0.46955  0.00000  0.06089
       6     H     0.47262  0.47262  0.00000  0.05476
       7     O     4.20907  4.20907  0.00000 -0.41814
       8     H     0.45774  0.45774  0.00000  0.08453
       9     H     0.46926  0.46926  0.00000  0.06147
      10     H     0.38569  0.38569  0.00000  0.22862

   Total alpha = 17.00000, Total beta = 17.00000, Total charge = -0.00000

*** Psi4 exiting successfully. Buy a developer a beer!
