  ==> Input File <==

--------------------------------------------------------------------------
set {
	reference rhf
	basis 6-31G*
}

set_num_threads( 4 )
memory 2 gb

molecule MOL {
0 1

H	 1.939929	 -1.344014	 -1.021439
C	 1.119242	 -0.677168	 -1.230829
O	 0.464886	 -0.454746	 -0.000158
H	 0.453269	 -1.143007	 -1.947417
H	 1.505717	 0.248965	 -1.639455
C	 -0.590998	 0.343045	 0.000118
O	 -1.699443	 -0.054298	 0.000227
H	 -0.340329	 1.404368	 0.000207

	symmetry c1
}
set optking {
	frozen_dihedral = ("
		2 3 6 7
	")
}

ee = optimize('scf')
oeprop('DIPOLE', 'QUADRUPOLE', 'MULLIKEN_CHARGES')
f=open( 'psi4out.xyz', 'w' )
f.write( "8  " )
f.write( str(ee) + "\n" )
f.write( MOL.save_string_xyz() )
f.close()
--------------------------------------------------------------------------

    Molecular point group: c1
  Charge       = 0
  Multiplicity = 1
  Basis Set: 6-31G*
  Basis Set:
  @DF-RHF Final Energy:  -227.76838825521207
    Total Energy =                       -227.7683882552120451
    Molecular point group: c1
  Basis Set: 6-31G*
  Basis Set:
  Basis Set: 6-31G*
  Basis Set:
  @DF-RHF Final Energy:  -227.76848383597297
    Total Energy =                       -227.7684838359729724
  Basis Set: 6-31G*
  Basis Set:
  Basis Set: 6-31G*
  Basis Set:
  @DF-RHF Final Energy:  -227.76798915815891
    Total Energy =                       -227.7679891581589686
  Basis Set: 6-31G*
  Basis Set:
  Basis Set: 6-31G*
  Basis Set:
  @DF-RHF Final Energy:  -227.76882899670483
    Total Energy =                       -227.7688289967048547
  Basis Set: 6-31G*
  Basis Set:
  Basis Set: 6-31G*
  Basis Set:
  @DF-RHF Final Energy:  -227.76883739681688
    Total Energy =                       -227.7688373968169344
  Basis Set: 6-31G*
  Basis Set:
  Charge       = 0
  Multiplicity = 1
  Basis Set: 6-31G*
  Basis Set:

    Orbital Energies (a.u.)
    -----------------------

    Doubly Occupied:

       1A    -20.598087     2A    -20.574197     3A    -11.383967
       4A    -11.300521     5A     -1.470320     6A     -1.382917
       7A     -0.986133     8A     -0.837119     9A     -0.737587
      10A     -0.686729    11A     -0.667761    12A     -0.626257
      13A     -0.564269    14A     -0.510751    15A     -0.473542
      16A     -0.457563

  @DF-RHF Final Energy:  -227.76883792628780

   => Energetics <=

    Nuclear Repulsion Energy =            121.6505632695489254
    One-Electron Energy =                -552.3233616917659674
    Two-Electron Energy =                 202.9039604959291410
    DFT Exchange-Correlation Energy =       0.0000000000000000
    Empirical Dispersion Energy =           0.0000000000000000
    PCM Polarization Energy =               0.0000000000000000
    EFP Energy =                            0.0000000000000000
    Total Energy =                       -227.7688379262879153
    Molecular point group: c1
  Basis Set: 6-31G*
  Basis Set:

  -Total Gradient:
     Atom            X                  Y                   Z
    ------   -----------------  -----------------  -----------------
       1       -0.000014716273     0.000016572834     0.000023319289
       2       -0.000930323186    -0.001144826116    -0.000287238911
       3        0.001329154162     0.001648852625    -0.000532425711
       4        0.000021034488    -0.000007209004    -0.000027676532
       5        0.000012470578     0.000009040594    -0.000000263673
       6       -0.000475208576    -0.000519211203     0.002750638549
       7        0.000060355893     0.000015064652    -0.001912772924
       8       -0.000002767084    -0.000018284382    -0.000013580086

  **** Optimization is complete! (in 6 steps) ****
    Final optimized geometry and variables:
    Molecular point group: c1

    Geometry (in Angstrom), charge = 0, multiplicity = 1:

    H            2.134148037013    -1.095614612943    -0.701012567920
    C            1.282579207267    -0.464292775256    -0.897416972027
    O            0.632470937242    -0.268642052631     0.343029031529
    H            0.618333995268    -0.952485198535    -1.599254327450
    H            1.623823585271     0.479061526836    -1.312975496478
    C           -0.424106745551     0.557024889698     0.323009334473
    O           -1.543266396484     0.196557856927     0.293760197785
    H           -0.143005262733     1.608921380538     0.346308551028

  Mulliken Charges: (a.u.)
   Center  Symbol    Alpha    Beta     Spin     Total
       1     H     0.39960  0.39960  0.00000  0.20081
       2     C     3.09456  3.09456  0.00000 -0.18913
       3     O     4.29458  4.29458  0.00000 -0.58915
       4     H     0.40824  0.40824  0.00000  0.18352
       5     H     0.42005  0.42005  0.00000  0.15989
       6     C     2.73458  2.73458  0.00000  0.53084
       7     O     4.22389  4.22389  0.00000 -0.44777
       8     H     0.42451  0.42451  0.00000  0.15099

   Total alpha = 16.00000, Total beta = 16.00000, Total charge = -0.00000
