                              Psi4 1.0.54 Driver

  ==> Input File <==

--------------------------------------------------------------------------
set {
	reference rhf
	basis cc-pvtz
}

set_num_threads( 4 )
memory 2 gb

molecule MOL {
0 1

H	 -3.144994	 -1.202467	 -0.018751
O	 -2.321472	 -0.864941	 -0.318626
C	 -2.021813	 0.336996	 0.342658
C	 -0.669613	 0.837286	 -0.127252
H	 -2.780861	 1.084746	 0.127159
H	 -2.006390	 0.184138	 1.420053
C	 0.490865	 -0.082543	 0.241244
H	 -0.708709	 0.967192	 -1.204587
H	 -0.507562	 1.822272	 0.303070
C	 1.839800	 0.429565	 -0.255472
H	 0.305636	 -1.070211	 -0.165276
H	 0.527397	 -0.195943	 1.322876
C	 1.932900	 0.490075	 -1.776477
H	 2.019894	 1.419380	 0.155059
H	 2.632616	 -0.207538	 0.128236
H	 1.174647	 1.147822	 -2.187982
H	 2.900530	 0.858987	 -2.097259
H	 1.790897	 -0.491479	 -2.216741

	symmetry c1
}
set optking {
	frozen_dihedral = ("
		14 10 7 11
	")
}

ee,wfn = optimize('scf', return_wfn=True)
oeprop( wfn, 'DIPOLE', 'QUADRUPOLE', 'MULLIKEN_CHARGES')
f=open( 'psi4out.xyz', 'w' )
f.write( "18  " )
f.write( str(ee) + "\n" )
f.write( MOL.save_string_xyz() )
f.close()
--------------------------------------------------------------------------

    Molecular point group: c1
  Charge       = 0
  Multiplicity = 1
  Basis Set: CC-PVTZ
  Basis Set:
  @DF-RHF Final Energy:  -271.28447494415036
    Total Energy =                       -271.2844749441501335
    Molecular point group: c1
  Basis Set: CC-PVTZ
  Basis Set:
  Basis Set: CC-PVTZ
  Basis Set:
  @DF-RHF Final Energy:  -271.28464867948145
    Total Energy =                       -271.2846486794812790
  Basis Set: CC-PVTZ
  Basis Set:
  Basis Set: CC-PVTZ
  Basis Set:
  @DF-RHF Final Energy:  -271.28514408968329
    Total Energy =                       -271.2851440896831718
  Basis Set: CC-PVTZ
  Basis Set:
  Basis Set: CC-PVTZ
  Basis Set:
  @DF-RHF Final Energy:  -271.28516347038448
    Total Energy =                       -271.2851634703845320
  Basis Set: CC-PVTZ
  Basis Set:
  Basis Set: CC-PVTZ
  Basis Set:
  @DF-RHF Final Energy:  -271.28516475587452
    Total Energy =                       -271.2851647558745753
  Basis Set: CC-PVTZ
  Basis Set:
  Charge       = 0
  Multiplicity = 1
  Basis Set: CC-PVTZ
  Basis Set:

    Orbital Energies (a.u.)
    -----------------------

    Doubly Occupied:

       1A    -20.546160     2A    -11.265853     3A    -11.209952
       4A    -11.209525     5A    -11.205317     6A    -11.201864
       7A     -1.364035     8A     -1.076069     9A     -1.007406
      10A     -0.915471    11A     -0.829641    12A     -0.772879
      13A     -0.707316    14A     -0.643668    15A     -0.614389
      16A     -0.604190    17A     -0.565529    18A     -0.557756
      19A     -0.523746    20A     -0.503918    21A     -0.493359
      22A     -0.463416    23A     -0.456621    24A     -0.450260
      25A     -0.430208

  @DF-RHF Final Energy:  -271.28516487323350

   => Energetics <=

    Nuclear Repulsion Energy =            252.2341052723279518
    One-Electron Energy =                -867.8014437195527080
    Two-Electron Energy =                 344.2821735739911446
    DFT Exchange-Correlation Energy =       0.0000000000000000
    Empirical Dispersion Energy =           0.0000000000000000
    PCM Polarization Energy =               0.0000000000000000
    EFP Energy =                            0.0000000000000000
    Total Energy =                       -271.2851648732336116
    Molecular point group: c1
  Basis Set: CC-PVTZ
  Basis Set:

  -Total Gradient:
     Atom            X                  Y                   Z
    ------   -----------------  -----------------  -----------------
       1        0.000001723949    -0.000001319505     0.000001670612
       2        0.000012933102    -0.000019628024     0.000003664727
       3       -0.000015910965     0.000018215932    -0.000029544346
       4        0.000001076552     0.000001356787     0.000023038932
       5        0.000001604469     0.000013711225     0.000006751652
       6        0.000008110929    -0.000003944127    -0.000005279528
       7       -0.000048509433     0.000055557906    -0.000102048701
       8       -0.000006967744    -0.000002973625     0.000002601119
       9       -0.000000068202     0.000006233111     0.000000496149
      10       -0.000055305008     0.000050742965    -0.000094101301
      11        0.000051838255    -0.000059673379     0.000091051683
      12        0.000005702439     0.000000335956    -0.000002597700
      13       -0.000001150732    -0.000008614443     0.000006756996
      14        0.000045165954    -0.000049132443     0.000097332877
      15        0.000005336266     0.000001146051    -0.000002938196
      16       -0.000004905093     0.000002979004     0.000003408214
      17        0.000001263551    -0.000002949260     0.000004141227
      18       -0.000001938287    -0.000002044134    -0.000004404418

  **** Optimization is complete! (in 6 steps) ****
    Final optimized geometry and variables:
    Molecular point group: c1

    Geometry (in Angstrom), charge = 0, multiplicity = 1:

    H           -2.980508652826    -1.377675550538     0.389241116421
    O           -2.168037003568    -1.042641618982     0.058270660357
    C           -1.850093529716     0.168884755830     0.693020109454
    C           -0.518056812588     0.668384312428     0.167039385736
    H           -2.619850203842     0.910802599450     0.495917871204
    H           -1.794668421692     0.029586143757     1.770875871917
    C            0.654956150271    -0.246084916404     0.514643666799
    H           -0.604593585303     0.785941830797    -0.907105821621
    H           -0.343503525086     1.658435496562     0.581441851021
    C            2.019193444779     0.271436454019     0.055503087093
    H            0.479002007265    -1.229064453469     0.092473787879
    H            0.682217392162    -0.376812884575     1.593664223593
    C            2.201154393496     0.332241961778    -1.459279404130
    H            2.193514621545     1.257122235147     0.479960959473
    H            2.786435555107    -0.374828783513     0.470867097934
    H            1.523068085293     1.039142415113    -1.921982685952
    H            3.210393795037     0.636271729270    -1.713103893793
    H            2.024564535161    -0.638465551961    -1.910878967459

  Mulliken Charges: (a.u.)
   Center  Symbol    Alpha    Beta     Spin     Total
       1     H     0.39581  0.39581  0.00000  0.20839
       2     O     4.19863  4.19863  0.00000 -0.39725
       3     C     2.97371  2.97371  0.00000  0.05257
       4     C     3.09306  3.09306  0.00000 -0.18612
       5     H     0.46547  0.46547  0.00000  0.06907
       6     H     0.47294  0.47294  0.00000  0.05411
       7     C     3.09327  3.09327  0.00000 -0.18654
       8     H     0.45080  0.45080  0.00000  0.09839
       9     H     0.45418  0.45418  0.00000  0.09165
      10     C     3.09005  3.09005  0.00000 -0.18010
      11     H     0.44462  0.44462  0.00000  0.11077
      12     H     0.45446  0.45446  0.00000  0.09107
      13     C     3.15132  3.15132  0.00000 -0.30265
      14     H     0.45668  0.45668  0.00000  0.08664
      15     H     0.44947  0.44947  0.00000  0.10107
      16     H     0.45442  0.45442  0.00000  0.09117
      17     H     0.44791  0.44791  0.00000  0.10418
      18     H     0.45320  0.45320  0.00000  0.09359

   Total alpha = 25.00000, Total beta = 25.00000, Total charge = -0.00000

*** Psi4 exiting successfully. Buy a developer a beer!
