  ==> Input File <==

--------------------------------------------------------------------------
set {
	reference rhf
	basis 6-31G*
}

set_num_threads( 1 )
memory 2 gb

molecule MOL {
0 1

O	 -2.734764	 -0.392883	 0.690067
C	 -1.921153	 0.064240	 -0.045697
C	 -2.207468	 0.603811	 -1.420918
O	 -0.632575	 0.154573	 0.251549
H	 -1.634356	 0.052310	 -2.157354
H	 -3.262719	 0.516421	 -1.632213
H	 -1.901983	 1.642180	 -1.477701
C	 0.160891	 -1.019931	 0.106212
C	 1.589627	 -0.672828	 0.480843
H	 0.089836	 -1.367806	 -0.916050
H	 -0.238459	 -1.792301	 0.749618
C	 2.246377	 0.346236	 -0.452210
H	 2.163194	 -1.597435	 0.473358
H	 1.604769	 -0.303424	 1.502885
C	 3.691736	 0.652107	 -0.061850
H	 2.219579	 -0.032311	 -1.472055
H	 1.666466	 1.263317	 -0.447249
H	 4.134505	 1.377213	 -0.737283
H	 4.305508	 -0.243868	 -0.089969
H	 3.748266	 1.059562	 0.943567

	symmetry c1
}
set optking {
	frozen_dihedral = ("
		16 12 9 8,
		2 4 8 10,
		12 9 8 10
	")
}

ee = energy('scf')
oeprop('DIPOLE', 'QUADRUPOLE', 'MULLIKEN_CHARGES')
f=open( 'psi4out.xyz', 'w' )
f.write( "20  " )
f.write( str(ee) + "\n" )
f.write( MOL.save_string_xyz() )
f.close()
--------------------------------------------------------------------------

    Molecular point group: c1

    Geometry (in Angstrom), charge = 0, multiplicity = 1:

       Center              X                  Y                   Z               Mass
    ------------   -----------------  -----------------  -----------------  -----------------
           O         -2.750746661062    -0.362303523813     0.750058022487    15.994914619560
           C         -1.937135661062     0.094819476187     0.014294022487    12.000000000000
           C         -2.223450661062     0.634390476187    -1.360926977513    12.000000000000
           O         -0.648557661062     0.185152476187     0.311540022487    15.994914619560
           H         -1.650338661062     0.082889476187    -2.097362977513     1.007825032070
           H         -3.278701661062     0.547000476187    -1.572221977513     1.007825032070
           H         -1.917965661062     1.672759476187    -1.417709977513     1.007825032070
           C          0.144908338938    -0.989351523813     0.166203022487    12.000000000000
           C          1.573644338938    -0.642248523813     0.540834022487    12.000000000000
           H          0.073853338938    -1.337226523813    -0.856058977513     1.007825032070
           H         -0.254441661062    -1.761721523813     0.809609022487     1.007825032070
           C          2.230394338938     0.376815476187    -0.392218977513    12.000000000000
           H          2.147211338938    -1.566855523813     0.533349022487     1.007825032070
           H          1.588786338938    -0.272844523813     1.562876022487     1.007825032070
           C          3.675753338938     0.682686476187    -0.001858977513    12.000000000000
           H          2.203596338938    -0.001731523813    -1.412063977513     1.007825032070
           H          1.650483338938     1.293896476187    -0.387257977513     1.007825032070
           H          4.118522338938     1.407792476187    -0.677291977513     1.007825032070
           H          4.289525338938    -0.213288523813    -0.029977977513     1.007825032070
           H          3.732283338938     1.090141476187     1.003558022487     1.007825032070

  Charge       = 0
  Multiplicity = 1
  Basis Set: 6-31G*
  Basis Set:

    Orbital Energies (a.u.)
    -----------------------

    Doubly Occupied:

       1A    -20.584735     2A    -20.553135     3A    -11.375421
       4A    -11.295337     5A    -11.233728     6A    -11.229912
       7A    -11.223734     8A    -11.215575     9A     -1.462695
      10A     -1.365735    11A     -1.087865    12A     -1.023809
      13A     -0.989365    14A     -0.885852    15A     -0.813400
      16A     -0.780333    17A     -0.693815    18A     -0.686544
      19A     -0.653628    20A     -0.636182    21A     -0.615136
      22A     -0.593399    23A     -0.575290    24A     -0.560484
      25A     -0.548349    26A     -0.532664    27A     -0.496620
      28A     -0.487579    29A     -0.480234    30A     -0.475531
      31A     -0.449169    32A     -0.436807

  @DF-RHF Final Energy:  -383.92622771417410

   => Energetics <=

    Nuclear Repulsion Energy =            385.6694698885766570
    One-Electron Energy =               -1287.1072157809094278
    Two-Electron Energy =                 517.5115181781577576
    DFT Exchange-Correlation Energy =       0.0000000000000000
    Empirical Dispersion Energy =           0.0000000000000000
    PCM Polarization Energy =               0.0000000000000000
    EFP Energy =                            0.0000000000000000
    Total Energy =                       -383.9262277141749564

  Mulliken Charges: (a.u.)
   Center  Symbol    Alpha    Beta     Spin     Total
       1     O     4.25847  4.25847  0.00000 -0.51694
       2     C     2.62697  2.62697  0.00000  0.74607
       3     C     3.28485  3.28485  0.00000 -0.56969
       4     O     4.31269  4.31269  0.00000 -0.62538
       5     H     0.40709  0.40709  0.00000  0.18581
       6     H     0.39891  0.39891  0.00000  0.20217
       7     H     0.39934  0.39934  0.00000  0.20132
       8     C     3.00368  3.00368  0.00000 -0.00735
       9     C     3.16365  3.16365  0.00000 -0.32730
      10     H     0.42313  0.42313  0.00000  0.15374
      11     H     0.40520  0.40520  0.00000  0.18961
      12     C     3.15530  3.15530  0.00000 -0.31061
      13     H     0.41865  0.41865  0.00000  0.16270
      14     H     0.40857  0.40857  0.00000  0.18286
      15     C     3.24074  3.24074  0.00000 -0.48148
      16     H     0.42515  0.42515  0.00000  0.14970
      17     H     0.40966  0.40966  0.00000  0.18069
      18     H     0.41717  0.41717  0.00000  0.16566
      19     H     0.42175  0.42175  0.00000  0.15650
      20     H     0.41904  0.41904  0.00000  0.16192

   Total alpha = 32.00000, Total beta = 32.00000, Total charge =  0.00000
