  ==> Input File <==

--------------------------------------------------------------------------
set {
	reference rhf
	basis 6-31G*
}

set_num_threads( 4 )
memory 2 gb

molecule MOL {
0 1

H	 -0.733874	 0.621373	 3.183069
O	 -0.551373	 0.352432	 2.294219
C	 -0.237106	 1.478602	 1.514384
C	 0.031547	 1.023609	 0.088541
H	 0.648655	 1.976705	 1.904524
H	 -1.051060	 2.199659	 1.540002
C	 -1.134819	 0.293262	 -0.585751
H	 0.897468	 0.367688	 0.103975
H	 0.308190	 1.897767	 -0.498431
C	 -1.917817	 -0.639439	 0.339494
H	 -0.758119	 -0.268455	 -1.433105
H	 -1.813832	 1.041889	 -0.986690
H	 -2.777680	 -1.057197	 -0.174994
H	 -1.310268	 -1.471279	 0.680599
H	 -2.283753	 -0.111424	 1.216626

	symmetry c1
}
set optking {
	frozen_dihedral = ("
		8 4 7 11
	")
}

ee = optimize('scf')
oeprop('DIPOLE', 'QUADRUPOLE', 'MULLIKEN_CHARGES')
f=open( 'psi4out.xyz', 'w' )
f.write( "15  " )
f.write( str(ee) + "\n" )
f.write( MOL.save_string_xyz() )
f.close()
--------------------------------------------------------------------------

    Molecular point group: c1
  Charge       = 0
  Multiplicity = 1
  Basis Set: 6-31G*
  Basis Set:
  @DF-RHF Final Energy:  -232.13094706001888
    Total Energy =                       -232.1309470600189684
    Molecular point group: c1
  Basis Set: 6-31G*
  Basis Set:
  Basis Set: 6-31G*
  Basis Set:
  @DF-RHF Final Energy:  -232.13761689368241
    Total Energy =                       -232.1376168936824911
  Basis Set: 6-31G*
  Basis Set:
  Basis Set: 6-31G*
  Basis Set:
  @DF-RHF Final Energy:  -232.13954924481928
    Total Energy =                       -232.1395492448194773
  Basis Set: 6-31G*
  Basis Set:
  Basis Set: 6-31G*
  Basis Set:
  @DF-RHF Final Energy:  -232.13989354295569
    Total Energy =                       -232.1398935429558037
  Basis Set: 6-31G*
  Basis Set:
  Basis Set: 6-31G*
  Basis Set:
  @DF-RHF Final Energy:  -232.14006010313992
    Total Energy =                       -232.1400601031397173
  Basis Set: 6-31G*
  Basis Set:
  Basis Set: 6-31G*
  Basis Set:
  @DF-RHF Final Energy:  -232.14015006768375
    Total Energy =                       -232.1401500676837486
  Basis Set: 6-31G*
  Basis Set:
  Basis Set: 6-31G*
  Basis Set:
  @DF-RHF Final Energy:  -232.14015841879475
    Total Energy =                       -232.1401584187946128
  Basis Set: 6-31G*
  Basis Set:
  Charge       = 0
  Multiplicity = 1
  Basis Set: 6-31G*
  Basis Set:

    Orbital Energies (a.u.)
    -----------------------

    Doubly Occupied:

       1A    -20.553070     2A    -11.269047     3A    -11.213150
       4A    -11.212193     5A    -11.196427     6A     -1.359978
       7A     -1.061530     8A     -0.969283     9A     -0.865866
      10A     -0.774528    11A     -0.702934    12A     -0.648584
      13A     -0.607392    14A     -0.568092    15A     -0.556728
      16A     -0.536889    17A     -0.505832    18A     -0.474145
      19A     -0.463075    20A     -0.453015    21A     -0.426590

  @DF-RHF Final Energy:  -232.14015905963333

   => Energetics <=

    Nuclear Repulsion Energy =            192.9452948148264113
    One-Electron Energy =                -697.3342079982219275
    Two-Electron Energy =                 272.2487541237622963
    DFT Exchange-Correlation Energy =       0.0000000000000000
    Empirical Dispersion Energy =           0.0000000000000000
    PCM Polarization Energy =               0.0000000000000000
    EFP Energy =                            0.0000000000000000
    Total Energy =                       -232.1401590596332198
    Molecular point group: c1
  Basis Set: 6-31G*
  Basis Set:

  -Total Gradient:
     Atom            X                  Y                   Z
    ------   -----------------  -----------------  -----------------
       1        0.000001215064     0.000004839055    -0.000022137785
       2        0.000012876269    -0.000039341701    -0.000003900521
       3       -0.000057136154     0.000001452087     0.000044253045
       4       -0.001828247920    -0.002893923582     0.005480796769
       5       -0.000001071106     0.000001176746    -0.000034660204
       6        0.000004881555     0.000022209410    -0.000016504048
       7       -0.000061065981     0.004843661276    -0.004122822306
       8        0.001524238112     0.001656833260    -0.003978990046
       9       -0.000003276458     0.000009450176     0.000014063616
      10       -0.000036626078     0.000040572776    -0.000039460137
      11        0.000402260772    -0.003633870630     0.002562500605
      12        0.000025707850     0.000014060302     0.000029829444
      13        0.000027529688    -0.000035665080     0.000026916096
      14        0.000027787894    -0.000017386356     0.000016270984
      15       -0.000039073506     0.000025932262     0.000043844485

  **** Optimization is complete! (in 8 steps) ****
    Final optimized geometry and variables:
    Molecular point group: c1

    Geometry (in Angstrom), charge = 0, multiplicity = 1:

    H            0.272181344715     0.244810643968     2.501511733374
    O            0.464173853165    -0.081951005562     1.634032156860
    C            0.497352104172     0.988604854538     0.724200976954
    C            0.754023522154     0.457067384934    -0.677168928141
    H            1.292918864163     1.680361517730     0.994155431294
    H           -0.439017747734     1.545176773200     0.748304228160
    C           -0.437510940003    -0.186995187301    -1.405901799540
    H            1.593765805609    -0.231106878193    -0.645724439417
    H            1.094174016027     1.295554454167    -1.282763690007
    C           -1.280964047207    -1.161990767195    -0.578871406782
    H           -0.043670976088    -0.739726492755    -2.254886375003
    H           -1.081898626483     0.593675591747    -1.802839056461
    H           -2.047886752012    -1.610854291755    -1.203809425638
    H           -0.671503885282    -1.957967957586    -0.166210180084
    H           -1.774165866992    -0.670528463146     0.251337652291

  Mulliken Charges: (a.u.)
   Center  Symbol    Alpha    Beta     Spin     Total
       1     H     0.28118  0.28118  0.00000  0.43764
       2     O     4.36801  4.36801  0.00000 -0.73602
       3     C     3.00027  3.00027  0.00000 -0.00054
       4     C     3.15950  3.15950  0.00000 -0.31899
       5     H     0.42863  0.42863  0.00000  0.14274
       6     H     0.43203  0.43203  0.00000  0.13594
       7     C     3.15473  3.15473  0.00000 -0.30946
       8     H     0.41238  0.41238  0.00000  0.17523
       9     H     0.42288  0.42288  0.00000  0.15425
      10     C     3.23250  3.23250  0.00000 -0.46501
      11     H     0.42121  0.42121  0.00000  0.15758
      12     H     0.42497  0.42497  0.00000  0.15005
      13     H     0.42647  0.42647  0.00000  0.14705
      14     H     0.41465  0.41465  0.00000  0.17071
      15     H     0.42058  0.42058  0.00000  0.15884

   Total alpha = 21.00000, Total beta = 21.00000, Total charge = -0.00000
