                              Psi4 1.0.54 Driver

  ==> Input File <==

--------------------------------------------------------------------------
set {
	reference rhf
	basis cc-pvtz
}

set_num_threads( 4 )
memory 2 gb

molecule MOL {
0 1

H	 2.009698	 -3.003256	 -1.010292
O	 2.784933	 -2.677348	 -1.428173
C	 2.484624	 -2.221236	 -2.720864
C	 1.706132	 -0.914191	 -2.737205
H	 3.437381	 -2.081084	 -3.213399
H	 1.943976	 -2.984938	 -3.276660
C	 0.302622	 -1.012633	 -2.143642
H	 2.278836	 -0.164325	 -2.199739
H	 1.637419	 -0.579151	 -3.769399
C	 -0.460177	 0.309836	 -2.207281
H	 0.371840	 -1.340519	 -1.111797
H	 -0.261431	 -1.775682	 -2.677390
C	 -1.899828	 0.250938	 -1.693286
H	 0.088810	 1.065642	 -1.650865
H	 -0.477903	 0.648540	 -3.239479
C	 -2.041121	 -0.006551	 -0.194127
H	 -2.384696	 1.194315	 -1.928807
H	 -2.445520	 -0.513195	 -2.242355
C	 -3.489218	 0.042606	 0.286507
H	 -1.458043	 0.731662	 0.352252
H	 -1.620791	 -0.974935	 0.059957
C	 -4.219984	 1.311773	 -0.139038
H	 -4.022855	 -0.824300	 -0.093339
H	 -3.510372	 -0.038577	 1.370031
H	 -4.244251	 1.405725	 -1.219696
H	 -5.244345	 1.313233	 0.215630
H	 -3.732090	 2.196311	 0.257073

	symmetry c1
}
set optking {
	frozen_dihedral = ("
		20 16 19 22
	")
}

ee,wfn = optimize('scf', return_wfn=True)
oeprop( wfn, 'DIPOLE', 'QUADRUPOLE', 'MULLIKEN_CHARGES')
f=open( 'psi4out.xyz', 'w' )
f.write( "27  " )
f.write( str(ee) + "\n" )
f.write( MOL.save_string_xyz() )
f.close()
--------------------------------------------------------------------------

    Molecular point group: c1
  Charge       = 0
  Multiplicity = 1
  Basis Set: CC-PVTZ
  Basis Set:
  @DF-RHF Final Energy:  -388.42354700431878
    Total Energy =                       -388.4235470043183795
    Molecular point group: c1
  Basis Set: CC-PVTZ
  Basis Set:
  Basis Set: CC-PVTZ
  Basis Set:
  @DF-RHF Final Energy:  -388.17683465723735
    Total Energy =                       -388.1768346572373503
  Basis Set: CC-PVTZ
  Basis Set:
  Basis Set: CC-PVTZ
  Basis Set:
  @DF-RHF Final Energy:  -388.32087591224087
    Total Energy =                       -388.3208759122410356
  Basis Set: CC-PVTZ
  Basis Set:
  Basis Set: CC-PVTZ
  Basis Set:
  @DF-RHF Final Energy:  -388.41233973784938
    Total Energy =                       -388.4123397378496065
  Basis Set: CC-PVTZ
  Basis Set:
  @DF-RHF Final Energy:  -388.42160929670024
    Total Energy =                       -388.4216092967009217
  @DF-RHF Final Energy:  -388.42510766256515
    Total Energy =                       -388.4251076625646419
  Basis Set: CC-PVTZ
  Basis Set:
  @DF-RHF Final Energy:  -388.42526162219065
    Total Energy =                       -388.4252616221907601
  Basis Set: CC-PVTZ
  Basis Set:
  Basis Set: CC-PVTZ
  Basis Set:
  @DF-RHF Final Energy:  -388.42523359967782
    Total Energy =                       -388.4252335996781085
  Basis Set: CC-PVTZ
  Basis Set:
  Basis Set: CC-PVTZ
  Basis Set:
  @DF-RHF Final Energy:  -388.42528124687061
    Total Energy =                       -388.4252812468707816
  Basis Set: CC-PVTZ
  Basis Set:
  Charge       = 0
  Multiplicity = 1
  Basis Set: CC-PVTZ
  Basis Set:

    Orbital Energies (a.u.)
    -----------------------

    Doubly Occupied:

       1A    -20.545362     2A    -11.264985     3A    -11.216609
       4A    -11.214712     5A    -11.214409     6A    -11.213182
       7A    -11.212892     8A    -11.211948     9A    -11.206560
      10A     -1.363256    11A     -1.095889    12A     -1.061672
      13A     -1.010362    14A     -0.947397    15A     -0.894914
      16A     -0.829244    17A     -0.797926    18A     -0.769223
      19A     -0.696394    20A     -0.646725    21A     -0.635292
      22A     -0.617687    23A     -0.609613    24A     -0.589427
      25A     -0.580610    26A     -0.554588    27A     -0.539209
      28A     -0.528672    29A     -0.505431    30A     -0.500550
      31A     -0.486101    32A     -0.474644    33A     -0.469143
      34A     -0.457265    35A     -0.449193    36A     -0.442090
      37A     -0.425968

  @DF-RHF Final Energy:  -388.42528161518050

   => Energetics <=

    Nuclear Repulsion Energy =            462.2797591646778415
    One-Electron Energy =               -1442.8517937792107659
    Two-Electron Energy =                 592.1467529993522021
    DFT Exchange-Correlation Energy =       0.0000000000000000
    Empirical Dispersion Energy =           0.0000000000000000
    PCM Polarization Energy =               0.0000000000000000
    EFP Energy =                            0.0000000000000000
    Total Energy =                       -388.4252816151806655
    Molecular point group: c1
  Basis Set: CC-PVTZ
  Basis Set:

  -Total Gradient:
     Atom            X                  Y                   Z
    ------   -----------------  -----------------  -----------------
       1        0.000015615526    -0.000000556800    -0.000000933884
       2       -0.000062519512    -0.000015106964     0.000048615389
       3        0.000031525264     0.000051083166    -0.000039172422
       4       -0.000003891319    -0.000023986760    -0.000003169748
       5       -0.000010093872    -0.000004889418    -0.000025228581
       6       -0.000006699495     0.000018054098     0.000017531419
       7       -0.000013279515     0.000000872448     0.000019390456
       8        0.000008024693    -0.000024691344    -0.000007296913
       9        0.000007075760    -0.000002177479     0.000001223928
      10        0.000007892234     0.000003032430    -0.000002029376
      11        0.000007311017    -0.000010695855    -0.000003133516
      12        0.000006679286     0.000013020034    -0.000003210264
      13       -0.000014944239    -0.000001648161     0.000008952419
      14       -0.000004340958    -0.000005069767    -0.000002521146
      15        0.000002017004    -0.000005069778     0.000016214835
      16       -0.002744282372     0.000077681541    -0.002431863479
      17        0.000010904247    -0.000003232744     0.000000528844
      18        0.000006376117     0.000012630495    -0.000000557365
      19        0.001147115956     0.002080291898     0.002019539032
      20        0.002081392262    -0.000624951541     0.001571039815
      21       -0.000008216382     0.000008486711    -0.000009480129
      22       -0.000469440745    -0.001564057656    -0.001168961777
      23        0.000002862980     0.000025456770     0.000000307475
      24       -0.000007897114    -0.000004427807    -0.000027632541
      25        0.000017211675     0.000013888729     0.000025947829
      26       -0.000002818208     0.000001030549    -0.000006002155
      27       -0.000003580285    -0.000014966797     0.000001901852

  **** Optimization is complete! (in 10 steps) ****
    Final optimized geometry and variables:
    Molecular point group: c1

    Geometry (in Angstrom), charge = 0, multiplicity = 1:

    H            3.334821881847    -0.999091568982    -0.362860969346
    O            3.691850485772    -0.535161897152    -1.096917849480
    C            2.831265494512    -0.635973164410    -2.200751937769
    C            1.567703470630     0.199844431065    -2.062501100440
    H            3.401581820597    -0.291695875692    -3.052929825838
    H            2.572162149246    -1.676614075426    -2.385743303462
    C            0.640050428408    -0.247674536462    -0.935094541130
    H            1.854268782841     1.236076125381    -1.910640711276
    H            1.032702170050     0.155516998629    -3.008099900628
    C           -0.637234463508     0.587245092888    -0.854918760562
    H            1.171278667202    -0.191644423480     0.008913549926
    H            0.373158519581    -1.292679696970    -1.082471829142
    C           -1.640916118398     0.140705297978     0.211228113084
    H           -0.374123741325     1.628587142943    -0.685738303368
    H           -1.128994691138     0.554386183987    -1.823073433336
    C           -1.185590446290     0.377700275968     1.649921511899
    H           -2.570333651621     0.671300644024     0.038243175865
    H           -1.864448125736    -0.915394610051     0.073017187842
    C           -2.144040076581    -0.132625672138     2.730074662013
    H           -0.999735470384     1.438218406281     1.806202127590
    H           -0.228505911233    -0.108111759420     1.810208151791
    C           -3.581236308682     0.370856818374     2.619695610543
    H           -2.153690665133    -1.219491937901     2.707514723231
    H           -1.743269768957     0.144487895568     3.699892643410
    H           -4.071245232591     0.001275455668     1.727726448335
    H           -4.166063406127     0.043224661733     3.471600567255
    H           -3.618594185486     1.455615966528     2.593139400204

  Mulliken Charges: (a.u.)
   Center  Symbol    Alpha    Beta     Spin     Total
       1     H     0.39226  0.39226  0.00000  0.21548
       2     O     4.20553  4.20553  0.00000 -0.41105
       3     C     2.98008  2.98008  0.00000  0.03983
       4     C     3.08920  3.08920  0.00000 -0.17840
       5     H     0.44857  0.44857  0.00000  0.10287
       6     H     0.46961  0.46961  0.00000  0.06079
       7     C     3.10198  3.10198  0.00000 -0.20395
       8     H     0.45075  0.45075  0.00000  0.09850
       9     H     0.45533  0.45533  0.00000  0.08933
      10     C     3.09790  3.09790  0.00000 -0.19580
      11     H     0.45596  0.45596  0.00000  0.08807
      12     H     0.45401  0.45401  0.00000  0.09199
      13     C     3.10199  3.10199  0.00000 -0.20398
      14     H     0.45167  0.45167  0.00000  0.09665
      15     H     0.44794  0.44794  0.00000  0.10413
      16     C     3.09668  3.09668  0.00000 -0.19336
      17     H     0.44409  0.44409  0.00000  0.11181
      18     H     0.45378  0.45378  0.00000  0.09244
      19     C     3.08824  3.08824  0.00000 -0.17647
      20     H     0.45230  0.45230  0.00000  0.09540
      21     H     0.45053  0.45053  0.00000  0.09895
      22     C     3.15562  3.15562  0.00000 -0.31123
      23     H     0.45474  0.45474  0.00000  0.09052
      24     H     0.44860  0.44860  0.00000  0.10280
      25     H     0.45261  0.45261  0.00000  0.09477
      26     H     0.44582  0.44582  0.00000  0.10837
      27     H     0.45423  0.45423  0.00000  0.09154

   Total alpha = 37.00000, Total beta = 37.00000, Total charge = -0.00000

*** Psi4 exiting successfully. Buy a developer a beer!
