                              Psi4 1.0.54 Driver

  ==> Input File <==

--------------------------------------------------------------------------
set {
	reference rhf
	basis cc-pvtz
}

set_num_threads( 4 )
memory 2 gb

molecule MOL {
0 1

H	 2.638448	 -0.185632	 -0.533129
C	 1.948180	 -0.217873	 0.320185
C	 0.692262	 0.592428	 0.156232
O	 2.220888	 -0.855602	 1.277560
C	 -0.554654	 -0.292621	 0.086567
H	 0.791858	 1.203694	 -0.731051
H	 0.617379	 1.254358	 1.016534
C	 -1.846385	 0.513195	 -0.016346
H	 -0.473986	 -0.956115	 -0.769708
H	 -0.597929	 -0.929215	 0.966651
C	 -3.089953	 -0.365049	 -0.098564
H	 -1.798267	 1.154820	 -0.891143
H	 -1.925398	 1.173265	 0.842889
H	 -3.055079	 -1.012299	 -0.968245
H	 -3.988403	 0.236438	 -0.170014
H	 -3.183055	 -0.995885	 0.779079

	symmetry c1
}
set optking {
	frozen_dihedral = ("
		4 2 3 6
	")
}

ee,wfn = optimize('scf', return_wfn=True)
oeprop( wfn, 'DIPOLE', 'QUADRUPOLE', 'MULLIKEN_CHARGES')
f=open( 'psi4out.xyz', 'w' )
f.write( "16  " )
f.write( str(ee) + "\n" )
f.write( MOL.save_string_xyz() )
f.close()
--------------------------------------------------------------------------

    Molecular point group: c1
  Charge       = 0
  Multiplicity = 1
  Basis Set: CC-PVTZ
  Basis Set:
  @DF-RHF Final Energy:  -270.11718480480181
    Total Energy =                       -270.1171848048018092
    Molecular point group: c1
  Basis Set: CC-PVTZ
  Basis Set:
  Basis Set: CC-PVTZ
  Basis Set:
  @DF-RHF Final Energy:  -270.11721776125728
    Total Energy =                       -270.1172177612570522
  Basis Set: CC-PVTZ
  Basis Set:
  Basis Set: CC-PVTZ
  Basis Set:
  @DF-RHF Final Energy:  -270.11694024888794
    Total Energy =                       -270.1169402488878859
  Basis Set: CC-PVTZ
  Basis Set:
  Basis Set: CC-PVTZ
  Basis Set:
  @DF-RHF Final Energy:  -270.11747198112397
    Total Energy =                       -270.1174719811239129
  Basis Set: CC-PVTZ
  Basis Set:
  Basis Set: CC-PVTZ
  Basis Set:
  @DF-RHF Final Energy:  -270.11746471641783
    Total Energy =                       -270.1174647164179987
  Basis Set: CC-PVTZ
  Basis Set:
  Basis Set: CC-PVTZ
  Basis Set:
  @DF-RHF Final Energy:  -270.11747639816576
    Total Energy =                       -270.1174763981657065
  Basis Set: CC-PVTZ
  Basis Set:
  Charge       = 0
  Multiplicity = 1
  Basis Set: CC-PVTZ
  Basis Set:

    Orbital Energies (a.u.)
    -----------------------

    Doubly Occupied:

       1A    -20.552138     2A    -11.322071     3A    -11.233710
       4A    -11.229437     5A    -11.224000     6A    -11.213611
       7A     -1.407503     8A     -1.093134     9A     -1.016450
      10A     -0.906370    11A     -0.813313    12A     -0.784464
      13A     -0.684824    14A     -0.647486    15A     -0.631827
      16A     -0.602657    17A     -0.579220    18A     -0.550792
      19A     -0.528972    20A     -0.508481    21A     -0.484363
      22A     -0.479806    23A     -0.475470    24A     -0.410741

  @DF-RHF Final Energy:  -270.11747682730186

   => Energetics <=

    Nuclear Repulsion Energy =            231.2589965949497923
    One-Electron Energy =                -823.9912696625879107
    Two-Electron Energy =                 322.6147962403360907
    DFT Exchange-Correlation Energy =       0.0000000000000000
    Empirical Dispersion Energy =           0.0000000000000000
    PCM Polarization Energy =               0.0000000000000000
    EFP Energy =                            0.0000000000000000
    Total Energy =                       -270.1174768273019708
    Molecular point group: c1
  Basis Set: CC-PVTZ
  Basis Set:

  -Total Gradient:
     Atom            X                  Y                   Z
    ------   -----------------  -----------------  -----------------
       1       -0.000003852704     0.000006119376     0.000015552910
       2        0.000372416768     0.000682104008     0.000302334766
       3        0.000127618286     0.000329356453     0.000344177669
       4       -0.000300791651    -0.000553748868    -0.000278121431
       5        0.000033646191     0.000020869002    -0.000000843426
       6       -0.000241176242    -0.000484902493    -0.000384526991
       7        0.000020541198     0.000008517576     0.000008243441
       8       -0.000004634802    -0.000001243257    -0.000014841269
       9       -0.000006035811     0.000003571511    -0.000002496565
      10       -0.000006242181    -0.000005205876    -0.000003107354
      11        0.000000466172    -0.000000466118     0.000015158150
      12        0.000005541244    -0.000003432516    -0.000000133527
      13        0.000004470697    -0.000000753177    -0.000004064132
      14        0.000001219026     0.000004199129    -0.000000167005
      15       -0.000000277196    -0.000000281446     0.000004266796
      16       -0.000002908991    -0.000004703302    -0.000001432027

  **** Optimization is complete! (in 7 steps) ****
    Final optimized geometry and variables:
    Molecular point group: c1

    Geometry (in Angstrom), charge = 0, multiplicity = 1:

    H            2.783766898097    -0.040630858651    -0.711672915542
    C            2.062160258675    -0.065937630049     0.113441629110
    C            0.796071509294     0.735870188135    -0.071095318756
    O            2.289240667193    -0.715754370338     1.075141351176
    C           -0.424785709272    -0.177442634047    -0.227657935109
    H            0.895945329495     1.378252136668    -0.939136306729
    H            0.673234642415     1.365264734239     0.803463915757
    C           -1.726562707465     0.601802763567    -0.386855933774
    H           -0.284545958327    -0.824103189231    -1.090217534921
    H           -0.485607559214    -0.825904139845     0.638596738884
    C           -2.943642045515    -0.303836649725    -0.540601345359
    H           -1.652434385133     1.256833992687    -1.250551627885
    H           -1.863437657960     1.247628426653     0.475780022216
    H           -2.851940062417    -0.937900353785    -1.416039605371
    H           -3.852094628326     0.277310978451    -0.647048309561
    H           -3.062094688410    -0.949035084822     0.323100872273

  Mulliken Charges: (a.u.)
   Center  Symbol    Alpha    Beta     Spin     Total
       1     H     0.45685  0.45685  0.00000  0.08630
       2     C     2.91675  2.91675  0.00000  0.16650
       3     C     3.08296  3.08296  0.00000 -0.16592
       4     O     4.16788  4.16788  0.00000 -0.33575
       5     C     3.09400  3.09400  0.00000 -0.18800
       6     H     0.44989  0.44989  0.00000  0.10023
       7     H     0.44318  0.44318  0.00000  0.11364
       8     C     3.08480  3.08480  0.00000 -0.16960
       9     H     0.45248  0.45248  0.00000  0.09504
      10     H     0.44057  0.44057  0.00000  0.11886
      11     C     3.14913  3.14913  0.00000 -0.29827
      12     H     0.45438  0.45438  0.00000  0.09125
      13     H     0.45225  0.45225  0.00000  0.09551
      14     H     0.45463  0.45463  0.00000  0.09075
      15     H     0.44754  0.44754  0.00000  0.10491
      16     H     0.45272  0.45272  0.00000  0.09456

   Total alpha = 24.00000, Total beta = 24.00000, Total charge =  0.00000

*** Psi4 exiting successfully. Buy a developer a beer!
