  ==> Input File <==

--------------------------------------------------------------------------
set {
	reference rhf
	basis cc-pvtz
}

set_num_threads( 4 )
memory 2 gb

molecule MOL {
0 1

H	 -0.828729	 -1.178073	 -0.821446
N	 -0.625934	 -0.663929	 -0.000707
C	 -1.511035	 -0.801954	 1.131830
C	 0.468494	 0.129045	 -0.002160
H	 -2.517709	 -0.492182	 0.877593
H	 -1.144453	 -0.175706	 1.927146
H	 -1.540583	 -1.827882	 1.479156
C	 1.785715	 -0.615093	 0.000603
O	 0.413285	 1.323206	 0.000532
H	 1.866994	 -1.243310	 -0.878792
H	 2.591506	 0.100263	 0.006422
H	 1.860358	 -1.250360	 0.875522

	symmetry c1
}
set optking {
	frozen_dihedral = ("
		3 2 4 9
	")
}

ee = optimize('scf')
oeprop('DIPOLE', 'QUADRUPOLE', 'MULLIKEN_CHARGES')
f=open( 'psi4out.xyz', 'w' )
f.write( "12  " )
f.write( str(ee) + "\n" )
f.write( MOL.save_string_xyz() )
f.close()
--------------------------------------------------------------------------

    Molecular point group: c1
  Charge       = 0
  Multiplicity = 1
  Basis Set: CC-PVTZ
  Basis Set:
  @DF-RHF Final Energy:  -247.06464301531878
    Total Energy =                       -247.0646430153185520
    Molecular point group: c1
  Basis Set: CC-PVTZ
  Basis Set:
  Basis Set: CC-PVTZ
  Basis Set:
  @DF-RHF Final Energy:  -247.06915317317848
    Total Energy =                       -247.0691531731784494
  Basis Set: CC-PVTZ
  Basis Set:
  Basis Set: CC-PVTZ
  Basis Set:
  @DF-RHF Final Energy:  -247.07330233289113
    Total Energy =                       -247.0733023328910463
  Basis Set: CC-PVTZ
  Basis Set:
  Basis Set: CC-PVTZ
  Basis Set:
  @DF-RHF Final Energy:  -247.07769729147594
    Total Energy =                       -247.0776972914759426
  Basis Set: CC-PVTZ
  Basis Set:
  @DF-RHF Final Energy:  -247.08104890573333
    Total Energy =                       -247.0810489057332688
  @DF-RHF Final Energy:  -247.08238673763009
    Total Energy =                       -247.0823867376302587
  @DF-RHF Final Energy:  -247.08316027124849
    Total Energy =                       -247.0831602712484028
  @DF-RHF Final Energy:  -247.08314617509279
    Total Energy =                       -247.0831461750925655
  @DF-RHF Final Energy:  -247.08346382977516
    Total Energy =                       -247.0834638297750416
  Basis Set: CC-PVTZ
  Basis Set:
  @DF-RHF Final Energy:  -247.08349122245704
    Total Energy =                       -247.0834912224571553
  Basis Set: CC-PVTZ
  Basis Set:
  Basis Set: CC-PVTZ
  Basis Set:
  @DF-RHF Final Energy:  -247.08324686078066
    Total Energy =                       -247.0832468607806618
  Basis Set: CC-PVTZ
  Basis Set:
  Basis Set: CC-PVTZ
  Basis Set:
  @DF-RHF Final Energy:  -247.08349241239492
    Total Energy =                       -247.0834924123948895
  Basis Set: CC-PVTZ
  Basis Set:
  Charge       = 0
  Multiplicity = 1
  Basis Set: CC-PVTZ
  Basis Set:

    Orbital Energies (a.u.)
    -----------------------

    Doubly Occupied:

       1A    -20.529274     2A    -15.566088     3A    -11.343281
       4A    -11.258591     5A    -11.234713     6A     -1.404637
       7A     -1.226133     8A     -1.015905     9A     -0.930915
      10A     -0.771965    11A     -0.692570    12A     -0.653429
      13A     -0.634973    14A     -0.599227    15A     -0.585030
      16A     -0.562537    17A     -0.547586    18A     -0.508150
      19A     -0.430362    20A     -0.397604

  @DF-RHF Final Energy:  -247.08349246769799

   => Energetics <=

    Nuclear Repulsion Energy =            181.0533058465898364
    One-Electron Energy =                -694.4876559005484751
    Two-Electron Energy =                 266.3508575862606449
    DFT Exchange-Correlation Energy =       0.0000000000000000
    Empirical Dispersion Energy =           0.0000000000000000
    PCM Polarization Energy =               0.0000000000000000
    EFP Energy =                            0.0000000000000000
    Total Energy =                       -247.0834924676979654
    Molecular point group: c1
  Basis Set: CC-PVTZ
  Basis Set:

  -Total Gradient:
     Atom            X                  Y                   Z
    ------   -----------------  -----------------  -----------------
       1        0.000012813345     0.000011928019    -0.000002636607
       2       -0.005808044683     0.014713871063    -0.007481373325
       3        0.004245057086    -0.008988423313     0.001315564968
       4        0.000664970456    -0.009321531348     0.018606382125
       5        0.000001739798     0.000001355390    -0.000001527261
       6        0.000000901707    -0.000000374229     0.000001881841
       7       -0.000000861759     0.000005571627    -0.000002765817
       8        0.000013530437     0.000005776525     0.000025742322
       9        0.000867879207     0.003591259567    -0.012467169367
      10        0.000004338385    -0.000011368186     0.000004305438
      11       -0.000002640692    -0.000004517356     0.000001669223
      12        0.000000316713    -0.000003547758    -0.000000073542

  **** Optimization is complete! (in 13 steps) ****
    Final optimized geometry and variables:
    Molecular point group: c1

    Geometry (in Angstrom), charge = 0, multiplicity = 1:

    H           -0.674586839741    -1.232165004571    -0.880367450446
    N           -0.819919510501    -0.367249942216    -0.406543542417
    C           -1.678697710044    -0.605746144753     0.751239886998
    C            0.409202356325     0.246199029252    -0.144117477575
    H           -2.618847838529    -1.016783148040     0.411974902469
    H           -1.877869939491     0.330824129478     1.249281511148
    H           -1.236080320331    -1.294231388136     1.466535129806
    C            1.636219254055    -0.583592739421    -0.441852549274
    O            0.481445900661     1.381608149864     0.188077695843
    H            1.591242625162    -0.963111047324    -1.456965960450
    H            2.522488390329     0.017995982464    -0.320814038985
    H            1.678488317649    -1.437149460034     0.226244855109

  Mulliken Charges: (a.u.)
   Center  Symbol    Alpha    Beta     Spin     Total
       1     H     0.43678  0.43678  0.00000  0.12643
       2     N     3.61701  3.61701  0.00000 -0.23402
       3     C     3.08646  3.08646  0.00000 -0.17292
       4     C     2.83455  2.83455  0.00000  0.33091
       5     H     0.44895  0.44895  0.00000  0.10210
       6     H     0.43887  0.43887  0.00000  0.12225
       7     H     0.46730  0.46730  0.00000  0.06539
       8     C     3.15278  3.15278  0.00000 -0.30555
       9     O     4.18179  4.18179  0.00000 -0.36359
      10     H     0.45100  0.45100  0.00000  0.09799
      11     H     0.43540  0.43540  0.00000  0.12920
      12     H     0.44910  0.44910  0.00000  0.10181

   Total alpha = 20.00000, Total beta = 20.00000, Total charge =  0.00000
