  ==> Input File <==

--------------------------------------------------------------------------
set {
	reference rhf
	basis 6-31G*
}

set_num_threads( 1 )
memory 2 gb

molecule MOL {
0 1

H	 3.089270	 -1.380733	 0.000000
O	 2.178328	 -1.639175	 0.000000
C	 1.368216	 -0.558384	 0.000000
C	 0.600909	 -0.203500	 -1.102089
C	 1.319146	 0.206429	 1.152425
H	 0.640559	 -0.800055	 -1.997961
C	 -0.214185	 0.914846	 -1.051157
H	 1.911318	 -0.066579	 2.004408
C	 0.500514	 1.324498	 1.195123
H	 -0.803381	 1.179522	 -1.910327
C	 -0.269410	 1.684951	 0.096459
C	 0.443050	 2.150595	 2.430085
H	 -0.901839	 2.554028	 0.138211
O	 1.061770	 1.926335	 3.420760
H	 -0.227886	 3.013288	 2.376660

	symmetry c1
}
set optking {
	frozen_dihedral = ("
		11 9 12 14
	")
}

ee = energy('scf')
oeprop('DIPOLE', 'QUADRUPOLE', 'MULLIKEN_CHARGES')
f=open( 'psi4out.xyz', 'w' )
f.write( "15  " )
f.write( str(ee) + "\n" )
f.write( MOL.save_string_xyz() )
f.close()
--------------------------------------------------------------------------

    Molecular point group: c1

    Geometry (in Angstrom), charge = 0, multiplicity = 1:

       Center              X                  Y                   Z               Mass
    ------------   -----------------  -----------------  -----------------  -----------------
           H          2.265411587175    -1.998259941780    -0.720935840556     1.007825032070
           O          1.354469587175    -2.256701941780    -0.720935840556    15.994914619560
           C          0.544357587175    -1.175910941780    -0.720935840556    12.000000000000
           C         -0.222949412825    -0.821026941780    -1.823024840556    12.000000000000
           C          0.495287587175    -0.411097941780     0.431489159444    12.000000000000
           H         -0.183299412825    -1.417581941780    -2.718896840556     1.007825032070
           C         -1.038043412825     0.297319058220    -1.772092840556    12.000000000000
           H          1.087459587175    -0.684105941780     1.283472159444     1.007825032070
           C         -0.323344412825     0.706971058220     0.474187159444    12.000000000000
           H         -1.627239412825     0.561995058220    -2.631262840556     1.007825032070
           C         -1.093268412825     1.067424058220    -0.624476840556    12.000000000000
           C         -0.380808412825     1.533068058220     1.709149159444    12.000000000000
           H         -1.725697412825     1.936501058220    -0.582724840556     1.007825032070
           O          0.237911587175     1.308808058220     2.699824159444    15.994914619560
           H         -1.051744412825     2.395761058220     1.655724159444     1.007825032070

  Charge       = 0
  Multiplicity = 1
  Basis Set: 6-31G*
  Basis Set:

    Orbital Energies (a.u.)
    -----------------------

    Doubly Occupied:

       1A    -20.588511     2A    -20.565278     3A    -11.333684
       4A    -11.304414     5A    -11.252140     6A    -11.250820
       7A    -11.250238     8A    -11.248649     9A    -11.242751
      10A     -1.412222    11A     -1.406292    12A     -1.169528
      13A     -1.048509    14A     -1.025232    15A     -0.897132
      16A     -0.848845    17A     -0.799412    18A     -0.747391
      19A     -0.699632    20A     -0.676856    21A     -0.654991
      22A     -0.633190    23A     -0.619281    24A     -0.607396
      25A     -0.556561    26A     -0.546683    27A     -0.531151
      28A     -0.499807    29A     -0.485950    30A     -0.423243
      31A     -0.352113    32A     -0.338610

  @DF-RHF Final Energy:  -418.28210237784828

   => Energetics <=

    Nuclear Repulsion Energy =            403.2900810460754997
    One-Electron Energy =               -1369.1113013045865046
    Two-Electron Energy =                 547.5391178806644348
    DFT Exchange-Correlation Energy =       0.0000000000000000
    Empirical Dispersion Energy =           0.0000000000000000
    PCM Polarization Energy =               0.0000000000000000
    EFP Energy =                            0.0000000000000000
    Total Energy =                       -418.2821023778465133

  Mulliken Charges: (a.u.)
   Center  Symbol    Alpha    Beta     Spin     Total
       1     H     0.26807  0.26807  0.00000  0.46387
       2     O     4.38465  4.38465  0.00000 -0.76929
       3     C     2.81291  2.81291  0.00000  0.37417
       4     C     3.10998  3.10998  0.00000 -0.21996
       5     C     3.11552  3.11552  0.00000 -0.23104
       6     H     0.38784  0.38784  0.00000  0.22433
       7     C     3.10102  3.10102  0.00000 -0.20203
       8     H     0.37497  0.37497  0.00000  0.25006
       9     C     3.05091  3.05091  0.00000 -0.10182
      10     H     0.39278  0.39278  0.00000  0.21444
      11     C     3.10829  3.10829  0.00000 -0.21657
      12     C     2.83208  2.83208  0.00000  0.33583
      13     H     0.39189  0.39189  0.00000  0.21622
      14     O     4.24703  4.24703  0.00000 -0.49405
      15     H     0.42207  0.42207  0.00000  0.15586

   Total alpha = 32.00000, Total beta = 32.00000, Total charge = -0.00000
