                              Psi4 1.0.54 Driver

  ==> Input File <==

--------------------------------------------------------------------------
set {
	reference rhf
	basis cc-pvtz
}

set_num_threads( 4 )
memory 2 gb

molecule MOL {
0 1

H	 -3.258660	 -0.290394	 1.471450
C	 -3.307964	 -0.275695	 0.374072
C	 -2.653809	 0.914422	 -0.273689
O	 -3.855140	 -1.148880	 -0.205112
C	 -1.216901	 1.136108	 0.207794
H	 -2.700131	 0.790676	 -1.347875
H	 -3.256452	 1.781007	 -0.010713
C	 -0.247837	 0.040196	 -0.230469
H	 -0.872882	 2.093195	 -0.169002
H	 -1.209325	 1.218376	 1.291938
C	 1.181757	 0.280428	 0.247371
H	 -0.259600	 -0.030819	 -1.314870
H	 -0.591284	 -0.923375	 0.136958
C	 2.151032	 -0.811012	 -0.202643
H	 1.515939	 1.247397	 -0.115449
H	 1.191514	 0.341223	 1.333422
C	 3.580021	 -0.656538	 0.320835
H	 2.170545	 -0.847575	 -1.289412
H	 1.766632	 -1.772905	 0.124928
C	 4.136839	 -1.888320	 1.030591
H	 3.602722	 0.181469	 1.010488
H	 4.236349	 -0.387592	 -0.502698
H	 3.496929	 -2.184736	 1.855605
H	 4.228320	 -2.735890	 0.362054
H	 5.122105	 -1.686013	 1.434678

	symmetry c1
}
set optking {
	frozen_dihedral = ("
		20 17 14 18
	")
}

ee,wfn = optimize('scf', return_wfn=True)
oeprop( wfn, 'DIPOLE', 'QUADRUPOLE', 'MULLIKEN_CHARGES')
f=open( 'psi4out.xyz', 'w' )
f.write( "25  " )
f.write( str(ee) + "\n" )
f.write( MOL.save_string_xyz() )
f.close()
--------------------------------------------------------------------------

    Molecular point group: c1
  Charge       = 0
  Multiplicity = 1
  Basis Set: CC-PVTZ
  Basis Set:
  @DF-RHF Final Energy:  -387.25626728746550
    Total Energy =                       -387.2562672874660166
    Molecular point group: c1
  Basis Set: CC-PVTZ
  Basis Set:
  Basis Set: CC-PVTZ
  Basis Set:
  @DF-RHF Final Energy:  -387.25671129634162
    Total Energy =                       -387.2567112963407681
  Basis Set: CC-PVTZ
  Basis Set:
  Basis Set: CC-PVTZ
  Basis Set:
  @DF-RHF Final Energy:  -387.25683045242010
    Total Energy =                       -387.2568304524203313
  Basis Set: CC-PVTZ
  Basis Set:
  Basis Set: CC-PVTZ
  Basis Set:
  @DF-RHF Final Energy:  -387.25660782383659
    Total Energy =                       -387.2566078238365890
  Basis Set: CC-PVTZ
  Basis Set:
  Basis Set: CC-PVTZ
  Basis Set:
  @DF-RHF Final Energy:  -387.25683420585653
    Total Energy =                       -387.2568342058567623
  Basis Set: CC-PVTZ
  Basis Set:
  Charge       = 0
  Multiplicity = 1
  Basis Set: CC-PVTZ
  Basis Set:

    Orbital Energies (a.u.)
    -----------------------

    Doubly Occupied:

       1A    -20.551415     2A    -11.321030     3A    -11.233849
       4A    -11.232941     5A    -11.221573     6A    -11.218589
       7A    -11.215606     8A    -11.214540     9A    -11.208912
      10A     -1.406403    11A     -1.104915    12A     -1.069629
      13A     -1.015894    14A     -0.944341    15A     -0.868979
      16A     -0.816080    17A     -0.794200    18A     -0.787740
      19A     -0.667769    20A     -0.664684    21A     -0.636606
      22A     -0.621667    23A     -0.602243    24A     -0.599656
      25A     -0.569730    26A     -0.552901    27A     -0.539726
      28A     -0.522976    29A     -0.509789    30A     -0.500093
      31A     -0.487779    32A     -0.479881    33A     -0.466753
      34A     -0.459676    35A     -0.440770    36A     -0.411919

  @DF-RHF Final Energy:  -387.25683503027619

   => Energetics <=

    Nuclear Repulsion Energy =            436.7725661472842376
    One-Electron Energy =               -1390.1362850709683698
    Two-Electron Energy =                 566.1068838934077121
    DFT Exchange-Correlation Energy =       0.0000000000000000
    Empirical Dispersion Energy =           0.0000000000000000
    PCM Polarization Energy =               0.0000000000000000
    EFP Energy =                            0.0000000000000000
    Total Energy =                       -387.2568350302764202
    Molecular point group: c1
  Basis Set: CC-PVTZ
  Basis Set:

  -Total Gradient:
     Atom            X                  Y                   Z
    ------   -----------------  -----------------  -----------------
       1       -0.000044937533     0.000021498985     0.000029870216
       2        0.000154790152    -0.000028477203     0.000014240014
       3       -0.000040086288     0.000003048794     0.000015838892
       4       -0.000078279537    -0.000037203971    -0.000032328954
       5        0.000012761794     0.000015002425     0.000009110948
       6        0.000003239402     0.000006398520    -0.000018450881
       7        0.000017947778     0.000016657639    -0.000000438398
       8       -0.000014133014    -0.000017202161    -0.000008517501
       9        0.000004688448     0.000022944958    -0.000007706418
      10       -0.000010741395     0.000010120318     0.000011637020
      11       -0.000012536765     0.000007130170     0.000008073068
      12        0.000015484397    -0.000008807537    -0.000014588132
      13       -0.000002286670    -0.000017626680     0.000004149973
      14        0.000095215944    -0.002254594571     0.000749618690
      15       -0.000003314456     0.000011117431    -0.000017552294
      16        0.000008686923     0.000016008345     0.000023568764
      17        0.000603685186    -0.000336352943    -0.001751651026
      18       -0.000228422002     0.001982497428    -0.000258016125
      19       -0.000004640772    -0.000008788950    -0.000003524333
      20       -0.000478838269     0.000598550930     0.001245843707
      21        0.000009861779     0.000018186172     0.000017182708
      22        0.000000528474    -0.000003926766    -0.000008030308
      23       -0.000010050553     0.000006727129     0.000014046730
      24       -0.000003148999    -0.000026412189    -0.000015934517
      25        0.000004525968     0.000003503727    -0.000006441843

  **** Optimization is complete! (in 6 steps) ****
    Final optimized geometry and variables:
    Molecular point group: c1

    Geometry (in Angstrom), charge = 0, multiplicity = 1:

    H           -3.262080830651     0.169098698212     1.293948176690
    C           -3.300284454206     0.129002801093     0.196707164789
    C           -2.591078128083     1.256118018199    -0.503779805994
    O           -3.878723167627    -0.749195102145    -0.343251656213
    C           -1.151379865775     1.444347616603    -0.016771468936
    H           -2.631527259193     1.078474111811    -1.570650889765
    H           -3.160283945702     2.158962665288    -0.293547382197
    C           -0.224237102149     0.287595628178    -0.383992949739
    H           -0.763801035941     2.364902892451    -0.439592693096
    H           -1.151740843146     1.584336372696     1.061458244965
    C            1.209303822827     0.496389415599     0.093840539209
    H           -0.230771406659     0.156199470134    -1.462796583311
    H           -0.609021895864    -0.639585564964     0.033277869011
    C            2.144173540133    -0.655145629246    -0.272188991016
    H            1.597681831077     1.420467788931    -0.328082671748
    H            1.213721197956     0.630659852854     1.173164832203
    C            3.597423546278    -0.436154262552     0.194100912504
    H            2.119570573490    -0.783917297879    -1.349769120770
    H            1.754383034914    -1.573815222590     0.155305048005
    C            4.168116598511    -1.611199756209     0.982838956356
    H            3.646411457463     0.451956346969     0.816651579371
    H            4.233202963500    -0.234455316244    -0.661067881514
    H            3.582385794275    -1.798375902967     1.876807586263
    H            4.164070349962    -2.520810215877     0.391198263905
    H            5.190395361352    -1.420399942684     1.289386177795

  Mulliken Charges: (a.u.)
   Center  Symbol    Alpha    Beta     Spin     Total
       1     H     0.46420  0.46420  0.00000  0.07160
       2     C     2.90470  2.90470  0.00000  0.19059
       3     C     3.08919  3.08919  0.00000 -0.17838
       4     O     4.16625  4.16625  0.00000 -0.33251
       5     C     3.11622  3.11622  0.00000 -0.23244
       6     H     0.44290  0.44290  0.00000  0.11419
       7     H     0.44049  0.44049  0.00000  0.11902
       8     C     3.09151  3.09151  0.00000 -0.18303
       9     H     0.44307  0.44307  0.00000  0.11386
      10     H     0.44986  0.44986  0.00000  0.10027
      11     C     3.09125  3.09125  0.00000 -0.18251
      12     H     0.44996  0.44996  0.00000  0.10008
      13     H     0.44802  0.44802  0.00000  0.10397
      14     C     3.09323  3.09323  0.00000 -0.18646
      15     H     0.45209  0.45209  0.00000  0.09583
      16     H     0.45385  0.45385  0.00000  0.09230
      17     C     3.08865  3.08865  0.00000 -0.17731
      18     H     0.45020  0.45020  0.00000  0.09959
      19     H     0.45241  0.45241  0.00000  0.09519
      20     C     3.14744  3.14744  0.00000 -0.29488
      21     H     0.45525  0.45525  0.00000  0.08950
      22     H     0.45019  0.45019  0.00000  0.09962
      23     H     0.45575  0.45575  0.00000  0.08850
      24     H     0.45386  0.45386  0.00000  0.09228
      25     H     0.44945  0.44945  0.00000  0.10111

   Total alpha = 36.00000, Total beta = 36.00000, Total charge = -0.00000

*** Psi4 exiting successfully. Buy a developer a beer!
