  ==> Input File <==

--------------------------------------------------------------------------
set {
	reference rhf
	basis 6-31G*
}

set_num_threads( 4 )
memory 2 gb

molecule MOL {
0 1

H	 1.149201	 1.082076	 1.756497
C	 0.226047	 1.190795	 1.203983
O	 0.000000	 0.000000	 0.521119
H	 -0.579549	 1.408462	 1.903501
H	 0.322693	 2.031376	 0.518584
C	 -1.165642	 0.000000	 -0.238270
H	 -1.228672	 0.883184	 -0.872070
H	 -2.003012	 0.000000	 0.445920
H	 -1.228672	 -0.883184	 -0.872070

	symmetry c1
}
set optking {
	frozen_dihedral = ("
		2 3 6 7
	")
}

ee = optimize('scf')
oeprop('DIPOLE', 'QUADRUPOLE', 'MULLIKEN_CHARGES')
f=open( 'psi4out.xyz', 'w' )
f.write( "9  " )
f.write( str(ee) + "\n" )
f.write( MOL.save_string_xyz() )
f.close()
--------------------------------------------------------------------------

    Molecular point group: c1
  Charge       = 0
  Multiplicity = 1
  Basis Set: 6-31G*
  Basis Set:
  @DF-RHF Final Energy:  -154.06327318346339
    Total Energy =                       -154.0632731834634797
    Molecular point group: c1
  Basis Set: 6-31G*
  Basis Set:
  Basis Set: 6-31G*
  Basis Set:
  @DF-RHF Final Energy:  -154.06409804800305
    Total Energy =                       -154.0640980480029327
  Basis Set: 6-31G*
  Basis Set:
  Basis Set: 6-31G*
  Basis Set:
  @DF-RHF Final Energy:  -154.06433211464719
    Total Energy =                       -154.0643321146471578
  Basis Set: 6-31G*
  Basis Set:
  Charge       = 0
  Multiplicity = 1
  Basis Set: 6-31G*
  Basis Set:

    Orbital Energies (a.u.)
    -----------------------

    Doubly Occupied:

       1A    -20.556075     2A    -11.265345     3A    -11.265257
       4A     -1.379238     5A     -0.974870     6A     -0.873059
       7A     -0.661302     8A     -0.654410     9A     -0.645222
      10A     -0.551873    11A     -0.529892    12A     -0.475039
      13A     -0.416790

  @DF-RHF Final Energy:  -154.06433356790788

   => Energetics <=

    Nuclear Repulsion Energy =             84.7571329846621779
    One-Electron Energy =                -377.1461857754842981
    Two-Electron Energy =                 138.3247192229143252
    DFT Exchange-Correlation Energy =       0.0000000000000000
    Empirical Dispersion Energy =           0.0000000000000000
    PCM Polarization Energy =               0.0000000000000000
    EFP Energy =                            0.0000000000000000
    Total Energy =                       -154.0643335679077950
    Molecular point group: c1
  Basis Set: 6-31G*
  Basis Set:

  -Total Gradient:
     Atom            X                  Y                   Z
    ------   -----------------  -----------------  -----------------
       1       -0.000022063046    -0.000109812113    -0.000050188357
       2        0.000507390484     0.000572261241    -0.001186605956
       3       -0.001181829094    -0.000507099819     0.001840991541
       4        0.000009729752    -0.000031908197     0.000013626561
       5        0.000022265059     0.000031514473     0.000008038243
       6        0.001272739763    -0.000802344869    -0.001981777011
       7       -0.000725049524     0.000850785351     0.001263280413
       8        0.000033198495     0.000001341432     0.000047431902
       9        0.000083618111    -0.000004737498     0.000045202663

  **** Optimization is complete! (in 4 steps) ****
    Final optimized geometry and variables:
    Molecular point group: c1

    Geometry (in Angstrom), charge = 0, multiplicity = 1:

    H            1.486103108492     0.663295930657     1.249061775142
    C            0.558911551121     0.779257885219     0.704926233124
    O            0.320401040088    -0.409852133507     0.023321142975
    H           -0.238095080605     1.002769037400     1.412595695303
    H            0.655163521878     1.618786295760     0.018529071992
    C           -0.851856560018    -0.404974123005    -0.726612050853
    H           -0.917421465393     0.477815841204    -1.360229336804
    H           -1.731544977981    -0.424163004822    -0.084824894588
    H           -0.851156087214    -1.290385954851    -1.347046457236

  Mulliken Charges: (a.u.)
   Center  Symbol    Alpha    Beta     Spin     Total
       1     H     0.41177  0.41177  0.00000  0.17647
       2     C     3.08035  3.08035  0.00000 -0.16071
       3     O     4.29537  4.29537  0.00000 -0.59074
       4     H     0.43045  0.43045  0.00000  0.13910
       5     H     0.42988  0.42988  0.00000  0.14024
       6     C     3.07998  3.07998  0.00000 -0.15996
       7     H     0.43107  0.43107  0.00000  0.13785
       8     H     0.42926  0.42926  0.00000  0.14149
       9     H     0.41187  0.41187  0.00000  0.17626

   Total alpha = 13.00000, Total beta = 13.00000, Total charge =  0.00000
