  ==> Input File <==

--------------------------------------------------------------------------
set {
	reference rhf
	basis cc-pvtz
}

set_num_threads( 4 )
memory 2 gb

molecule MOL {
0 1

H	 3.459101	 0.139266	 -0.762951
C	 2.749156	 -0.051729	 0.031265
C	 1.322304	 0.099773	 -0.484271
H	 2.929445	 -1.053887	 0.403481
H	 2.954281	 0.646699	 0.834672
C	 0.308557	 -0.162619	 0.622645
H	 1.143368	 -0.594400	 -1.295960
H	 1.169532	 1.100095	 -0.870217
N	 -1.069352	 -0.004081	 0.085342
H	 0.371632	 -1.172932	 0.991288
H	 0.400391	 0.548875	 1.426218
O	 -1.906696	 0.363061	 0.839423
O	 -1.243348	 -0.283330	 -1.053380

	symmetry c1
}
set optking {
	frozen_dihedral = ("
		12 9 6 3
	")
}

ee = optimize('scf')
oeprop('DIPOLE', 'QUADRUPOLE', 'MULLIKEN_CHARGES')
f=open( 'psi4out.xyz', 'w' )
f.write( "13  " )
f.write( str(ee) + "\n" )
f.write( MOL.save_string_xyz() )
f.close()
--------------------------------------------------------------------------

    Molecular point group: c1
  Charge       = 0
  Multiplicity = 1
  Basis Set: CC-PVTZ
  Basis Set:
  @DF-RHF Final Energy:  -321.85955688177592
    Total Energy =                       -321.8595568817761432
    Molecular point group: c1
  Basis Set: CC-PVTZ
  Basis Set:
  Basis Set: CC-PVTZ
  Basis Set:
  @DF-RHF Final Energy:  -321.85989498679146
    Total Energy =                       -321.8598949867918009
  Basis Set: CC-PVTZ
  Basis Set:
  Basis Set: CC-PVTZ
  Basis Set:
  @DF-RHF Final Energy:  -321.86062420644760
    Total Energy =                       -321.8606242064479375
  Basis Set: CC-PVTZ
  Basis Set:
  Basis Set: CC-PVTZ
  Basis Set:
  @DF-RHF Final Energy:  -321.86073484013036
    Total Energy =                       -321.8607348401300783
  Basis Set: CC-PVTZ
  Basis Set:
  Basis Set: CC-PVTZ
  Basis Set:
  @DF-RHF Final Energy:  -321.86070676019210
    Total Energy =                       -321.8607067601920448
  Basis Set: CC-PVTZ
  Basis Set:
  Basis Set: CC-PVTZ
  Basis Set:
  @DF-RHF Final Energy:  -321.86073761434841
    Total Energy =                       -321.8607376143485226
  Basis Set: CC-PVTZ
  Basis Set:
  Charge       = 0
  Multiplicity = 1
  Basis Set: CC-PVTZ
  Basis Set:

    Orbital Energies (a.u.)
    -----------------------

    Doubly Occupied:

       1A    -20.591434     2A    -20.590188     3A    -15.838205
       4A    -11.298735     5A    -11.248308     6A    -11.235311
       7A     -1.637051     8A     -1.421126     9A     -1.132042
      10A     -1.026982    11A     -0.884769    12A     -0.828362
      13A     -0.763659    14A     -0.748297    15A     -0.730615
      16A     -0.661295    17A     -0.606424    18A     -0.579645
      19A     -0.552430    20A     -0.522339    21A     -0.509966
      22A     -0.487668    23A     -0.474421    24A     -0.454404

  @DF-RHF Final Energy:  -321.86073848962531

   => Energetics <=

    Nuclear Repulsion Energy =            247.6490848104593852
    One-Electron Energy =                -929.3722985627165372
    Two-Electron Energy =                 359.8624752626318468
    DFT Exchange-Correlation Energy =       0.0000000000000000
    Empirical Dispersion Energy =           0.0000000000000000
    PCM Polarization Energy =               0.0000000000000000
    EFP Energy =                            0.0000000000000000
    Total Energy =                       -321.8607384896253052
    Molecular point group: c1
  Basis Set: CC-PVTZ
  Basis Set:

  -Total Gradient:
     Atom            X                  Y                   Z
    ------   -----------------  -----------------  -----------------
       1       -0.000003701965    -0.000002675621     0.000000955738
       2        0.000000213859    -0.000013996195    -0.000001165235
       3       -0.000012314723    -0.000283627070    -0.000079461155
       4        0.000001960645    -0.000002276313     0.000003502466
       5       -0.000001270710     0.000005780258    -0.000002478693
       6       -0.000028461055     0.000277234127     0.000150007323
       7       -0.000002451832     0.000001902391     0.000005163338
       8       -0.000001825706     0.000003468422    -0.000003656666
       9        0.000117564493     0.000403002853    -0.000167666971
      10       -0.000008437317     0.000003488526     0.000001860483
      11        0.000007667964     0.000004873698    -0.000000178991
      12       -0.000071304326    -0.000396259073     0.000107699771
      13        0.000002360677    -0.000000916006    -0.000014581406

  **** Optimization is complete! (in 7 steps) ****
    Final optimized geometry and variables:
    Molecular point group: c1

    Geometry (in Angstrom), charge = 0, multiplicity = 1:

    H            3.501592230890     0.140288771216    -0.746146847167
    C            2.770937623074    -0.040539560368     0.031381375163
    C            1.357357983005     0.100212007231    -0.525926190381
    H            2.943986389886    -1.037436634867     0.421892094061
    H            2.956416375779     0.667719159760     0.831185404130
    C            0.327962558076    -0.150240918529     0.559348246121
    H            1.202350095298    -0.594981953603    -1.337751954499
    H            1.216033282881     1.095814677421    -0.930032787654
    N           -1.078833915380     0.002901075013     0.083469082466
    H            0.375641212758    -1.165204273790     0.931003376636
    H            0.419674683809     0.526141458732     1.392316964425
    O           -1.873109479658     0.365493810765     0.884589345265
    O           -1.320563041420    -0.276919819431    -1.041722567660

  Mulliken Charges: (a.u.)
   Center  Symbol    Alpha    Beta     Spin     Total
       1     H     0.44135  0.44135  0.00000  0.11730
       2     C     3.15221  3.15221  0.00000 -0.30443
       3     C     3.09324  3.09324  0.00000 -0.18649
       4     H     0.45285  0.45285  0.00000  0.09431
       5     H     0.45268  0.45268  0.00000  0.09465
       6     C     3.04420  3.04420  0.00000 -0.08840
       7     H     0.43451  0.43451  0.00000  0.13098
       8     H     0.44326  0.44326  0.00000  0.11349
       9     N     3.27477  3.27477  0.00000  0.45047
      10     H     0.43640  0.43640  0.00000  0.12721
      11     H     0.43176  0.43176  0.00000  0.13648
      12     O     4.17167  4.17167  0.00000 -0.34334
      13     O     4.17112  4.17112  0.00000 -0.34223

   Total alpha = 24.00000, Total beta = 24.00000, Total charge = -0.00000
