  ==> Input File <==

--------------------------------------------------------------------------
set {
	reference rhf
	basis cc-pvtz
}

set_num_threads( 4 )
memory 2 gb

molecule MOL {
0 1

H	 1.616875	 -1.768066	 0.973201
C	 0.730279	 -1.189725	 1.171442
O	 0.462329	 -0.453336	 -0.000137
H	 0.915058	 -0.532191	 2.011516
H	 -0.086759	 -1.860355	 1.405842
C	 -0.590565	 0.341382	 0.000062
O	 -1.693898	 -0.053880	 0.000252
H	 -0.340426	 1.403822	 0.000200

	symmetry c1
}
set optking {
	frozen_dihedral = ("
		2 3 6 7
	")
}

ee = optimize('scf')
oeprop('DIPOLE', 'QUADRUPOLE', 'MULLIKEN_CHARGES')
f=open( 'psi4out.xyz', 'w' )
f.write( "8  " )
f.write( str(ee) + "\n" )
f.write( MOL.save_string_xyz() )
f.close()
--------------------------------------------------------------------------

    Molecular point group: c1
  Charge       = 0
  Multiplicity = 1
  Basis Set: CC-PVTZ
  Basis Set:
  @DF-RHF Final Energy:  -227.86094680218474
    Total Energy =                       -227.8609468021846851
    Molecular point group: c1
  Basis Set: CC-PVTZ
  Basis Set:
  Basis Set: CC-PVTZ
  Basis Set:
  @DF-RHF Final Energy:  -227.85686100552721
    Total Energy =                       -227.8568610055273211
  Basis Set: CC-PVTZ
  Basis Set:
  Basis Set: CC-PVTZ
  Basis Set:
  @DF-RHF Final Energy:  -227.86147361823978
    Total Energy =                       -227.8614736182398133
  Basis Set: CC-PVTZ
  Basis Set:
  Basis Set: CC-PVTZ
  Basis Set:
  @DF-RHF Final Energy:  -227.86177181330441
    Total Energy =                       -227.8617718133043581
  Basis Set: CC-PVTZ
  Basis Set:
  Basis Set: CC-PVTZ
  Basis Set:
  @DF-RHF Final Energy:  -227.86177671797631
    Total Energy =                       -227.8617767179763121
  Basis Set: CC-PVTZ
  Basis Set:
  Charge       = 0
  Multiplicity = 1
  Basis Set: CC-PVTZ
  Basis Set:

    Orbital Energies (a.u.)
    -----------------------

    Doubly Occupied:

       1A    -20.591474     2A    -20.560781     3A    -11.375718
       4A    -11.294027     5A     -1.473186     6A     -1.382931
       7A     -0.989331     8A     -0.829092     9A     -0.741782
      10A     -0.689361    11A     -0.669447    12A     -0.624605
      13A     -0.562667    14A     -0.518497    15A     -0.474277
      16A     -0.459088

  @DF-RHF Final Energy:  -227.86177704304055

   => Energetics <=

    Nuclear Repulsion Energy =            122.4007729299787144
    One-Electron Energy =                -554.0525757014881947
    Two-Electron Energy =                 203.7900257284690611
    DFT Exchange-Correlation Energy =       0.0000000000000000
    Empirical Dispersion Energy =           0.0000000000000000
    PCM Polarization Energy =               0.0000000000000000
    EFP Energy =                            0.0000000000000000
    Total Energy =                       -227.8617770430404335
    Molecular point group: c1
  Basis Set: CC-PVTZ
  Basis Set:

  -Total Gradient:
     Atom            X                  Y                   Z
    ------   -----------------  -----------------  -----------------
       1       -0.000012618002     0.000016654155    -0.000009131339
       2        0.002736566365     0.003929135440     0.002050647387
       3       -0.004021694162    -0.005681038370    -0.006442826846
       4        0.000010009458    -0.000003518044     0.000004489980
       5        0.000007420850    -0.000009679428     0.000011077713
       6        0.001113161592     0.001471199203     0.011193666548
       7        0.000179953946     0.000283701680    -0.006809372496
       8       -0.000012800049    -0.000006454637     0.000001449053

  **** Optimization is complete! (in 6 steps) ****
    Final optimized geometry and variables:
    Molecular point group: c1

    Geometry (in Angstrom), charge = 0, multiplicity = 1:

    H            1.867396266323    -1.451993489175     0.654272655066
    C            1.002219757562    -0.847363586862     0.869713060392
    O            0.750660210155    -0.075306215240    -0.289774052288
    H            1.215759023582    -0.202620176412     1.713723317576
    H            0.158413767009    -1.483390878634     1.096856397975
    C           -0.343916302929     0.688560680534    -0.291951672205
    O           -1.442257108087     0.281964164797    -0.341650128695
    H           -0.103730863437     1.749031916893    -0.322998274368

  Mulliken Charges: (a.u.)
   Center  Symbol    Alpha    Beta     Spin     Total
       1     H     0.44535  0.44535  0.00000  0.10931
       2     C     3.02333  3.02333  0.00000 -0.04666
       3     O     4.15593  4.15593  0.00000 -0.31187
       4     H     0.46405  0.46405  0.00000  0.07190
       5     H     0.45143  0.45143  0.00000  0.09714
       6     C     2.83012  2.83012  0.00000  0.33976
       7     O     4.16854  4.16854  0.00000 -0.33709
       8     H     0.46125  0.46125  0.00000  0.07750

   Total alpha = 16.00000, Total beta = 16.00000, Total charge =  0.00000
