  ==> Input File <==

--------------------------------------------------------------------------
set {
	reference rhf
	basis 6-31G*
}

set_num_threads( 1 )
memory 2 gb

molecule MOL {
0 1

H	 -2.758240	 1.908177	 -0.785579
C	 -2.016964	 1.300431	 -0.304106
C	 -2.076860	 -0.007332	 -0.404944
H	 -1.237977	 1.785857	 0.253077
O	 -1.180634	 -0.819263	 0.215062
H	 -2.844555	 -0.512538	 -0.964057
C	 0.051604	 -1.018856	 -0.387932
C	 1.043764	 0.054862	 -0.001873
H	 -0.017620	 -1.041351	 -1.469781
H	 0.437898	 -1.966374	 -0.042284
F	 2.212596	 -0.199467	 -0.571921
F	 0.652529	 1.252447	 -0.405055
F	 1.230877	 0.110694	 1.300533

	symmetry c1
}
set optking {
	frozen_dihedral = ("
		11 8 7 9,
		3 5 7 9,
		6 3 2 1
	")
}

ee = energy('scf')
oeprop('DIPOLE', 'QUADRUPOLE', 'MULLIKEN_CHARGES')
f=open( 'psi4out.xyz', 'w' )
f.write( "13  " )
f.write( str(ee) + "\n" )
f.write( MOL.save_string_xyz() )
f.close()
--------------------------------------------------------------------------

    Molecular point group: c1

    Geometry (in Angstrom), charge = 0, multiplicity = 1:

       Center              X                  Y                   Z               Mass
    ------------   -----------------  -----------------  -----------------  -----------------
           H         -2.889012428429     1.804008349008    -0.732960564770     1.007825032070
           C         -2.147736428429     1.196262349008    -0.251487564770    12.000000000000
           C         -2.207632428429    -0.111500650992    -0.352325564770    12.000000000000
           H         -1.368749428429     1.681688349008     0.305695435230     1.007825032070
           O         -1.311406428429    -0.923431650992     0.267680435230    15.994914619560
           H         -2.975327428429    -0.616706650992    -0.911438564770     1.007825032070
           C         -0.079168428429    -1.123024650992    -0.335313564770    12.000000000000
           C          0.912991571571    -0.049306650992     0.050745435230    12.000000000000
           H         -0.148392428429    -1.145519650992    -1.417162564770     1.007825032070
           H          0.307125571571    -2.070542650992     0.010334435230     1.007825032070
           F          2.081823571571    -0.303635650992    -0.519302564770    18.998403224000
           F          0.521756571571     1.148278349008    -0.352436564770    18.998403224000
           F          1.100104571571     0.006525349008     1.353151435230    18.998403224000

  Charge       = 0
  Multiplicity = 1
  Basis Set: 6-31G*
  Basis Set:

    Orbital Energies (a.u.)
    -----------------------

    Doubly Occupied:

       1A    -26.342272     2A    -26.341605     3A    -26.339819
       4A    -20.594858     5A    -11.500531     6A    -11.313294
       7A    -11.288980     8A    -11.221375     9A     -1.740774
      10A     -1.639063    11A     -1.637407    12A     -1.429036
      13A     -1.077452    14A     -1.017018    15A     -0.928514
      16A     -0.837019    17A     -0.830347    18A     -0.811998
      19A     -0.782932    20A     -0.721376    21A     -0.712476
      22A     -0.689532    23A     -0.666414    24A     -0.664292
      25A     -0.657170    26A     -0.644245    27A     -0.642008
      28A     -0.590907    29A     -0.557188    30A     -0.524314
      31A     -0.461861    32A     -0.370305

  @DF-RHF Final Energy:  -527.52452389871087

   => Energetics <=

    Nuclear Repulsion Energy =            423.8669170173673706
    One-Electron Energy =               -1571.6300926802027789
    Two-Electron Energy =                 620.2386517641240289
    DFT Exchange-Correlation Energy =       0.0000000000000000
    Empirical Dispersion Energy =           0.0000000000000000
    PCM Polarization Energy =               0.0000000000000000
    EFP Energy =                            0.0000000000000000
    Total Energy =                       -527.5245238987114362

  Mulliken Charges: (a.u.)
   Center  Symbol    Alpha    Beta     Spin     Total
       1     H     0.40779  0.40779  0.00000  0.18441
       2     C     3.20979  3.20979  0.00000 -0.41957
       3     C     2.92757  2.92757  0.00000  0.14486
       4     H     0.39277  0.39277  0.00000  0.21447
       5     O     4.30746  4.30746  0.00000 -0.61491
       6     H     0.40661  0.40661  0.00000  0.18678
       7     C     3.05121  3.05121  0.00000 -0.10243
       8     C     2.45799  2.45799  0.00000  1.08401
       9     H     0.40640  0.40640  0.00000  0.18720
      10     H     0.39460  0.39460  0.00000  0.21080
      11     F     4.68287  4.68287  0.00000 -0.36573
      12     F     4.67888  4.67888  0.00000 -0.35776
      13     F     4.67606  4.67606  0.00000 -0.35212

   Total alpha = 32.00000, Total beta = 32.00000, Total charge = -0.00000
