  ==> Input File <==

--------------------------------------------------------------------------
set {
	reference rhf
	basis 6-31G*
}

set_num_threads( 4 )
memory 2 gb

molecule MOL {
0 1

H	 3.089270	 -1.380733	 0.000000
O	 2.178328	 -1.639175	 0.000000
C	 1.368216	 -0.558384	 0.000000
C	 1.391108	 0.388798	 1.015691
C	 0.492856	 -0.412920	 -1.062081
H	 2.073098	 0.273711	 1.841330
C	 0.539495	 1.479771	 0.968751
H	 0.474156	 -1.143810	 -1.847272
C	 -0.356390	 0.682201	 -1.101431
H	 0.566325	 2.206191	 1.760567
C	 -0.338571	 1.633111	 -0.088897
C	 -1.299322	 0.844592	 -2.239578
H	 -1.000937	 2.479749	 -0.127376
O	 -1.390917	 0.087911	 -3.152590
H	 -1.931953	 1.735997	 -2.190342

	symmetry c1
}
set optking {
	frozen_dihedral = ("
		4 3 2 1
	")
}

ee = optimize('scf')
oeprop('DIPOLE', 'QUADRUPOLE', 'MULLIKEN_CHARGES')
f=open( 'psi4out.xyz', 'w' )
f.write( "15  " )
f.write( str(ee) + "\n" )
f.write( MOL.save_string_xyz() )
f.close()
--------------------------------------------------------------------------

    Molecular point group: c1
  Charge       = 0
  Multiplicity = 1
  Basis Set: 6-31G*
  Basis Set:
  @DF-RHF Final Energy:  -418.28290832970924
    Total Energy =                       -418.2829083297100397
    Molecular point group: c1
  Basis Set: 6-31G*
  Basis Set:
  Basis Set: 6-31G*
  Basis Set:
  @DF-RHF Final Energy:  -418.28331942921744
    Total Energy =                       -418.2833194292174994
  Basis Set: 6-31G*
  Basis Set:
  Basis Set: 6-31G*
  Basis Set:
  @DF-RHF Final Energy:  -418.28298090009002
    Total Energy =                       -418.2829809000902515
  Basis Set: 6-31G*
  Basis Set:
  Basis Set: 6-31G*
  Basis Set:
  @DF-RHF Final Energy:  -418.28343448063936
    Total Energy =                       -418.2834344806389026
  Basis Set: 6-31G*
  Basis Set:
  Basis Set: 6-31G*
  Basis Set:
  @DF-RHF Final Energy:  -418.28344140983779
    Total Energy =                       -418.2834414098377920
  Basis Set: 6-31G*
  Basis Set:
  Charge       = 0
  Multiplicity = 1
  Basis Set: 6-31G*
  Basis Set:

    Orbital Energies (a.u.)
    -----------------------

    Doubly Occupied:

       1A    -20.590844     2A    -20.564537     3A    -11.333108
       4A    -11.305611     5A    -11.252550     6A    -11.251692
       7A    -11.250769     8A    -11.249957     9A    -11.242425
      10A     -1.407787    11A     -1.405097    12A     -1.170101
      13A     -1.048819    14A     -1.026591    15A     -0.897897
      16A     -0.844920    17A     -0.806095    18A     -0.737926
      19A     -0.699070    20A     -0.683741    21A     -0.645027
      22A     -0.635705    23A     -0.617318    24A     -0.606109
      25A     -0.555896    26A     -0.546412    27A     -0.535848
      28A     -0.502695    29A     -0.486316    30A     -0.423656
      31A     -0.352462    32A     -0.337363

  @DF-RHF Final Energy:  -418.28344231835484

   => Energetics <=

    Nuclear Repulsion Energy =            402.7047535760071355
    One-Electron Energy =               -1367.9476988494125180
    Two-Electron Energy =                 546.9595029550506524
    DFT Exchange-Correlation Energy =       0.0000000000000000
    Empirical Dispersion Energy =           0.0000000000000000
    PCM Polarization Energy =               0.0000000000000000
    EFP Energy =                            0.0000000000000000
    Total Energy =                       -418.2834423183547869
    Molecular point group: c1
  Basis Set: 6-31G*
  Basis Set:

  -Total Gradient:
     Atom            X                  Y                   Z
    ------   -----------------  -----------------  -----------------
       1        0.000083256776     0.000000335661    -0.001649656567
       2       -0.000449066649    -0.000457200592     0.002338465307
       3        0.001210132463     0.001173403283    -0.001183236592
       4       -0.000813413647    -0.000762648896     0.000550583523
       5       -0.000024354014     0.000002482465    -0.000023474420
       6       -0.000002598415    -0.000010770195     0.000002582600
       7       -0.000080256461     0.000133695131    -0.000101170240
       8       -0.000001852980    -0.000004956642     0.000004130426
       9        0.000041676850    -0.000060497551    -0.000105363256
      10        0.000004691807    -0.000009386161    -0.000004748364
      11        0.000043733533    -0.000019050071     0.000173826399
      12        0.000008857925     0.000020427925     0.000031657755
      13       -0.000014906008     0.000000357537    -0.000017046890
      14       -0.000002908476    -0.000002983532    -0.000008885207
      15       -0.000002992701    -0.000003208357    -0.000007664473

  **** Optimization is complete! (in 6 steps) ****
    Final optimized geometry and variables:
    Molecular point group: c1

    Geometry (in Angstrom), charge = 0, multiplicity = 1:

    H            2.787843925021    -1.628085841429     0.726996895864
    O            1.875220898262    -1.880666768909     0.689746301817
    C            1.072438262704    -0.778439272097     0.644929871671
    C            1.089761006470     0.158615425445     1.671449322846
    C            0.191823499431    -0.637902273106    -0.407657441078
    H            1.764757205971     0.021658171382     2.497703862612
    C            0.240053958963     1.249222496201     1.630782031074
    H            0.171218535825    -1.367630116510    -1.193960798728
    C           -0.670294790519     0.452880569556    -0.439335303622
    H            0.261555273902     1.972523989826     2.425425717703
    C           -0.645196442741     1.398307539392     0.575009951274
    C           -1.620422305756     0.614267221930    -1.569498276869
    H           -1.312254818223     2.242008793910     0.543722682094
    O           -1.707585291955    -0.135159258817    -2.489417433769
    H           -2.263426493075     1.497643848546    -1.509774378069

  Mulliken Charges: (a.u.)
   Center  Symbol    Alpha    Beta     Spin     Total
       1     H     0.27070  0.27070  0.00000  0.45859
       2     O     4.38319  4.38319  0.00000 -0.76638
       3     C     2.81390  2.81390  0.00000  0.37220
       4     C     3.11650  3.11650  0.00000 -0.23301
       5     C     3.10780  3.10780  0.00000 -0.21561
       6     H     0.39251  0.39251  0.00000  0.21497
       7     C     3.09986  3.09986  0.00000 -0.19972
       8     H     0.37084  0.37084  0.00000  0.25832
       9     C     3.05014  3.05014  0.00000 -0.10028
      10     H     0.39276  0.39276  0.00000  0.21448
      11     C     3.10942  3.10942  0.00000 -0.21883
      12     C     2.83218  2.83218  0.00000  0.33564
      13     H     0.39230  0.39230  0.00000  0.21541
      14     O     4.24590  4.24590  0.00000 -0.49180
      15     H     0.42200  0.42200  0.00000  0.15600

   Total alpha = 32.00000, Total beta = 32.00000, Total charge = -0.00000
