  ==> Input File <==

--------------------------------------------------------------------------
set {
	reference rhf
	basis 6-31G*
}

set_num_threads( 4 )
memory 2 gb

molecule MOL {
0 1

O	 1.012009	 -3.105512	 -4.316652
C	 0.806176	 -1.945566	 -4.125359
C	 0.545907	 -1.421918	 -2.723803
C	 0.825619	 -0.939100	 -5.254085
C	 1.860773	 -1.272791	 -1.941480
H	 -0.095990	 -2.136230	 -2.219788
H	 0.026522	 -0.468614	 -2.762236
C	 1.631333	 -0.777471	 -0.511575
H	 2.362267	 -2.233970	 -1.936739
H	 2.518879	 -0.577373	 -2.460168
C	 2.915987	 -0.544314	 0.291766
H	 1.001372	 -1.490266	 0.017386
H	 1.071872	 0.154975	 -0.548935
C	 3.373361	 0.914346	 0.347591
H	 3.708709	 -1.142521	 -0.150311
H	 2.780642	 -0.921148	 1.303579
H	 3.506512	 1.320010	 -0.651625
H	 4.322697	 0.999599	 0.867103
H	 2.660624	 1.545032	 0.868198
H	 -0.170900	 -0.528695	 -5.394735
H	 1.150234	 -1.414971	 -6.168938
H	 1.483452	 -0.107986	 -5.016789

	symmetry c1
}
set optking {
	frozen_dihedral = ("
		12 8 11 15
	")
}

ee = optimize('scf')
oeprop('DIPOLE', 'QUADRUPOLE', 'MULLIKEN_CHARGES')
f=open( 'psi4out.xyz', 'w' )
f.write( "22  " )
f.write( str(ee) + "\n" )
f.write( MOL.save_string_xyz() )
f.close()
--------------------------------------------------------------------------

    Molecular point group: c1
  Charge       = 0
  Multiplicity = 1
  Basis Set: 6-31G*
  Basis Set:
  @DF-RHF Final Energy:  -348.09519193949018
    Total Energy =                       -348.0951919394903484
    Molecular point group: c1
  Basis Set: 6-31G*
  Basis Set:
  Basis Set: 6-31G*
  Basis Set:
  @DF-RHF Final Energy:  -348.09545304340173
    Total Energy =                       -348.0954530434019034
  Basis Set: 6-31G*
  Basis Set:
  Basis Set: 6-31G*
  Basis Set:
  @DF-RHF Final Energy:  -348.09318569504580
    Total Energy =                       -348.0931856950455767
  Basis Set: 6-31G*
  Basis Set:
  Basis Set: 6-31G*
  Basis Set:
  @DF-RHF Final Energy:  -348.09556672006954
    Total Energy =                       -348.0955667200698826
  Basis Set: 6-31G*
  Basis Set:
  @DF-RHF Final Energy:  -348.09524246580781
    Total Energy =                       -348.0952424658077575
  @DF-RHF Final Energy:  -348.09526270739281
    Total Energy =                       -348.0952627073924646
  @DF-RHF Final Energy:  -348.09555997160982
    Total Energy =                       -348.0955599716099300
  Basis Set: 6-31G*
  Basis Set:
  @DF-RHF Final Energy:  -348.09557501190801
    Total Energy =                       -348.0955750119079539
  Basis Set: 6-31G*
  Basis Set:
  Basis Set: 6-31G*
  Basis Set:
  @DF-RHF Final Energy:  -348.09559594013194
    Total Energy =                       -348.0955959401319433
  Basis Set: 6-31G*
  Basis Set:
  Basis Set: 6-31G*
  Basis Set:
  @DF-RHF Final Energy:  -348.09559873722344
    Total Energy =                       -348.0955987372233267
  Basis Set: 6-31G*
  Basis Set:
  Charge       = 0
  Multiplicity = 1
  Basis Set: 6-31G*
  Basis Set:

    Orbital Energies (a.u.)
    -----------------------

    Doubly Occupied:

       1A    -20.547451     2A    -11.324591     3A    -11.230609
       4A    -11.229200     5A    -11.228290     6A    -11.222075
       7A    -11.220510     8A    -11.213559     9A     -1.393215
      10A     -1.095342    11A     -1.044645    12A     -1.000379
      13A     -0.938201    14A     -0.851248    15A     -0.795035
      16A     -0.732905    17A     -0.660660    18A     -0.646573
      19A     -0.626929    20A     -0.616523    21A     -0.598502
      22A     -0.585120    23A     -0.555877    24A     -0.545888
      25A     -0.539535    26A     -0.512589    27A     -0.500318
      28A     -0.489269    29A     -0.472555    30A     -0.464086
      31A     -0.458982    32A     -0.396269

  @DF-RHF Final Energy:  -348.09559840037514

   => Energetics <=

    Nuclear Repulsion Energy =            371.2455588637290020
    One-Electron Energy =               -1207.2084565682957873
    Two-Electron Energy =                 487.8672993041918744
    DFT Exchange-Correlation Energy =       0.0000000000000000
    Empirical Dispersion Energy =           0.0000000000000000
    PCM Polarization Energy =               0.0000000000000000
    EFP Energy =                            0.0000000000000000
    Total Energy =                       -348.0955984003749109
    Molecular point group: c1
  Basis Set: 6-31G*
  Basis Set:

  -Total Gradient:
     Atom            X                  Y                   Z
    ------   -----------------  -----------------  -----------------
       1        0.000010916633    -0.000004659165     0.000009206147
       2        0.000018893265     0.000017713557    -0.000016940026
       3        0.000011345864     0.000032599560     0.000006071729
       4       -0.000027537723    -0.000016313087    -0.000014513752
       5       -0.000004595332    -0.000006626131    -0.000000007005
       6       -0.000003110540     0.000004774857     0.000010872352
       7       -0.000005209213    -0.000001038722     0.000004159807
       8        0.001934776282    -0.002526580283    -0.002488990762
       9       -0.000034387721    -0.000004692445    -0.000008797307
      10        0.000021625222    -0.000010596703    -0.000003137576
      11       -0.001246832573    -0.002448867496     0.002810142743
      12       -0.001416763934     0.002466965384     0.001650325120
      13       -0.000020292585    -0.000016076339    -0.000007676790
      14        0.000010005393    -0.000009782758     0.000008551869
      15        0.000752446702     0.002508508185    -0.001970321243
      16       -0.000008259444     0.000007542446     0.000003875808
      17       -0.000002690218    -0.000002753568     0.000001561491
      18        0.000001381058     0.000004098088     0.000004396178
      19       -0.000002975849    -0.000001914169    -0.000005842965
      20        0.000003580907     0.000012275363    -0.000003540603
      21        0.000002616512     0.000001720781     0.000000375749
      22        0.000005067295    -0.000006297353     0.000010229037

  **** Optimization is complete! (in 11 steps) ****
    Final optimized geometry and variables:
    Molecular point group: c1

    Geometry (in Angstrom), charge = 0, multiplicity = 1:

    O           -0.633799503032    -1.971150158937    -2.037735592006
    C           -0.822707832256    -0.809883684308    -1.837869918756
    C           -1.090737214158    -0.294232099055    -0.434795019943
    C           -0.780799219897     0.205747849501    -2.958024502280
    C            0.219173335486    -0.142590355670     0.353872270834
    H           -1.731908858691    -1.013328576847     0.063267290292
    H           -1.613478136273     0.657388494439    -0.471275443145
    C           -0.009788991257     0.333586544640     1.788974461573
    H            0.730649087634    -1.100018762218     0.362485717915
    H            0.876884665399     0.557842857603    -0.158249895101
    C            1.296177786007     0.565338239411     2.574660534850
    H           -0.641578706440    -0.378009325695     2.314155421777
    H           -0.581439217037     1.259868512926     1.768570421267
    C            1.737300068940     2.030985486712     2.584228317152
    H            2.094508772850    -0.024860380947     2.131500065820
    H            1.182806336635     0.221887484007     3.598028771369
    H            1.865723767096     2.410926634844     1.574208118248
    H            2.682613946938     2.153548359640     3.103852136545
    H            1.002059442546     2.657664316088     3.080696874844
    H           -1.771705539443     0.626868884869    -3.106253612085
    H           -0.450971869707    -0.266126019827    -3.873060106713
    H           -0.117605380863     1.028503339628    -2.707174793452

  Mulliken Charges: (a.u.)
   Center  Symbol    Alpha    Beta     Spin     Total
       1     O     4.26211  4.26211  0.00000 -0.52423
       2     C     2.73731  2.73731  0.00000  0.52538
       3     C     3.20044  3.20044  0.00000 -0.40088
       4     C     3.28953  3.28953  0.00000 -0.57906
       5     C     3.16351  3.16351  0.00000 -0.32702
       6     H     0.40101  0.40101  0.00000  0.19797
       7     H     0.41669  0.41669  0.00000  0.16662
       8     C     3.15491  3.15491  0.00000 -0.30983
       9     H     0.40524  0.40524  0.00000  0.18951
      10     H     0.42049  0.42049  0.00000  0.15901
      11     C     3.15611  3.15611  0.00000 -0.31222
      12     H     0.41724  0.41724  0.00000  0.16552
      13     H     0.42212  0.42212  0.00000  0.15577
      14     C     3.24016  3.24016  0.00000 -0.48032
      15     H     0.41921  0.41921  0.00000  0.16159
      16     H     0.41758  0.41758  0.00000  0.16483
      17     H     0.42304  0.42304  0.00000  0.15392
      18     H     0.41855  0.41855  0.00000  0.16290
      19     H     0.42105  0.42105  0.00000  0.15790
      20     H     0.40679  0.40679  0.00000  0.18642
      21     H     0.39704  0.39704  0.00000  0.20591
      22     H     0.40985  0.40985  0.00000  0.18029

   Total alpha = 32.00000, Total beta = 32.00000, Total charge =  0.00000
