  ==> Input File <==

--------------------------------------------------------------------------
set {
	reference rhf
	basis 6-31G*
}

set_num_threads( 4 )
memory 2 gb

molecule MOL {
0 1

H	 -2.273092	 1.173159	 0.000295
O	 -1.438904	 1.618192	 0.000114
C	 -0.409536	 0.736003	 0.000030
C	 -0.635512	 -0.483125	 0.619596
C	 0.819692	 1.024717	 -0.588684
H	 -1.597883	 -0.664721	 1.061022
C	 0.367557	 -1.432764	 0.658909
C	 1.809968	 0.051387	 -0.534188
C	 1.064315	 2.355517	 -1.264062
H	 0.185867	 -2.376666	 1.141125
C	 1.599050	 -1.169979	 0.080682
H	 2.765260	 0.259030	 -0.984351
H	 0.954331	 3.188696	 -0.572932
H	 2.069614	 2.402962	 -1.662934
H	 0.381797	 2.521447	 -2.095106
H	 2.383787	 -1.903918	 0.107500

	symmetry c1
}
set optking {
	frozen_dihedral = ("
		4 3 2 1
	")
}

ee = optimize('scf')
oeprop('DIPOLE', 'QUADRUPOLE', 'MULLIKEN_CHARGES')
f=open( 'psi4out.xyz', 'w' )
f.write( "16  " )
f.write( str(ee) + "\n" )
f.write( MOL.save_string_xyz() )
f.close()
--------------------------------------------------------------------------

    Molecular point group: c1
  Charge       = 0
  Multiplicity = 1
  Basis Set: 6-31G*
  Basis Set:
  @DF-RHF Final Energy:  -344.59142064926624
    Total Energy =                       -344.5914206492663538
    Molecular point group: c1
  Basis Set: 6-31G*
  Basis Set:
  Basis Set: 6-31G*
  Basis Set:
  @DF-RHF Final Energy:  -344.59369360507901
    Total Energy =                       -344.5936936050788972
  Basis Set: 6-31G*
  Basis Set:
  Basis Set: 6-31G*
  Basis Set:
  @DF-RHF Final Energy:  -344.59388343956846
    Total Energy =                       -344.5938834395685717
  Basis Set: 6-31G*
  Basis Set:
  Basis Set: 6-31G*
  Basis Set:
  @DF-RHF Final Energy:  -344.59390127743666
    Total Energy =                       -344.5939012774369417
  Basis Set: 6-31G*
  Basis Set:
  Basis Set: 6-31G*
  Basis Set:
  @DF-RHF Final Energy:  -344.59390512375273
    Total Energy =                       -344.5939051237525064
  Basis Set: 6-31G*
  Basis Set:
  Charge       = 0
  Multiplicity = 1
  Basis Set: 6-31G*
  Basis Set:

    Orbital Energies (a.u.)
    -----------------------

    Doubly Occupied:

       1A    -20.586140     2A    -11.290480     3A    -11.231093
       4A    -11.230385     5A    -11.227947     6A    -11.225940
       7A    -11.220617     8A    -11.212992     9A     -1.403217
      10A     -1.148011    11A     -1.043374    12A     -1.002614
      13A     -0.928749    14A     -0.841323    15A     -0.799092
      16A     -0.729676    17A     -0.669804    18A     -0.650391
      19A     -0.610532    20A     -0.593818    21A     -0.573837
      22A     -0.558318    23A     -0.541742    24A     -0.536475
      25A     -0.499278    26A     -0.480988    27A     -0.470510
      28A     -0.329044    29A     -0.306351

  @DF-RHF Final Energy:  -344.59390531675973

   => Energetics <=

    Nuclear Repulsion Energy =            350.0665346400994054
    One-Electron Energy =               -1161.4354008451657592
    Two-Electron Energy =                 466.7749608883067935
    DFT Exchange-Correlation Energy =       0.0000000000000000
    Empirical Dispersion Energy =           0.0000000000000000
    PCM Polarization Energy =               0.0000000000000000
    EFP Energy =                            0.0000000000000000
    Total Energy =                       -344.5939053167595034
    Molecular point group: c1
  Basis Set: 6-31G*
  Basis Set:

  -Total Gradient:
     Atom            X                  Y                   Z
    ------   -----------------  -----------------  -----------------
       1        0.000011188675    -0.000068825651    -0.002364003892
       2        0.000258155362     0.000473177953     0.003695263236
       3       -0.000880689335    -0.001036412841    -0.002796454865
       4        0.000598819931     0.000675741398     0.001526192225
       5        0.000005088617    -0.000022182701    -0.000037522212
       6        0.000001856410    -0.000003250294    -0.000001060466
       7       -0.000003996829    -0.000034938246    -0.000024663940
       8       -0.000021482083     0.000011776611    -0.000037489670
       9        0.000007467354     0.000000382036     0.000018775525
      10        0.000006104257    -0.000002235931    -0.000003166628
      11        0.000009778139     0.000015437082     0.000023636982
      12        0.000004585830     0.000005023232     0.000002326096
      13       -0.000001447220    -0.000006737876    -0.000000789033
      14        0.000006670060     0.000003638909    -0.000005460759
      15       -0.000000607952    -0.000009083982     0.000000757220
      16       -0.000001491213    -0.000001509699     0.000003660181

  **** Optimization is complete! (in 6 steps) ****
    Final optimized geometry and variables:
    Molecular point group: c1

    Geometry (in Angstrom), charge = 0, multiplicity = 1:

    H           -2.588924586455     0.885237278784     0.106727300305
    O           -1.725992668799     1.274741759930     0.097790759214
    C           -0.767255323347     0.310015021241     0.135336547102
    C           -0.985267948237    -0.901897250926     0.765334794120
    C            0.465660770239     0.611158537832    -0.442250011867
    H           -1.939907953428    -1.099851599681     1.222981357786
    C            0.023394080179    -1.852805016061     0.807685378871
    C            1.459657644819    -0.352023640442    -0.376878902160
    C            0.685912978288     1.947037242541    -1.108334134256
    H           -0.154876915579    -2.795687934506     1.292984308454
    C            1.251060476361    -1.579785586729     0.237104189203
    H            2.417261887381    -0.139606158621    -0.819584877900
    H            0.567792451788     2.762199333046    -0.402217597248
    H            1.682754143352     2.005009127465    -1.529657523714
    H           -0.031524671200     2.110026935120    -1.905361783597
    H            2.040979255009    -2.308208927409     0.267821054437

  Mulliken Charges: (a.u.)
   Center  Symbol    Alpha    Beta     Spin     Total
       1     H     0.27206  0.27206  0.00000  0.45589
       2     O     4.38210  4.38210  0.00000 -0.76420
       3     C     2.81249  2.81249  0.00000  0.37501
       4     C     3.13366  3.13366  0.00000 -0.26732
       5     C     3.00695  3.00695  0.00000 -0.01390
       6     H     0.40347  0.40347  0.00000  0.19306
       7     C     3.09693  3.09693  0.00000 -0.19386
       8     C     3.10852  3.10852  0.00000 -0.21703
       9     C     3.24124  3.24124  0.00000 -0.48248
      10     H     0.39929  0.39929  0.00000  0.20141
      11     C     3.10636  3.10636  0.00000 -0.21272
      12     H     0.40095  0.40095  0.00000  0.19809
      13     H     0.40740  0.40740  0.00000  0.18520
      14     H     0.41801  0.41801  0.00000  0.16398
      15     H     0.40959  0.40959  0.00000  0.18081
      16     H     0.40098  0.40098  0.00000  0.19805

   Total alpha = 29.00000, Total beta = 29.00000, Total charge =  0.00000
