  ==> Input File <==

--------------------------------------------------------------------------
set {
	reference rhf
	basis 6-31G*
}

set_num_threads( 1 )
memory 2 gb

molecule MOL {
0 1

H	 -3.018398	 0.189622	 0.544023
O	 -2.347518	 -0.290803	 0.079804
C	 -1.184022	 0.487508	 -0.006784
C	 0.062599	 -0.378592	 0.031606
H	 -1.176523	 1.099369	 -0.904519
H	 -1.187323	 1.153111	 0.844927
O	 1.171513	 0.459272	 -0.058250
H	 0.050699	 -1.089204	 -0.797170
H	 0.078739	 -0.954914	 0.954740
C	 2.397842	 -0.198080	 -0.002151
H	 2.508049	 -0.905315	 -0.822092
H	 3.173794	 0.550865	 -0.078850
H	 2.517602	 -0.735921	 0.936026

	symmetry c1
}
set optking {
	frozen_dihedral = ("
		8 4 3 5,
		10 7 4 8,
		4 7 10 13
	")
}

ee = energy('scf')
oeprop('DIPOLE', 'QUADRUPOLE', 'MULLIKEN_CHARGES')
f=open( 'psi4out.xyz', 'w' )
f.write( "13  " )
f.write( str(ee) + "\n" )
f.write( MOL.save_string_xyz() )
f.close()
--------------------------------------------------------------------------

    Molecular point group: c1

    Geometry (in Angstrom), charge = 0, multiplicity = 1:

       Center              X                  Y                   Z               Mass
    ------------   -----------------  -----------------  -----------------  -----------------
           H         -3.011516234013     0.177434692813     0.526940184761     1.007825032070
           O         -2.340636234013    -0.302990307187     0.062721184761    15.994914619560
           C         -1.177140234013     0.475320692813    -0.023866815239    12.000000000000
           C          0.069480765987    -0.390779307187     0.014523184761    12.000000000000
           H         -1.169641234013     1.087181692813    -0.921601815239     1.007825032070
           H         -1.180441234013     1.140923692813     0.827844184761     1.007825032070
           O          1.178394765987     0.447084692813    -0.075332815239    15.994914619560
           H          0.057580765987    -1.101391307187    -0.814252815239     1.007825032070
           H          0.085620765987    -0.967101307187     0.937657184761     1.007825032070
           C          2.404723765987    -0.210267307187    -0.019233815239    12.000000000000
           H          2.514930765987    -0.917502307187    -0.839174815239     1.007825032070
           H          3.180675765987     0.538677692813    -0.095932815239     1.007825032070
           H          2.524483765987    -0.748108307187     0.918943184761     1.007825032070

  Charge       = 0
  Multiplicity = 1
  Basis Set: 6-31G*
  Basis Set:

    Orbital Energies (a.u.)
    -----------------------

    Doubly Occupied:

       1A    -20.560368     2A    -20.556866     3A    -11.269322
       4A    -11.268678     5A    -11.268499     6A     -1.386573
       7A     -1.363199     8A     -1.017709     9A     -0.911716
      10A     -0.832746    11A     -0.708326    12A     -0.681885
      13A     -0.643686    14A     -0.640806    15A     -0.614828
      16A     -0.551759    17A     -0.542347    18A     -0.493987
      19A     -0.471289    20A     -0.438028    21A     -0.418959

  @DF-RHF Final Energy:  -267.94870183113164

   => Energetics <=

    Nuclear Repulsion Energy =            189.8770952069896509
    One-Electron Energy =                -742.3683579097905749
    Two-Electron Energy =                 284.5425608716693660
    DFT Exchange-Correlation Energy =       0.0000000000000000
    Empirical Dispersion Energy =           0.0000000000000000
    PCM Polarization Energy =               0.0000000000000000
    EFP Energy =                            0.0000000000000000
    Total Energy =                       -267.9487018311315296

  Mulliken Charges: (a.u.)
   Center  Symbol    Alpha    Beta     Spin     Total
       1     H     0.27718  0.27718  0.00000  0.44565
       2     O     4.37606  4.37606  0.00000 -0.75211
       3     C     2.99944  2.99944  0.00000  0.00113
       4     C     2.99368  2.99368  0.00000  0.01265
       5     H     0.42046  0.42046  0.00000  0.15907
       6     H     0.42687  0.42687  0.00000  0.14626
       7     O     4.30830  4.30830  0.00000 -0.61660
       8     H     0.42434  0.42434  0.00000  0.15131
       9     H     0.42652  0.42652  0.00000  0.14697
      10     C     3.07960  3.07960  0.00000 -0.15920
      11     H     0.42795  0.42795  0.00000  0.14410
      12     H     0.41120  0.41120  0.00000  0.17759
      13     H     0.42841  0.42841  0.00000  0.14318

   Total alpha = 21.00000, Total beta = 21.00000, Total charge = -0.00000
