  ==> Input File <==

--------------------------------------------------------------------------
set {
	reference rhf
	basis 6-31G*
}

set_num_threads( 1 )
memory 2 gb

molecule MOL {
0 1

H	 -2.646374	 -0.642757	 1.268656
C	 -2.083525	 -0.384536	 0.393091
O	 -0.807605	 -0.127164	 0.768327
F	 -2.118945	 -1.383102	 -0.486752
F	 -2.621877	 0.670592	 -0.209486
C	 -0.489903	 1.170286	 1.126625
C	 0.808660	 1.523391	 0.413036
Cl	 -0.295559	 1.310962	 2.881520
H	 -1.244561	 1.875145	 0.824238
F	 1.168796	 2.756819	 0.697813
F	 0.612913	 1.444292	 -0.888066
F	 1.786763	 0.712750	 0.735758

	symmetry c1
}
set optking {
	frozen_dihedral = ("
		10 7 6 9,
		9 6 3 2
	")
}

ee = energy('scf')
oeprop('DIPOLE', 'QUADRUPOLE', 'MULLIKEN_CHARGES')
f=open( 'psi4out.xyz', 'w' )
f.write( "12  " )
f.write( str(ee) + "\n" )
f.write( MOL.save_string_xyz() )
f.close()
--------------------------------------------------------------------------

    Molecular point group: c1

    Geometry (in Angstrom), charge = 0, multiplicity = 1:

       Center              X                  Y                   Z               Mass
    ------------   -----------------  -----------------  -----------------  -----------------
           H         -2.262486640295    -1.472122411223     0.532175453931     1.007825032070
           C         -1.699637640295    -1.213901411223    -0.343389546069    12.000000000000
           O         -0.423717640295    -0.956529411223     0.031846453931    15.994914619560
           F         -1.735057640295    -2.212467411223    -1.223232546069    18.998403224000
           F         -2.237989640295    -0.158773411223    -0.945966546069    18.998403224000
           C         -0.106015640295     0.340920588777     0.390144453931    12.000000000000
           C          1.192547359705     0.694025588777    -0.323444546069    12.000000000000
          CL          0.088328359705     0.481596588777     2.145039453931    34.968852682000
           H         -0.860673640295     1.045779588777     0.087757453931     1.007825032070
           F          1.552683359705     1.927453588777    -0.038667546069    18.998403224000
           F          0.996800359705     0.614926588777    -1.624546546069    18.998403224000
           F          2.170650359705    -0.116615411223    -0.000722546069    18.998403224000

  Charge       = 0
  Multiplicity = 1
  Basis Set: 6-31G*
  Basis Set:

    Orbital Energies (a.u.)
    -----------------------

    Doubly Occupied:

       1A   -104.849580     2A    -26.361327     3A    -26.359219
       4A    -26.357842     5A    -26.355187     6A    -26.344074
       7A    -20.649359     8A    -11.528566     9A    -11.491557
      10A    -11.403883    11A    -10.584370    12A     -8.053705
      13A     -8.050240    14A     -8.050095    15A     -1.761704
      16A     -1.719770    17A     -1.658451    18A     -1.656544
      19A     -1.640173    20A     -1.488516    21A     -1.183789
      22A     -1.054650    23A     -0.985253    24A     -0.921915
      25A     -0.859668    26A     -0.850296    27A     -0.846926
      28A     -0.833518    29A     -0.823330    30A     -0.787986
      31A     -0.727974    32A     -0.725460    33A     -0.700184
      34A     -0.696075    35A     -0.680978    36A     -0.674195
      37A     -0.662845    38A     -0.658573    39A     -0.655214
      40A     -0.635170    41A     -0.609083    42A     -0.578559
      43A     -0.515423    44A     -0.483705    45A     -0.473620

  @DF-RHF Final Energy: -1146.30686557754666

   => Energetics <=

    Nuclear Repulsion Energy =            732.3214408997898772
    One-Electron Energy =               -3047.2794790656457735
    Two-Electron Energy =                1168.6511725883092367
    DFT Exchange-Correlation Energy =       0.0000000000000000
    Empirical Dispersion Energy =           0.0000000000000000
    PCM Polarization Energy =               0.0000000000000000
    EFP Energy =                            0.0000000000000000
    Total Energy =                      -1146.3068655775468869

  Mulliken Charges: (a.u.)
   Center  Symbol    Alpha    Beta     Spin     Total
       1     H     0.41395  0.41395  0.00000  0.17211
       2     C     2.56379  2.56379  0.00000  0.87241
       3     O     4.30181  4.30181  0.00000 -0.60362
       4     F     4.67496  4.67496  0.00000 -0.34992
       5     F     4.68284  4.68284  0.00000 -0.36568
       6     C     3.04817  3.04817  0.00000 -0.09634
       7     C     2.43130  2.43130  0.00000  1.13741
       8    CL     8.50412  8.50412  0.00000 -0.00824
       9     H     0.36142  0.36142  0.00000  0.27716
      10     F     4.67403  4.67403  0.00000 -0.34807
      11     F     4.67560  4.67560  0.00000 -0.35119
      12     F     4.66802  4.66802  0.00000 -0.33604

   Total alpha = 45.00000, Total beta = 45.00000, Total charge = -0.00000
