  ==> Input File <==

--------------------------------------------------------------------------
set {
	reference rhf
	basis 6-31G*
}

set_num_threads( 4 )
memory 2 gb

molecule MOL {
0 1

H	 -2.698709	 -0.000305	 0.034435
C	 -1.693833	 0.000034	 0.434417
O	 -0.828952	 -0.000968	 -0.659236
H	 -1.574200	 0.882896	 1.055746
H	 -1.574147	 -0.881698	 1.057355
C	 -0.242249	 1.216784	 -1.055926
C	 -1.274504	 2.234041	 -1.538166
C	 0.687121	 1.793585	 0.010156
H	 0.365272	 0.931850	 -1.906669
H	 -1.947249	 1.776207	 -2.255349
H	 -0.775800	 3.067423	 -2.022937
H	 -1.865830	 2.637821	 -0.722410
H	 1.371597	 1.030747	 0.365162
H	 1.271416	 2.607409	 -0.407882
H	 0.141436	 2.187868	 0.861395

	symmetry c1
}
set optking {
	frozen_dihedral = ("
		6 3 2 1
	")
}

ee = optimize('scf')
oeprop('DIPOLE', 'QUADRUPOLE', 'MULLIKEN_CHARGES')
f=open( 'psi4out.xyz', 'w' )
f.write( "15  " )
f.write( str(ee) + "\n" )
f.write( MOL.save_string_xyz() )
f.close()
--------------------------------------------------------------------------

    Molecular point group: c1
  Charge       = 0
  Multiplicity = 1
  Basis Set: 6-31G*
  Basis Set:
  @DF-RHF Final Energy:  -232.13445027063841
    Total Energy =                       -232.1344502706384674
    Molecular point group: c1
  Basis Set: 6-31G*
  Basis Set:
  Basis Set: 6-31G*
  Basis Set:
  @DF-RHF Final Energy:  -232.13567554641639
    Total Energy =                       -232.1356755464162802
  Basis Set: 6-31G*
  Basis Set:
  Basis Set: 6-31G*
  Basis Set:
  @DF-RHF Final Energy:  -232.13601137860945
    Total Energy =                       -232.1360113786093393
  Basis Set: 6-31G*
  Basis Set:
  Basis Set: 6-31G*
  Basis Set:
  @DF-RHF Final Energy:  -232.13609660133804
    Total Energy =                       -232.1360966013377833
  Basis Set: 6-31G*
  Basis Set:
  Basis Set: 6-31G*
  Basis Set:
  @DF-RHF Final Energy:  -232.13612887250599
    Total Energy =                       -232.1361288725059921
  Basis Set: 6-31G*
  Basis Set:
  Basis Set: 6-31G*
  Basis Set:
  @DF-RHF Final Energy:  -232.13613968972817
    Total Energy =                       -232.1361396897281679
  Basis Set: 6-31G*
  Basis Set:
  Charge       = 0
  Multiplicity = 1
  Basis Set: 6-31G*
  Basis Set:

    Orbital Energies (a.u.)
    -----------------------

    Doubly Occupied:

       1A    -20.546562     2A    -11.274762     3A    -11.261424
       4A    -11.211029     5A    -11.209957     6A     -1.368681
       7A     -1.050013     8A     -0.939962     9A     -0.931203
      10A     -0.781476    11A     -0.675693    12A     -0.638686
      13A     -0.632121    14A     -0.569943    15A     -0.563441
      16A     -0.552828    17A     -0.537474    18A     -0.500583
      19A     -0.497424    20A     -0.442318    21A     -0.403583

  @DF-RHF Final Energy:  -232.13613999900559

   => Energetics <=

    Nuclear Repulsion Energy =            198.6986608659182707
    One-Electron Energy =                -708.4912781266556294
    Two-Electron Energy =                 277.6564772617317658
    DFT Exchange-Correlation Energy =       0.0000000000000000
    Empirical Dispersion Energy =           0.0000000000000000
    PCM Polarization Energy =               0.0000000000000000
    EFP Energy =                            0.0000000000000000
    Total Energy =                       -232.1361399990055929
    Molecular point group: c1
  Basis Set: 6-31G*
  Basis Set:

  -Total Gradient:
     Atom            X                  Y                   Z
    ------   -----------------  -----------------  -----------------
       1        0.000053921322    -0.001985553313     0.000111023832
       2        0.000522495982     0.002514697828     0.000400278253
       3       -0.001730337344    -0.000337198373    -0.001570434244
       4       -0.000041212383    -0.000022189427     0.000039326110
       5        0.000029541955     0.000002794934    -0.000037958470
       6        0.001156069668    -0.000205139405     0.001094018158
       7        0.000009677755     0.000040562484    -0.000026762384
       8       -0.000002134523    -0.000025318487    -0.000000625287
       9        0.000001266611     0.000013128698     0.000007102599
      10        0.000005226135     0.000001599346     0.000000426418
      11       -0.000012087554     0.000018126641    -0.000007473902
      12        0.000007689140    -0.000003313122    -0.000008067406
      13        0.000007076200     0.000000965033     0.000014253397
      14       -0.000007266802    -0.000012798285    -0.000011769878
      15        0.000000073837    -0.000000364547    -0.000003337195

  **** Optimization is complete! (in 7 steps) ****
    Final optimized geometry and variables:
    Molecular point group: c1

    Geometry (in Angstrom), charge = 0, multiplicity = 1:

    H           -2.069030450032    -1.072587091624     0.564473367302
    C           -1.056494915230    -1.020981695164     0.954477616103
    O           -0.122319820709    -1.043995428276    -0.084599730911
    H           -0.970060035604    -0.145459507142     1.587210373939
    H           -0.889618877788    -1.897723808671     1.568566768573
    C            0.453628805364     0.168943413558    -0.509226033583
    C           -0.591938697369     1.174035015055    -0.987363573178
    C            1.399935448075     0.753932946756     0.537201265847
    H            1.049616012124    -0.124168070033    -1.365257124742
    H           -1.245293853543     0.715166614348    -1.721577607875
    H           -0.108838673304     2.029608941288    -1.448955215610
    H           -1.203883678731     1.544031789660    -0.170426979619
    H            2.107240928326    -0.000928797038     0.862377521939
    H            1.956709851443     1.584928810266     0.114971042819
    H            0.872007698807     1.125185796589     1.409748134397

  Mulliken Charges: (a.u.)
   Center  Symbol    Alpha    Beta     Spin     Total
       1     H     0.42468  0.42468  0.00000  0.15065
       2     C     3.07979  3.07979  0.00000 -0.15959
       3     O     4.31426  4.31426  0.00000 -0.62852
       4     H     0.42982  0.42982  0.00000  0.14036
       5     H     0.41619  0.41619  0.00000  0.16763
       6     C     2.91022  2.91022  0.00000  0.17956
       7     C     3.25269  3.25269  0.00000 -0.50537
       8     C     3.25002  3.25002  0.00000 -0.50004
       9     H     0.41552  0.41552  0.00000  0.16897
      10     H     0.41176  0.41176  0.00000  0.17648
      11     H     0.41922  0.41922  0.00000  0.16156
      12     H     0.42174  0.42174  0.00000  0.15651
      13     H     0.41140  0.41140  0.00000  0.17720
      14     H     0.42055  0.42055  0.00000  0.15890
      15     H     0.42215  0.42215  0.00000  0.15571

   Total alpha = 21.00000, Total beta = 21.00000, Total charge =  0.00000
