  ==> Input File <==

--------------------------------------------------------------------------
set {
	reference rhf
	basis cc-pvtz
}

set_num_threads( 4 )
memory 2 gb

molecule MOL {
0 1

O	 0.511543	 0.367762	 2.125520
C	 0.158467	 0.725234	 1.038198
C	 -0.855507	 1.842264	 0.900597
N	 0.622280	 0.144970	 -0.099307
H	 -1.740232	 1.509181	 0.372711
H	 -1.129678	 2.152836	 1.895015
H	 -0.441461	 2.687117	 0.364162
C	 1.664396	 -0.854993	 0.000772
C	 0.401622	 0.675883	 -1.423390
H	 2.462727	 -0.615153	 -0.690869
H	 1.261798	 -1.821849	 -0.240651
H	 2.081615	 -0.891605	 1.003877
H	 0.340109	 -0.142507	 -2.129145
H	 -0.521258	 1.226905	 -1.483075
H	 1.212687	 1.327912	 -1.739738

	symmetry c1
}
set optking {
	frozen_dihedral = ("
		2 4 8 10
	")
}

ee = optimize('scf')
oeprop('DIPOLE', 'QUADRUPOLE', 'MULLIKEN_CHARGES')
f=open( 'psi4out.xyz', 'w' )
f.write( "15  " )
f.write( str(ee) + "\n" )
f.write( MOL.save_string_xyz() )
f.close()
--------------------------------------------------------------------------

    Molecular point group: c1
  Charge       = 0
  Multiplicity = 1
  Basis Set: CC-PVTZ
  Basis Set:
  @DF-RHF Final Energy:  -286.13442150326227
    Total Energy =                       -286.1344215032625016
    Molecular point group: c1
  Basis Set: CC-PVTZ
  Basis Set:
  Basis Set: CC-PVTZ
  Basis Set:
  @DF-RHF Final Energy:  -286.13504105196711
    Total Energy =                       -286.1350410519673915
  Basis Set: CC-PVTZ
  Basis Set:
  Basis Set: CC-PVTZ
  Basis Set:
  @DF-RHF Final Energy:  -286.13474726577476
    Total Energy =                       -286.1347472657744220
  Basis Set: CC-PVTZ
  Basis Set:
  Basis Set: CC-PVTZ
  Basis Set:
  @DF-RHF Final Energy:  -286.13535353364034
    Total Energy =                       -286.1353535336406821
  Basis Set: CC-PVTZ
  Basis Set:
  @DF-RHF Final Energy:  -286.13540911960513
    Total Energy =                       -286.1354091196050717
  @DF-RHF Final Energy:  -286.13543947925848
    Total Energy =                       -286.1354394792584230
  @DF-RHF Final Energy:  -286.13546292661033
    Total Energy =                       -286.1354629266103302
  @DF-RHF Final Energy:  -286.13550997637657
    Total Energy =                       -286.1355099763766816
  @DF-RHF Final Energy:  -286.13555484205983
    Total Energy =                       -286.1355548420601167
  @DF-RHF Final Energy:  -286.13559530449720
    Total Energy =                       -286.1355953044974285
  Basis Set: CC-PVTZ
  Basis Set:
  @DF-RHF Final Energy:  -286.13560999432264
    Total Energy =                       -286.1356099943226354
  Basis Set: CC-PVTZ
  Basis Set:
  Basis Set: CC-PVTZ
  Basis Set:
  @DF-RHF Final Energy:  -286.13561460311007
    Total Energy =                       -286.1356146031105254
  Basis Set: CC-PVTZ
  Basis Set:
  Basis Set: CC-PVTZ
  Basis Set:
  @DF-RHF Final Energy:  -286.13561560491883
    Total Energy =                       -286.1356156049188257
  Basis Set: CC-PVTZ
  Basis Set:
  Charge       = 0
  Multiplicity = 1
  Basis Set: CC-PVTZ
  Basis Set:

    Orbital Energies (a.u.)
    -----------------------

    Doubly Occupied:

       1A    -20.502502     2A    -15.578840     3A    -11.335356
       4A    -11.264105     5A    -11.246399     6A    -11.226439
       7A     -1.386600     8A     -1.246647     9A     -1.015097
      10A     -0.973455    11A     -0.921553    12A     -0.739445
      13A     -0.683401    14A     -0.662214    15A     -0.653882
      16A     -0.590794    17A     -0.577959    18A     -0.566769
      19A     -0.561385    20A     -0.548766    21A     -0.530449
      22A     -0.507710    23A     -0.412988    24A     -0.369846

  @DF-RHF Final Energy:  -286.13561651044813

   => Energetics <=

    Nuclear Repulsion Energy =            252.8106909011978303
    One-Electron Energy =                -889.6874124657805396
    Two-Electron Energy =                 350.7411050541342092
    DFT Exchange-Correlation Energy =       0.0000000000000000
    Empirical Dispersion Energy =           0.0000000000000000
    PCM Polarization Energy =               0.0000000000000000
    EFP Energy =                            0.0000000000000000
    Total Energy =                       -286.1356165104484717
    Molecular point group: c1
  Basis Set: CC-PVTZ
  Basis Set:

  -Total Gradient:
     Atom            X                  Y                   Z
    ------   -----------------  -----------------  -----------------
       1        0.000010589077    -0.000013362342    -0.000013925017
       2        0.000090979682     0.000078626624     0.000007304248
       3       -0.000009091410    -0.000004365259    -0.000014396791
       4       -0.000077364298    -0.000060206892     0.000031647760
       5       -0.000002957294     0.000006541061     0.000001099902
       6        0.000006755227    -0.000003408838     0.000002094245
       7       -0.000000886875    -0.000000262903     0.000001772602
       8       -0.000049197452    -0.000026287554    -0.000109336086
       9       -0.000028930564    -0.000010401964    -0.000001842214
      10        0.000050779490     0.000049025691     0.000101387590
      11        0.000003378069    -0.000010699460     0.000000035547
      12       -0.000006158255     0.000007770877    -0.000015469095
      13        0.000003043445    -0.000005891820    -0.000021032438
      14        0.000007158082    -0.000010057939     0.000001495775
      15        0.000001903078     0.000002980717     0.000029163971

  **** Optimization is complete! (in 14 steps) ****
    Final optimized geometry and variables:
    Molecular point group: c1

    Geometry (in Angstrom), charge = 0, multiplicity = 1:

    O            0.024224363768    -0.170324251084     1.712020098197
    C           -0.270437041030     0.238840454669     0.625052330223
    C           -1.336231032519     1.306837637419     0.485163335831
    N            0.329807137385    -0.213097542654    -0.504795789124
    H           -2.165133177956     0.963275175195    -0.120993567997
    H           -1.691284815209     1.537016551256     1.475796055454
    H           -0.936507089663     2.205446169404     0.032089825482
    C            1.301907365790    -1.281249162945    -0.417083446459
    C           -0.062170787123     0.147195030509    -1.845411426078
    H            2.204044173560    -1.005439126778    -0.951783211559
    H            0.911848600437    -2.194496639476    -0.857674396826
    H            1.542573659972    -1.465348202249     0.613777159994
    H           -0.645996782467    -0.640475936118    -2.315014128151
    H           -0.640139376976     1.054394821149    -1.863770015082
    H            0.822671136509     0.308512582856    -2.449628446631

  Mulliken Charges: (a.u.)
   Center  Symbol    Alpha    Beta     Spin     Total
       1     O     4.22216  4.22216  0.00000 -0.44433
       2     C     2.84662  2.84662  0.00000  0.30676
       3     C     3.16041  3.16041  0.00000 -0.32082
       4     N     3.55906  3.55906  0.00000 -0.11812
       5     H     0.44949  0.44949  0.00000  0.10102
       6     H     0.42849  0.42849  0.00000  0.14302
       7     H     0.44939  0.44939  0.00000  0.10122
       8     C     3.10051  3.10051  0.00000 -0.20101
       9     C     3.09465  3.09465  0.00000 -0.18929
      10     H     0.45644  0.45644  0.00000  0.08711
      11     H     0.45792  0.45792  0.00000  0.08416
      12     H     0.42511  0.42511  0.00000  0.14979
      13     H     0.45402  0.45402  0.00000  0.09196
      14     H     0.44493  0.44493  0.00000  0.11013
      15     H     0.45080  0.45080  0.00000  0.09839

   Total alpha = 24.00000, Total beta = 24.00000, Total charge = -0.00000
