                              Psi4 1.0.54 Driver

  ==> Input File <==

--------------------------------------------------------------------------
set {
	reference rhf
	basis cc-pvtz
}

set_num_threads( 4 )
memory 2 gb

molecule MOL {
0 1

H	 0.550589	 2.415857	 1.136798
C	 0.961040	 1.511678	 0.666876
C	 0.062554	 0.862911	 -0.350953
O	 2.036285	 1.124237	 0.968360
C	 -1.339253	 0.577611	 0.196911
H	 0.541167	 -0.040056	 -0.707426
H	 -0.013956	 1.554945	 -1.186602
C	 -1.813142	 -0.849710	 -0.061612
H	 -2.032833	 1.276441	 -0.256032
H	 -1.357249	 0.782269	 1.263793
H	 -1.839268	 -1.063526	 -1.124230
H	 -2.810118	 -1.001930	 0.334000
H	 -1.159274	 -1.579980	 0.402282

	symmetry c1
}
set optking {
	frozen_dihedral = ("
		6 3 5 9
	")
}

ee,wfn = optimize('scf', return_wfn=True)
oeprop( wfn, 'DIPOLE', 'QUADRUPOLE', 'MULLIKEN_CHARGES')
f=open( 'psi4out.xyz', 'w' )
f.write( "13  " )
f.write( str(ee) + "\n" )
f.write( MOL.save_string_xyz() )
f.close()
--------------------------------------------------------------------------

    Molecular point group: c1
  Charge       = 0
  Multiplicity = 1
  Basis Set: CC-PVTZ
  Basis Set:
  @DF-RHF Final Energy:  -231.06603688415782
    Total Energy =                       -231.0660368841578816
    Molecular point group: c1
  Basis Set: CC-PVTZ
  Basis Set:
  Basis Set: CC-PVTZ
  Basis Set:
  @DF-RHF Final Energy:  -231.06577953739421
    Total Energy =                       -231.0657795373942349
  Basis Set: CC-PVTZ
  Basis Set:
  Basis Set: CC-PVTZ
  Basis Set:
  @DF-RHF Final Energy:  -231.06314787206060
    Total Energy =                       -231.0631478720607106
  Basis Set: CC-PVTZ
  Basis Set:
  Basis Set: CC-PVTZ
  Basis Set:
  @DF-RHF Final Energy:  -231.06636081034500
    Total Energy =                       -231.0663608103448325
  Basis Set: CC-PVTZ
  Basis Set:
  Basis Set: CC-PVTZ
  Basis Set:
  @DF-RHF Final Energy:  -231.06639530194718
    Total Energy =                       -231.0663953019472103
  Basis Set: CC-PVTZ
  Basis Set:
  Basis Set: CC-PVTZ
  Basis Set:
  @DF-RHF Final Energy:  -231.06639685379125
    Total Energy =                       -231.0663968537913604
  Basis Set: CC-PVTZ
  Basis Set:
  Charge       = 0
  Multiplicity = 1
  Basis Set: CC-PVTZ
  Basis Set:

    Orbital Energies (a.u.)
    -----------------------

    Doubly Occupied:

       1A    -20.552020     2A    -11.322032     3A    -11.237323
       4A    -11.234460     5A    -11.221098     6A     -1.407234
       7A     -1.085282     8A     -0.977131     9A     -0.840620
      10A     -0.796041    11A     -0.673902    12A     -0.647322
      13A     -0.634849    14A     -0.586651    15A     -0.558362
      16A     -0.542285    17A     -0.504947    18A     -0.495539
      19A     -0.481237    20A     -0.413344

  @DF-RHF Final Energy:  -231.06639720487027

   => Energetics <=

    Nuclear Repulsion Energy =            171.1709276428911721
    One-Electron Energy =                -652.0512944031852385
    Two-Electron Energy =                 249.8139695554237107
    DFT Exchange-Correlation Energy =       0.0000000000000000
    Empirical Dispersion Energy =           0.0000000000000000
    PCM Polarization Energy =               0.0000000000000000
    EFP Energy =                            0.0000000000000000
    Total Energy =                       -231.0663972048703556
    Molecular point group: c1
  Basis Set: CC-PVTZ
  Basis Set:

  -Total Gradient:
     Atom            X                  Y                   Z
    ------   -----------------  -----------------  -----------------
       1        0.000056386470    -0.000083428122    -0.000047419961
       2        0.000061248396     0.000049606367     0.000083587653
       3        0.000880807279    -0.000587354940     0.001584354835
       4       -0.000120893471     0.000038512837    -0.000005976570
       5        0.000077282687     0.001442761704     0.001207583176
       6       -0.000669056310     0.000265683030    -0.001562158622
       7       -0.000030712547    -0.000016342273     0.000023861361
       8        0.000013014951    -0.000021696247     0.000010739406
       9       -0.000262316026    -0.001096851192    -0.001267196943
      10       -0.000002524443    -0.000009764850    -0.000027616713
      11       -0.000011097287     0.000013820138     0.000000972956
      12        0.000002090121    -0.000002023866     0.000005981314
      13        0.000005770179     0.000007077415    -0.000006711890

  **** Optimization is complete! (in 7 steps) ****
    Final optimized geometry and variables:
    Molecular point group: c1

    Geometry (in Angstrom), charge = 0, multiplicity = 1:

    H            0.553375004773     1.755747624629     0.888448453200
    C            0.977327545571     0.876749040252     0.385510134970
    C            0.077488998213     0.226685057726    -0.628664936063
    O            2.066962153493     0.507830426472     0.656919119714
    C           -1.337559393588    -0.058039067514    -0.077021822468
    H            0.557656120715    -0.674115065143    -0.985645962319
    H            0.014595949548     0.907608982125    -1.473298175896
    C           -1.797854893206    -1.486036609725    -0.355928311797
    H           -2.049240423886     0.630552275565    -0.516015435960
    H           -1.362406643617     0.116425941493     0.994018727658
    H           -1.818803083677    -1.687304779981    -1.421349541708
    H           -2.794563044085    -1.655129058851     0.034062299597
    H           -1.131482327487    -2.206779516238     0.104262128627

  Mulliken Charges: (a.u.)
   Center  Symbol    Alpha    Beta     Spin     Total
       1     H     0.46508  0.46508  0.00000  0.06985
       2     C     2.90524  2.90524  0.00000  0.18951
       3     C     3.08426  3.08426  0.00000 -0.16853
       4     O     4.16479  4.16479  0.00000 -0.32958
       5     C     3.09342  3.09342  0.00000 -0.18684
       6     H     0.44281  0.44281  0.00000  0.11438
       7     H     0.44650  0.44650  0.00000  0.10700
       8     C     3.14574  3.14574  0.00000 -0.29148
       9     H     0.44848  0.44848  0.00000  0.10305
      10     H     0.45331  0.45331  0.00000  0.09337
      11     H     0.45258  0.45258  0.00000  0.09483
      12     H     0.44751  0.44751  0.00000  0.10498
      13     H     0.45027  0.45027  0.00000  0.09946

   Total alpha = 20.00000, Total beta = 20.00000, Total charge =  0.00000

*** Psi4 exiting successfully. Buy a developer a beer!
