  ==> Input File <==

--------------------------------------------------------------------------
set {
	reference rhf
	basis 6-31G*
}

set_num_threads( 4 )
memory 2 gb

molecule MOL {
0 1

O	 -2.439739	 -0.935931	 -0.423848
C	 -1.921153	 0.064240	 -0.045697
C	 -2.624470	 1.379923	 0.150949
O	 -0.632575	 0.154573	 0.251549
H	 -2.168117	 2.136577	 -0.476876
H	 -3.669540	 1.273223	 -0.098610
H	 -2.519365	 1.700893	 1.180846
C	 0.160891	 -1.019931	 0.106212
C	 1.589627	 -0.672828	 0.480843
H	 0.089836	 -1.367806	 -0.916050
H	 -0.238459	 -1.792301	 0.749618
C	 2.246377	 0.346236	 -0.452210
H	 2.163194	 -1.597435	 0.473358
H	 1.604769	 -0.303424	 1.502885
C	 1.797374	 1.778366	 -0.165158
H	 3.327816	 0.279266	 -0.351698
H	 2.014955	 0.091910	 -1.481347
H	 2.275779	 2.481206	 -0.839827
H	 2.046176	 2.073224	 0.850438
H	 0.722926	 1.883787	 -0.285681

	symmetry c1
}
set optking {
	frozen_dihedral = ("
		16 12 9 8
	")
}

ee = optimize('scf')
oeprop('DIPOLE', 'QUADRUPOLE', 'MULLIKEN_CHARGES')
f=open( 'psi4out.xyz', 'w' )
f.write( "20  " )
f.write( str(ee) + "\n" )
f.write( MOL.save_string_xyz() )
f.close()
--------------------------------------------------------------------------

    Molecular point group: c1
  Charge       = 0
  Multiplicity = 1
  Basis Set: 6-31G*
  Basis Set:
  @DF-RHF Final Energy:  -383.94067651816920
    Total Energy =                       -383.9406765181694254
    Molecular point group: c1
  Basis Set: 6-31G*
  Basis Set:
  Basis Set: 6-31G*
  Basis Set:
  @DF-RHF Final Energy:  -383.94237530486799
    Total Energy =                       -383.9423753048681647
  Basis Set: 6-31G*
  Basis Set:
  Basis Set: 6-31G*
  Basis Set:
  @DF-RHF Final Energy:  -383.94023282480043
    Total Energy =                       -383.9402328248005460
  Basis Set: 6-31G*
  Basis Set:
  Basis Set: 6-31G*
  Basis Set:
  @DF-RHF Final Energy:  -383.94256498538851
    Total Energy =                       -383.9425649853885716
  Basis Set: 6-31G*
  Basis Set:
  Basis Set: 6-31G*
  Basis Set:
  @DF-RHF Final Energy:  -383.94260309141930
    Total Energy =                       -383.9426030914191870
  Basis Set: 6-31G*
  Basis Set:
  Basis Set: 6-31G*
  Basis Set:
  @DF-RHF Final Energy:  -383.94260685972648
    Total Energy =                       -383.9426068597267658
  Basis Set: 6-31G*
  Basis Set:
  Charge       = 0
  Multiplicity = 1
  Basis Set: 6-31G*
  Basis Set:

    Orbital Energies (a.u.)
    -----------------------

    Doubly Occupied:

       1A    -20.602309     2A    -20.544753     3A    -11.375078
       4A    -11.282816     5A    -11.233934     6A    -11.226553
       7A    -11.222469     8A    -11.208033     9A     -1.468557
      10A     -1.362764    11A     -1.084123    12A     -1.027113
      13A     -0.980265    14A     -0.887249    15A     -0.801897
      16A     -0.777965    17A     -0.691348    18A     -0.686177
      19A     -0.666943    20A     -0.619564    21A     -0.601326
      22A     -0.595637    23A     -0.574130    24A     -0.555564
      25A     -0.541614    26A     -0.533798    27A     -0.510682
      28A     -0.481435    29A     -0.474754    30A     -0.469045
      31A     -0.447537    32A     -0.438393

  @DF-RHF Final Energy:  -383.94260713169319

   => Energetics <=

    Nuclear Repulsion Energy =            392.5896382408905083
    One-Electron Energy =               -1301.1168459960297241
    Two-Electron Energy =                 524.5846006234457946
    DFT Exchange-Correlation Energy =       0.0000000000000000
    Empirical Dispersion Energy =           0.0000000000000000
    PCM Polarization Energy =               0.0000000000000000
    EFP Energy =                            0.0000000000000000
    Total Energy =                       -383.9426071316934213
    Molecular point group: c1
  Basis Set: 6-31G*
  Basis Set:

  -Total Gradient:
     Atom            X                  Y                   Z
    ------   -----------------  -----------------  -----------------
       1       -0.000006314561    -0.000002954510     0.000038263364
       2        0.000008860444    -0.000007942690    -0.000031563889
       3        0.000010144399     0.000005060750    -0.000030453747
       4       -0.000005180027    -0.000001994378     0.000049727493
       5        0.000001794992     0.000004121411     0.000014246802
       6        0.000000954670     0.000000171223     0.000002613853
       7       -0.000005179811    -0.000008372471     0.000010061577
       8        0.000192526654    -0.000350867151    -0.000412248946
       9       -0.000249779432     0.000511919532     0.000315806064
      10        0.000012861100    -0.000023645259     0.000009449901
      11       -0.000003062120     0.000004456638     0.000017724464
      12        0.000004715116     0.000374096247     0.000423417206
      13        0.000004166688     0.000001320458     0.000007444388
      14        0.000012059504     0.000016400257     0.000012560038
      15        0.000036131749    -0.000030754045     0.000035337491
      16        0.000049181076    -0.000477260881    -0.000482614810
      17       -0.000024855568    -0.000002994618     0.000016787350
      18       -0.000000170315    -0.000005951878     0.000016978768
      19       -0.000010061059     0.000000426343     0.000010903414
      20       -0.000028793499    -0.000005234978    -0.000024440779

  **** Optimization is complete! (in 7 steps) ****
    Final optimized geometry and variables:
    Molecular point group: c1

    Geometry (in Angstrom), charge = 0, multiplicity = 1:

    O           -2.211776987123    -1.111547859104    -0.427693904717
    C           -1.727459979991    -0.106737642706    -0.017748802763
    C           -2.479677059118     1.171109655680     0.239007794240
    O           -0.440095770406     0.021459097969     0.271901078996
    H           -2.071473188152     1.966015671640    -0.374692899626
    H           -3.525081032183     1.028172868274     0.009766422609
    H           -2.362540185053     1.463737942636     1.275957792964
    C            0.392433566167    -1.118913297066     0.080057311870
    C            1.811915668367    -0.782433260662     0.503486434328
    H            0.349465905345    -1.414610278182    -0.960204264504
    H           -0.000584484620    -1.933977891174     0.672567023427
    C            2.573114882247     0.193674619012    -0.405003004034
    H            2.351344645394    -1.726767985354     0.522580458721
    H            1.799802960361    -0.413754772947     1.525757476156
    C            2.210363551343     1.669368706666    -0.231111801482
    H            3.635638636643     0.071928039551    -0.211053425187
    H            2.425929037656    -0.098330400756    -1.442946874363
    H            2.843981611721     2.291623197047    -0.855981954290
    H            2.351798678908     1.984083140335     0.799051474342
    H            1.179655550567     1.865154973914    -0.496794339202

  Mulliken Charges: (a.u.)
   Center  Symbol    Alpha    Beta     Spin     Total
       1     O     4.28311  4.28311  0.00000 -0.56622
       2     C     2.61943  2.61943  0.00000  0.76115
       3     C     3.28185  3.28185  0.00000 -0.56370
       4     O     4.30789  4.30789  0.00000 -0.61578
       5     H     0.40077  0.40077  0.00000  0.19846
       6     H     0.39674  0.39674  0.00000  0.20653
       7     H     0.40035  0.40035  0.00000  0.19930
       8     C     3.00129  3.00129  0.00000 -0.00257
       9     C     3.16748  3.16748  0.00000 -0.33497
      10     H     0.41121  0.41121  0.00000  0.17758
      11     H     0.40854  0.40854  0.00000  0.18292
      12     C     3.15535  3.15535  0.00000 -0.31069
      13     H     0.41632  0.41632  0.00000  0.16735
      14     H     0.41378  0.41378  0.00000  0.17245
      15     C     3.23784  3.23784  0.00000 -0.47569
      16     H     0.41890  0.41890  0.00000  0.16219
      17     H     0.42209  0.42209  0.00000  0.15581
      18     H     0.42174  0.42174  0.00000  0.15651
      19     H     0.42258  0.42258  0.00000  0.15484
      20     H     0.41273  0.41273  0.00000  0.17453

   Total alpha = 32.00000, Total beta = 32.00000, Total charge = -0.00000
