                              Psi4 1.0.54 Driver

  ==> Input File <==

--------------------------------------------------------------------------
set {
	reference rhf
	basis cc-pvtz
}

set_num_threads( 4 )
memory 2 gb

molecule MOL {
0 1

O	 -2.843381	 1.250591	 0.341841
C	 -2.664672	 0.129869	 0.003507
C	 -3.760075	 -0.781259	 -0.480458
O	 -1.481217	 -0.452708	 0.001092
H	 -4.234499	 -0.323619	 -1.338111
H	 -3.385469	 -1.757515	 -0.743583
H	 -4.504335	 -0.868637	 0.299616
C	 -0.332055	 0.384012	 -0.000250
C	 0.892252	 -0.506059	 -0.000295
H	 -0.360822	 1.020205	 -0.874146
H	 -0.359817	 1.021310	 0.872861
C	 2.188199	 0.299473	 -0.001416
H	 0.857046	 -1.152781	 -0.871031
H	 0.857910	 -1.151798	 0.871202
C	 3.437151	 -0.577593	 -0.000991
H	 2.209565	 0.950707	 -0.871712
H	 2.210062	 0.952234	 0.867721
C	 4.732399	 0.226982	 -0.000914
H	 3.417321	 -1.229122	 -0.869998
H	 3.416993	 -1.228707	 0.868337
H	 4.797903	 0.863451	 -0.876963
H	 5.598517	 -0.424436	 -0.000420
H	 4.797415	 0.864118	 0.874691

	symmetry c1
}
set optking {
	frozen_dihedral = ("
		1 2 4 8
	")
}

ee,wfn = optimize('scf', return_wfn=True)
oeprop( wfn, 'DIPOLE', 'QUADRUPOLE', 'MULLIKEN_CHARGES')
f=open( 'psi4out.xyz', 'w' )
f.write( "23  " )
f.write( str(ee) + "\n" )
f.write( MOL.save_string_xyz() )
f.close()
--------------------------------------------------------------------------

    Molecular point group: c1
  Charge       = 0
  Multiplicity = 1
  Basis Set: CC-PVTZ
  Basis Set:
  @DF-RHF Final Energy:  -423.13216469675257
    Total Energy =                       -423.1321646967519428
    Molecular point group: c1
  Basis Set: CC-PVTZ
  Basis Set:
  Basis Set: CC-PVTZ
  Basis Set:
  @DF-RHF Final Energy:  -423.12623934788905
    Total Energy =                       -423.1262393478892818
  Basis Set: CC-PVTZ
  Basis Set:
  Basis Set: CC-PVTZ
  Basis Set:
  @DF-RHF Final Energy:  -423.13198330405135
    Total Energy =                       -423.1319833040507774
  Basis Set: CC-PVTZ
  Basis Set:
  Basis Set: CC-PVTZ
  Basis Set:
  @DF-RHF Final Energy:  -423.13247263212702
    Total Energy =                       -423.1324726321266780
  Basis Set: CC-PVTZ
  Basis Set:
  @DF-RHF Final Energy:  -423.13252832759008
    Total Energy =                       -423.1325283275899665
  @DF-RHF Final Energy:  -423.13255307264473
    Total Energy =                       -423.1325530726444413
  @DF-RHF Final Energy:  -423.13259799750597
    Total Energy =                       -423.1325979975061955
  @DF-RHF Final Energy:  -423.13066140279744
    Total Energy =                       -423.1306614027967044
  @DF-RHF Final Energy:  -423.13256412900813
    Total Energy =                       -423.1325641290083013
  @DF-RHF Final Energy:  -423.13254834819332
    Total Energy =                       -423.1325483481932679
  @DF-RHF Final Energy:  -423.13263162763701
    Total Energy =                       -423.1326316276370108
  @DF-RHF Final Energy:  -423.13267595660795
    Total Energy =                       -423.1326759566077271
  @DF-RHF Final Energy:  -423.13236439142690
    Total Energy =                       -423.1323643914269041
  @DF-RHF Final Energy:  -423.13269449913992
    Total Energy =                       -423.1326944991396886
  @DF-RHF Final Energy:  -423.13273068533772
    Total Energy =                       -423.1327306853373784
  @DF-RHF Final Energy:  -423.13278043401874
    Total Energy =                       -423.1327804340186276
  @DF-RHF Final Energy:  -423.13285521248037
    Total Energy =                       -423.1328552124803082
  @DF-RHF Final Energy:  -423.13295302563472
    Total Energy =                       -423.1329530256349472
  @DF-RHF Final Energy:  -423.13310285229818
    Total Energy =                       -423.1331028522979523
  @DF-RHF Final Energy:  -423.13319894512944
    Total Energy =                       -423.1331989451291520
  @DF-RHF Final Energy:  -423.13336014643630
    Total Energy =                       -423.1333601464363028
  @DF-RHF Final Energy:  -423.13343353005752
    Total Energy =                       -423.1334335300572320
  @DF-RHF Final Energy:  -423.13327027146914
    Total Energy =                       -423.1332702714686320
  @DF-RHF Final Energy:  -423.13346039624440
    Total Energy =                       -423.1334603962438905
  @DF-RHF Final Energy:  -423.13347208222302
    Total Energy =                       -423.1334720822229656
  @DF-RHF Final Energy:  -423.13347054473746
    Total Energy =                       -423.1334705447377473
  @DF-RHF Final Energy:  -423.13253099038786
    Total Energy =                       -423.1325309903879770
  @DF-RHF Final Energy:  -423.13347694005677
    Total Energy =                       -423.1334769400563118
  @DF-RHF Final Energy:  -423.13348652538059
    Total Energy =                       -423.1334865253802491
  @DF-RHF Final Energy:  -423.13350300830911
    Total Energy =                       -423.1335030083089350
  @DF-RHF Final Energy:  -423.13352364293280
    Total Energy =                       -423.1335236429328006
  @DF-RHF Final Energy:  -423.13353127925632
    Total Energy =                       -423.1335312792560899
  @DF-RHF Final Energy:  -423.13353397521871
    Total Energy =                       -423.1335339752182563
  Basis Set: CC-PVTZ
  Basis Set:
  @DF-RHF Final Energy:  -423.13353499695086
    Total Energy =                       -423.1335349969506296
  Basis Set: CC-PVTZ
  Basis Set:
  Basis Set: CC-PVTZ
  Basis Set:
  @DF-RHF Final Energy:  -423.13349601458157
    Total Energy =                       -423.1334960145817377
  Basis Set: CC-PVTZ
  Basis Set:
  Basis Set: CC-PVTZ
  Basis Set:
  @DF-RHF Final Energy:  -423.13353551492986
    Total Energy =                       -423.1335355149303723
  Basis Set: CC-PVTZ
  Basis Set:
  Charge       = 0
  Multiplicity = 1
  Basis Set: CC-PVTZ
  Basis Set:

    Orbital Energies (a.u.)
    -----------------------

    Doubly Occupied:

       1A    -20.591881     2A    -20.533080     3A    -11.366393
       4A    -11.280246     5A    -11.231210     6A    -11.222367
       7A    -11.221478     8A    -11.219595     9A    -11.211019
      10A     -1.469138    11A     -1.364894    12A     -1.095331
      13A     -1.043491    14A     -1.004878    15A     -0.931206
      16A     -0.841875    17A     -0.803092    18A     -0.775574
      19A     -0.695228    20A     -0.688694    21A     -0.669749
      22A     -0.648496    23A     -0.607531    24A     -0.589346
      25A     -0.584595    26A     -0.566259    27A     -0.560367
      28A     -0.540495    29A     -0.523254    30A     -0.505593
      31A     -0.493332    32A     -0.478446    33A     -0.471562
      34A     -0.468089    35A     -0.454257    36A     -0.439053

  @DF-RHF Final Energy:  -423.13353562841621

   => Energetics <=

    Nuclear Repulsion Energy =            450.4437902091490287
    One-Electron Energy =               -1468.7724623742030872
    Two-Electron Energy =                 595.1951365366380742
    DFT Exchange-Correlation Energy =       0.0000000000000000
    Empirical Dispersion Energy =           0.0000000000000000
    PCM Polarization Energy =               0.0000000000000000
    EFP Energy =                            0.0000000000000000
    Total Energy =                       -423.1335356284159843
    Molecular point group: c1
  Basis Set: CC-PVTZ
  Basis Set:

  -Total Gradient:
     Atom            X                  Y                   Z
    ------   -----------------  -----------------  -----------------
       1       -0.000772526234    -0.001129781233     0.006020189528
       2        0.001194467687     0.001386595142    -0.011396490731
       3       -0.000035637313    -0.000078010058    -0.000010458552
       4       -0.000287550593     0.000414231755     0.010177178165
       5       -0.000015793858     0.000012299416     0.000043458423
       6       -0.000006383244     0.000045989588    -0.000040349630
       7        0.000021226597    -0.000014386187    -0.000000138963
       8       -0.000071462860    -0.000627259181    -0.004767309170
       9       -0.000011780884    -0.000017087299    -0.000009614928
      10       -0.000000658063     0.000012459664    -0.000026643980
      11       -0.000001838739    -0.000009495516    -0.000003346182
      12        0.000003546367     0.000012978324     0.000001814659
      13       -0.000004325132    -0.000001167949    -0.000001720551
      14        0.000006284758    -0.000006221876     0.000008914079
      15       -0.000005182339    -0.000013270051     0.000005480019
      16       -0.000003845736     0.000002395065    -0.000005561623
      17        0.000002502629     0.000006186154     0.000005466749
      18       -0.000007211425     0.000008109903    -0.000002654970
      19       -0.000001251831    -0.000003350543    -0.000004689551
      20       -0.000002264031    -0.000006057022     0.000006785662
      21        0.000003096102     0.000004662452    -0.000006764945
      22       -0.000005173243    -0.000003473060     0.000000218618
      23        0.000001761386     0.000003652515     0.000006237876

  **** Optimization is complete! (in 37 steps) ****
    Final optimized geometry and variables:
    Molecular point group: c1

    Geometry (in Angstrom), charge = 0, multiplicity = 1:

    O           -2.882139165744     1.201896937315     0.329335126339
    C           -2.669017757532     0.052883834682     0.145006070600
    C           -3.725515998694    -0.981701723609    -0.120203829830
    O           -1.461193611526    -0.484875408935     0.200158779202
    H           -3.599857625764    -1.370977577433    -1.123045384881
    H           -3.611772824025    -1.807685778302     0.568932378384
    H           -4.702543648094    -0.538016873829    -0.018678797026
    C           -0.343056059269     0.381432704365     0.061691156177
    C            0.906112890101    -0.472004865730     0.015703112928
    H           -0.460225652870     0.960841229786    -0.844997260203
    H           -0.319278521419     1.071150150440     0.893815120227
    C            2.171519678408     0.368253373101    -0.129579106773
    H            0.826531425520    -1.169620823651    -0.811807487533
    H            0.957572756547    -1.066085987540     0.922412980693
    C            3.444430634595    -0.472137306610    -0.178208983690
    H            2.106142364926     0.969566368615    -1.033197903713
    H            2.237928577623     1.069538385550     0.698511631021
    C            4.709197789323     0.367149062240    -0.322967345798
    H            3.379702570790    -1.172690642258    -1.006032764876
    H            3.511451563069    -1.072765419169     0.724526434358
    H            4.687348440259     0.954288173220    -1.235005738085
    H            5.593333365860    -0.258874257106    -0.354249368051
    H            4.820137397190     1.054730971092     0.508824220205

  Mulliken Charges: (a.u.)
   Center  Symbol    Alpha    Beta     Spin     Total
       1     O     4.19473  4.19473  0.00000 -0.38947
       2     C     2.81171  2.81171  0.00000  0.37658
       3     C     3.13789  3.13789  0.00000 -0.27577
       4     O     4.15172  4.15172  0.00000 -0.30345
       5     H     0.44785  0.44785  0.00000  0.10430
       6     H     0.44458  0.44458  0.00000  0.11085
       7     H     0.43833  0.43833  0.00000  0.12334
       8     C     2.97967  2.97967  0.00000  0.04065
       9     C     3.08093  3.08093  0.00000 -0.16186
      10     H     0.45807  0.45807  0.00000  0.08385
      11     H     0.45078  0.45078  0.00000  0.09844
      12     C     3.09822  3.09822  0.00000 -0.19644
      13     H     0.45159  0.45159  0.00000  0.09682
      14     H     0.44978  0.44978  0.00000  0.10043
      15     C     3.08500  3.08500  0.00000 -0.17000
      16     H     0.45329  0.45329  0.00000  0.09343
      17     H     0.45258  0.45258  0.00000  0.09483
      18     C     3.14953  3.14953  0.00000 -0.29906
      19     H     0.45363  0.45363  0.00000  0.09274
      20     H     0.45330  0.45330  0.00000  0.09340
      21     H     0.45470  0.45470  0.00000  0.09060
      22     H     0.44768  0.44768  0.00000  0.10465
      23     H     0.45443  0.45443  0.00000  0.09114

   Total alpha = 36.00000, Total beta = 36.00000, Total charge =  0.00000

*** Psi4 exiting successfully. Buy a developer a beer!
