                              Psi4 1.0.54 Driver

  ==> Input File <==

--------------------------------------------------------------------------
set {
	reference rhf
	basis cc-pvtz
}

set_num_threads( 4 )
memory 2 gb

molecule MOL {
0 1

H	 -4.230259	 0.539112	 0.036360
O	 -3.515113	 -0.019339	 -0.206321
C	 -2.302264	 0.528872	 0.237390
C	 -1.175688	 -0.398187	 -0.171891
H	 -2.148018	 1.514076	 -0.197759
H	 -2.310727	 0.646384	 1.319032
C	 0.196029	 0.106276	 0.266738
H	 -1.201873	 -0.515469	 -1.250677
H	 -1.365975	 -1.378728	 0.252664
C	 1.330220	 -0.826136	 -0.155230
H	 0.359542	 1.097229	 -0.145561
H	 0.212134	 0.218135	 1.348778
C	 2.719700	 -0.407669	 0.328325
H	 1.339388	 -0.911200	 -1.239363
H	 1.119001	 -1.821953	 0.224128
C	 2.918899	 -0.481545	 1.840350
H	 2.902309	 0.612054	 0.003479
H	 3.470255	 -1.020373	 -0.164318
H	 2.177384	 0.116631	 2.360353
H	 2.843409	 -1.496766	 2.210912
H	 3.897531	 -0.106692	 2.117723

	symmetry c1
}
set optking {
	frozen_dihedral = ("
		16 13 10 14
	")
}

ee,wfn = optimize('scf', return_wfn=True)
oeprop( wfn, 'DIPOLE', 'QUADRUPOLE', 'MULLIKEN_CHARGES')
f=open( 'psi4out.xyz', 'w' )
f.write( "21  " )
f.write( str(ee) + "\n" )
f.write( MOL.save_string_xyz() )
f.close()
--------------------------------------------------------------------------

    Molecular point group: c1
  Charge       = 0
  Multiplicity = 1
  Basis Set: CC-PVTZ
  Basis Set:
  @DF-RHF Final Energy:  -310.33248460579046
    Total Energy =                       -310.3324846057906825
    Molecular point group: c1
  Basis Set: CC-PVTZ
  Basis Set:
  Basis Set: CC-PVTZ
  Basis Set:
  @DF-RHF Final Energy:  -310.33293868621973
    Total Energy =                       -310.3329386862199044
  Basis Set: CC-PVTZ
  Basis Set:
  Basis Set: CC-PVTZ
  Basis Set:
  @DF-RHF Final Energy:  -310.33304063627145
    Total Energy =                       -310.3330406362716190
  Basis Set: CC-PVTZ
  Basis Set:
  Basis Set: CC-PVTZ
  Basis Set:
  @DF-RHF Final Energy:  -310.33304402609230
    Total Energy =                       -310.3330440260917840
  Basis Set: CC-PVTZ
  Basis Set:
  Charge       = 0
  Multiplicity = 1
  Basis Set: CC-PVTZ
  Basis Set:

    Orbital Energies (a.u.)
    -----------------------

    Doubly Occupied:

       1A    -20.545383     2A    -11.264982     3A    -11.213198
       4A    -11.213068     5A    -11.211260     6A    -11.208954
       7A    -11.206097     8A     -1.363229     9A     -1.087415
      10A     -1.034499    11A     -0.955615    12A     -0.876157
      13A     -0.807446    14A     -0.779792    15A     -0.696221
      16A     -0.662856    17A     -0.622498    18A     -0.608862
      19A     -0.588655    20A     -0.570765    21A     -0.537703
      22A     -0.520826    23A     -0.511775    24A     -0.487665
      25A     -0.480090    26A     -0.461082    27A     -0.456041
      28A     -0.444223    29A     -0.437380

  @DF-RHF Final Energy:  -310.33304437762558

   => Energetics <=

    Nuclear Repulsion Energy =            312.8378826296427633
    One-Electron Energy =               -1040.6343810152854985
    Two-Electron Energy =                 417.4634540080173792
    DFT Exchange-Correlation Energy =       0.0000000000000000
    Empirical Dispersion Energy =           0.0000000000000000
    PCM Polarization Energy =               0.0000000000000000
    EFP Energy =                            0.0000000000000000
    Total Energy =                       -310.3330443776253560
    Molecular point group: c1
  Basis Set: CC-PVTZ
  Basis Set:

  -Total Gradient:
     Atom            X                  Y                   Z
    ------   -----------------  -----------------  -----------------
       1       -0.000002487918     0.000000000687    -0.000001795152
       2       -0.000009611263    -0.000003023674    -0.000001153966
       3        0.000002981008    -0.000004014669     0.000003126871
       4       -0.000000911457     0.000007888104    -0.000000357593
       5        0.000002418703     0.000000030282    -0.000000217422
       6        0.000002663301     0.000000135648     0.000002379504
       7        0.000003858907     0.000005098580    -0.000041080338
       8        0.000000989216     0.000004041789     0.000004473061
       9        0.000004078352    -0.000001535436     0.000002638048
      10       -0.000103323745     0.000309662749    -0.000017732656
      11       -0.000015525167     0.000017260997    -0.000006230209
      12        0.000017930072    -0.000009106440    -0.000002878473
      13       -0.000109412457     0.000291306265     0.000028150681
      14        0.000101853707    -0.000345375417     0.000055505820
      15       -0.000013338560    -0.000029607873    -0.000010277666
      16        0.000100837607    -0.000241725714    -0.000036653497
      17        0.000015479440     0.000003003171     0.000014002591
      18        0.000007999176     0.000002442263    -0.000001974265
      19       -0.000007217841     0.000006502334     0.000007818866
      20       -0.000006333284    -0.000013623892    -0.000002521339
      21        0.000007072195     0.000000640245     0.000004777133

  **** Optimization is complete! (in 5 steps) ****
    Final optimized geometry and variables:
    Molecular point group: c1

    Geometry (in Angstrom), charge = 0, multiplicity = 1:

    H           -4.177533440160     0.772398741200    -0.400561135703
    O           -3.460642816399     0.208605589893    -0.624885519604
    C           -2.260282321162     0.728294538376    -0.117495783960
    C           -1.130354768054    -0.206283539819    -0.499472628273
    H           -2.073403312024     1.720429097726    -0.523157990927
    H           -2.313594425197     0.821970835761     0.965166132048
    C            0.228810557187     0.269873164737     0.004631042063
    H           -1.114487486852    -0.302689617486    -1.580369756486
    H           -1.350453597141    -1.192007286012    -0.101946622817
    C            1.365399621469    -0.675657421329    -0.379210487626
    H            0.438498840372     1.258534014486    -0.397844523019
    H            0.189581191912     0.381096947214     1.083945001475
    C            2.759060226677    -0.209447386474     0.045485640131
    H            1.358566536270    -0.808043615541    -1.457397436071
    H            1.172966817537    -1.658230569721     0.045408441128
    C            2.998364737290    -0.209001760879     1.553440877190
    H            2.941045132496     0.786462090420    -0.349906119127
    H            3.494254907565    -0.857983349596    -0.420953461340
    H            2.348865270411     0.489090250021     2.067929940518
    H            2.824968555088    -1.194169547761     1.974450294910
    H            4.020712594238     0.070930321670     1.780670254667

  Mulliken Charges: (a.u.)
   Center  Symbol    Alpha    Beta     Spin     Total
       1     H     0.39762  0.39762  0.00000  0.20477
       2     O     4.19427  4.19427  0.00000 -0.38854
       3     C     2.96327  2.96327  0.00000  0.07346
       4     C     3.08386  3.08386  0.00000 -0.16772
       5     H     0.47493  0.47493  0.00000  0.05013
       6     H     0.47499  0.47499  0.00000  0.05002
       7     C     3.10288  3.10288  0.00000 -0.20576
       8     H     0.45058  0.45058  0.00000  0.09884
       9     H     0.45092  0.45092  0.00000  0.09816
      10     C     3.09422  3.09422  0.00000 -0.18844
      11     H     0.45555  0.45555  0.00000  0.08890
      12     H     0.45373  0.45373  0.00000  0.09253
      13     C     3.08992  3.08992  0.00000 -0.17985
      14     H     0.44867  0.44867  0.00000  0.10266
      15     H     0.45342  0.45342  0.00000  0.09316
      16     C     3.15178  3.15178  0.00000 -0.30356
      17     H     0.45510  0.45510  0.00000  0.08979
      18     H     0.44844  0.44844  0.00000  0.10312
      19     H     0.45450  0.45450  0.00000  0.09099
      20     H     0.45470  0.45470  0.00000  0.09060
      21     H     0.44664  0.44664  0.00000  0.10672

   Total alpha = 29.00000, Total beta = 29.00000, Total charge =  0.00000

*** Psi4 exiting successfully. Buy a developer a beer!
