  ==> Input File <==

--------------------------------------------------------------------------
set {
	reference rhf
	basis 6-31G*
}

set_num_threads( 4 )
memory 2 gb

molecule MOL {
0 1

H	 -2.698709	 -0.000305	 0.034435
C	 -1.693833	 0.000034	 0.434417
O	 -0.828952	 -0.000968	 -0.659236
H	 -1.574200	 0.882896	 1.055746
H	 -1.574147	 -0.881698	 1.057355
C	 0.559449	 -0.000018	 -0.420814
C	 0.964243	 0.982939	 0.675933
C	 1.112457	 -1.402643	 -0.176304
H	 0.969820	 0.359861	 -1.356824
H	 0.513421	 1.953088	 0.496713
H	 2.042775	 1.105081	 0.685149
H	 0.666202	 0.643203	 1.662805
H	 0.763650	 -2.083811	 -0.944939
H	 2.197491	 -1.383910	 -0.204849
H	 0.818635	 -1.797434	 0.790986

	symmetry c1
}
set optking {
	frozen_dihedral = ("
		9 6 3 2
	")
}

ee = optimize('scf')
oeprop('DIPOLE', 'QUADRUPOLE', 'MULLIKEN_CHARGES')
f=open( 'psi4out.xyz', 'w' )
f.write( "15  " )
f.write( str(ee) + "\n" )
f.write( MOL.save_string_xyz() )
f.close()
--------------------------------------------------------------------------

    Molecular point group: c1
  Charge       = 0
  Multiplicity = 1
  Basis Set: 6-31G*
  Basis Set:
  @DF-RHF Final Energy:  -232.13651241766149
    Total Energy =                       -232.1365124176614358
    Molecular point group: c1
  Basis Set: 6-31G*
  Basis Set:
  Basis Set: 6-31G*
  Basis Set:
  @DF-RHF Final Energy:  -232.13693473824216
    Total Energy =                       -232.1369347382421893
  Basis Set: 6-31G*
  Basis Set:
  Basis Set: 6-31G*
  Basis Set:
  @DF-RHF Final Energy:  -232.13706520006150
    Total Energy =                       -232.1370652000616133
  Basis Set: 6-31G*
  Basis Set:
  Basis Set: 6-31G*
  Basis Set:
  @DF-RHF Final Energy:  -232.13708654165623
    Total Energy =                       -232.1370865416561742
  Basis Set: 6-31G*
  Basis Set:
  Basis Set: 6-31G*
  Basis Set:
  @DF-RHF Final Energy:  -232.13709279334313
    Total Energy =                       -232.1370927933431858
  Basis Set: 6-31G*
  Basis Set:
  Basis Set: 6-31G*
  Basis Set:
  @DF-RHF Final Energy:  -232.13709396803637
    Total Energy =                       -232.1370939680363108
  Basis Set: 6-31G*
  Basis Set:
  Charge       = 0
  Multiplicity = 1
  Basis Set: 6-31G*
  Basis Set:

    Orbital Energies (a.u.)
    -----------------------

    Doubly Occupied:

       1A    -20.547717     2A    -11.274348     3A    -11.261630
       4A    -11.213122     5A    -11.208198     6A     -1.369805
       7A     -1.050706     8A     -0.943005     9A     -0.927427
      10A     -0.781216    11A     -0.674875    12A     -0.641535
      13A     -0.632660    14A     -0.574777    15A     -0.559752
      16A     -0.552449    17A     -0.534802    18A     -0.502084
      19A     -0.494986    20A     -0.443856    21A     -0.404577

  @DF-RHF Final Energy:  -232.13709414394285

   => Energetics <=

    Nuclear Repulsion Energy =            198.7844446753694854
    One-Electron Energy =                -708.6560226639726352
    Two-Electron Energy =                 277.7344838446605308
    DFT Exchange-Correlation Energy =       0.0000000000000000
    Empirical Dispersion Energy =           0.0000000000000000
    PCM Polarization Energy =               0.0000000000000000
    EFP Energy =                            0.0000000000000000
    Total Energy =                       -232.1370941439425906
    Molecular point group: c1
  Basis Set: 6-31G*
  Basis Set:

  -Total Gradient:
     Atom            X                  Y                   Z
    ------   -----------------  -----------------  -----------------
       1        0.000005420397     0.000002956880    -0.000011378089
       2       -0.000010505606     0.002111895945     0.000028538062
       3        0.000021695564    -0.002696208695     0.000121148105
       4       -0.000001894721    -0.000006153835    -0.000007444484
       5        0.000007470337    -0.000008937425     0.000003960206
       6        0.000163365657    -0.001698179009    -0.000983969207
       7        0.000008475890     0.000009106348     0.000006954788
       8       -0.000017531828    -0.000004883190    -0.000004244306
       9       -0.000174706790     0.002281107704     0.000844098212
      10        0.000005292713     0.000005660968     0.000001114943
      11       -0.000004967238    -0.000000494335     0.000001002736
      12        0.000000271474     0.000000214388     0.000002556263
      13        0.000000419572    -0.000005768027    -0.000001152333
      14        0.000001623364     0.000009376321    -0.000002375921
      15       -0.000004428782     0.000000305962     0.000001191028

  **** Optimization is complete! (in 7 steps) ****
    Final optimized geometry and variables:
    Molecular point group: c1

    Geometry (in Angstrom), charge = 0, multiplicity = 1:

    H           -2.691451682735    -0.079983832358     0.060172779898
    C           -1.694676068751     0.067560089761     0.453551691518
    O           -0.831790021140     0.088069429351    -0.641114171143
    H           -1.678629211188     1.002263696649     1.005627010013
    H           -1.476145658108    -0.744979228966     1.142154459389
    C            0.559027273074     0.098774261494    -0.407860916083
    C            0.989062217561     1.067508181786     0.692759463631
    C            1.079623215901    -1.315702118044    -0.171432076588
    H            0.971797145270     0.473332296134    -1.337317693787
    H            0.572223072468     2.054301519967     0.520932445744
    H            2.070709797719     1.155986858804     0.694924204558
    H            0.686214440533     0.733305464123     1.679887147663
    H            0.768121432028    -1.966965851926    -0.980117023856
    H            2.164410072436    -1.322198481522    -0.123054618753
    H            0.704354440499    -1.728100140374     0.760350309089

  Mulliken Charges: (a.u.)
   Center  Symbol    Alpha    Beta     Spin     Total
       1     H     0.41245  0.41245  0.00000  0.17511
       2     C     3.08049  3.08049  0.00000 -0.16097
       3     O     4.31350  4.31350  0.00000 -0.62700
       4     H     0.42764  0.42764  0.00000  0.14471
       5     H     0.43156  0.43156  0.00000  0.13688
       6     C     2.90822  2.90822  0.00000  0.18357
       7     C     3.25951  3.25951  0.00000 -0.51902
       8     C     3.24550  3.24550  0.00000 -0.49099
       9     H     0.41624  0.41624  0.00000  0.16751
      10     H     0.41215  0.41215  0.00000  0.17570
      11     H     0.41668  0.41668  0.00000  0.16665
      12     H     0.41996  0.41996  0.00000  0.16009
      13     H     0.41132  0.41132  0.00000  0.17735
      14     H     0.42254  0.42254  0.00000  0.15492
      15     H     0.42225  0.42225  0.00000  0.15550

   Total alpha = 21.00000, Total beta = 21.00000, Total charge = -0.00000
