                              Psi4 1.0.54 Driver

  ==> Input File <==

--------------------------------------------------------------------------
set {
	reference rhf
	basis cc-pvtz
}

set_num_threads( 4 )
memory 2 gb

molecule MOL {
0 1

H	 -3.436473	 1.252944	 -1.023892
O	 -3.458596	 0.315260	 -0.960865
C	 -3.176635	 -0.080824	 0.355601
C	 -1.763371	 0.265266	 0.799691
H	 -3.321825	 -1.153438	 0.379502
H	 -3.895468	 0.357385	 1.043382
C	 -0.673390	 -0.426948	 -0.013392
H	 -1.631049	 1.344913	 0.747560
H	 -1.664587	 -0.001624	 1.849167
C	 -0.302861	 -1.804979	 0.528558
H	 0.208580	 0.203457	 -0.038516
H	 -1.008204	 -0.523157	 -1.043513
C	 0.784946	 -2.494452	 -0.292631
H	 0.020139	 -1.702493	 1.560089
H	 -1.189163	 -2.435821	 0.547652
C	 1.134389	 -3.912195	 0.163155
H	 1.684470	 -1.883250	 -0.280795
H	 0.462419	 -2.536368	 -1.329375
C	 1.787469	 -3.997125	 1.540623
H	 1.806980	 -4.351156	 -0.567399
H	 0.235952	 -4.523844	 0.152347
H	 2.686117	 -3.389924	 1.583225
H	 2.069184	 -5.018496	 1.770141
H	 1.122785	 -3.659311	 2.326551

	symmetry c1
}
set optking {
	frozen_dihedral = ("
		11 7 4 3
	")
}

ee,wfn = optimize('scf', return_wfn=True)
oeprop( wfn, 'DIPOLE', 'QUADRUPOLE', 'MULLIKEN_CHARGES')
f=open( 'psi4out.xyz', 'w' )
f.write( "24  " )
f.write( str(ee) + "\n" )
f.write( MOL.save_string_xyz() )
f.close()
--------------------------------------------------------------------------

    Molecular point group: c1
  Charge       = 0
  Multiplicity = 1
  Basis Set: CC-PVTZ
  Basis Set:
  @DF-RHF Final Energy:  -349.37778997480871
    Total Energy =                       -349.3777899748081950
    Molecular point group: c1
  Basis Set: CC-PVTZ
  Basis Set:
  Basis Set: CC-PVTZ
  Basis Set:
  @DF-RHF Final Energy:  -349.37794925447207
    Total Energy =                       -349.3779492544719005
  Basis Set: CC-PVTZ
  Basis Set:
  Basis Set: CC-PVTZ
  Basis Set:
  @DF-RHF Final Energy:  -349.37798611302730
    Total Energy =                       -349.3779861130270206
  Basis Set: CC-PVTZ
  Basis Set:
  Basis Set: CC-PVTZ
  Basis Set:
  @DF-RHF Final Energy:  -349.37798720885178
    Total Energy =                       -349.3779872088512093
  Basis Set: CC-PVTZ
  Basis Set:
  Charge       = 0
  Multiplicity = 1
  Basis Set: CC-PVTZ
  Basis Set:

    Orbital Energies (a.u.)
    -----------------------

    Doubly Occupied:

       1A    -20.546677     2A    -11.265492     3A    -11.215321
       4A    -11.211385     5A    -11.209631     6A    -11.208743
       7A    -11.208419     8A    -11.204755     9A     -1.364716
      10A     -1.088972    11A     -1.048060    12A     -0.984682
      13A     -0.915487    14A     -0.857108    15A     -0.797831
      16A     -0.775881    17A     -0.680867    18A     -0.649475
      19A     -0.634955    20A     -0.614986    21A     -0.605517
      22A     -0.576596    23A     -0.556626    24A     -0.541536
      25A     -0.525345    26A     -0.512190    27A     -0.491237
      28A     -0.481633    29A     -0.468798    30A     -0.459477
      31A     -0.452202    32A     -0.439397    33A     -0.426894

  @DF-RHF Final Energy:  -349.37798801513975

   => Energetics <=

    Nuclear Repulsion Energy =            388.6702148948999138
    One-Electron Energy =               -1244.0546290510387735
    Two-Electron Energy =                 506.0064261409992241
    DFT Exchange-Correlation Energy =       0.0000000000000000
    Empirical Dispersion Energy =           0.0000000000000000
    PCM Polarization Energy =               0.0000000000000000
    EFP Energy =                            0.0000000000000000
    Total Energy =                       -349.3779880151396355
    Molecular point group: c1
  Basis Set: CC-PVTZ
  Basis Set:

  -Total Gradient:
     Atom            X                  Y                   Z
    ------   -----------------  -----------------  -----------------
       1       -0.000003778142    -0.000028307991    -0.000004814485
       2        0.000011814478     0.000024011584    -0.000008151083
       3        0.000034896458     0.001486670356    -0.001218807824
       4       -0.000224179366    -0.001862178304     0.001191575359
       5        0.000011867428     0.000015073248    -0.000001013354
       6        0.000001096928    -0.000014714108     0.000006285922
       7        0.001038704470    -0.000808045735     0.002275021691
       8        0.000020677775     0.000003793113    -0.000015770046
       9        0.000015606419    -0.000022731666    -0.000052321104
      10        0.000012577630     0.000034732484     0.000044930535
      11       -0.000856684098     0.001137597917    -0.002162546689
      12       -0.000026296586    -0.000012283817     0.000010312757
      13       -0.000055400997     0.000009186472    -0.000048226661
      14       -0.000008495750    -0.000014675903    -0.000003726254
      15        0.000051174541     0.000039489963    -0.000012281202
      16        0.000047055149    -0.000003834238    -0.000033717378
      17       -0.000037124586    -0.000026268398    -0.000006370668
      18       -0.000005597520     0.000012885123     0.000018934577
      19       -0.000017548416     0.000021453710     0.000012743249
      20        0.000013853583    -0.000004729757     0.000006152668
      21        0.000012242022    -0.000002366619    -0.000015259792
      22       -0.000014039447    -0.000019790652    -0.000007639461
      23       -0.000011827850     0.000000888409     0.000007370074
      24       -0.000010594128     0.000034144814     0.000017319169

  **** Optimization is complete! (in 5 steps) ****
    Final optimized geometry and variables:
    Molecular point group: c1

    Geometry (in Angstrom), charge = 0, multiplicity = 1:

    H           -2.645968518052     2.743620582991    -1.297753697211
    O           -2.690293447248     1.806711200588    -1.234633675880
    C           -2.433290924529     1.405012251994     0.084702562457
    C           -1.026548168744     1.755749732569     0.551494071442
    H           -2.586074501718     0.333753870869     0.100910767257
    H           -3.162443240513     1.842874290135     0.761708848747
    C            0.088891910881     1.061416544006    -0.238484248083
    H           -0.910365723466     2.834669448702     0.474491643292
    H           -0.941823875041     1.520169050782     1.608902346834
    C            0.459247438837    -0.319579867489     0.297544896378
    H            0.970633281680     1.694946692313    -0.249765018804
    H           -0.221991547348     0.976603754385    -1.274297887057
    C            1.528038970692    -1.014724109696    -0.543416541944
    H            0.800291411999    -0.218178372237     1.323179023870
    H           -0.427663294911    -0.947938528057     0.331076419558
    C            1.885045202596    -2.430969697723    -0.088687127460
    H            2.428985353490    -0.405197282426    -0.553028626778
    H            1.183031928648    -1.060092625027    -1.572444805413
    C            2.560924661150    -2.511684475792     1.278038032669
    H            2.545249951839    -2.872556199868    -0.828907109920
    H            0.986484338384    -3.042403365162    -0.082802528766
    H            3.460897514393    -1.905466888041     1.303516865056
    H            2.845276114982    -3.532542183394     1.506584990759
    H            1.910000389633    -2.170171153841     2.073822001889

  Mulliken Charges: (a.u.)
   Center  Symbol    Alpha    Beta     Spin     Total
       1     H     0.39496  0.39496  0.00000  0.21009
       2     O     4.20350  4.20350  0.00000 -0.40699
       3     C     2.97515  2.97515  0.00000  0.04970
       4     C     3.10919  3.10919  0.00000 -0.21838
       5     H     0.45833  0.45833  0.00000  0.08334
       6     H     0.45998  0.45998  0.00000  0.08003
       7     C     3.09893  3.09893  0.00000 -0.19785
       8     H     0.45220  0.45220  0.00000  0.09560
       9     H     0.45375  0.45375  0.00000  0.09250
      10     C     3.09239  3.09239  0.00000 -0.18477
      11     H     0.44867  0.44867  0.00000  0.10265
      12     H     0.44542  0.44542  0.00000  0.10917
      13     C     3.09527  3.09527  0.00000 -0.19054
      14     H     0.45324  0.45324  0.00000  0.09353
      15     H     0.45504  0.45504  0.00000  0.08992
      16     C     3.08990  3.08990  0.00000 -0.17980
      17     H     0.45434  0.45434  0.00000  0.09131
      18     H     0.44783  0.44783  0.00000  0.10435
      19     C     3.15257  3.15257  0.00000 -0.30514
      20     H     0.44865  0.44865  0.00000  0.10269
      21     H     0.45476  0.45476  0.00000  0.09048
      22     H     0.45513  0.45513  0.00000  0.08973
      23     H     0.44656  0.44656  0.00000  0.10688
      24     H     0.45425  0.45425  0.00000  0.09151

   Total alpha = 33.00000, Total beta = 33.00000, Total charge = -0.00000

*** Psi4 exiting successfully. Buy a developer a beer!
