  ==> Input File <==

--------------------------------------------------------------------------
set {
	reference rhf
	basis 6-31G*
}

set_num_threads( 4 )
memory 2 gb

molecule MOL {
0 1

O	 -2.190643	 0.451450	 -1.892279
C	 -2.334260	 -0.324737	 -1.002603
C	 -3.504313	 -1.268136	 -0.891955
O	 -1.481751	 -0.454642	 0.000584
H	 -3.534155	 -1.890858	 -1.778064
H	 -3.440365	 -1.887694	 -0.009630
H	 -4.418592	 -0.687245	 -0.868719
C	 -0.334255	 0.388708	 0.000906
C	 0.891947	 -0.504646	 0.000751
H	 -0.365390	 1.025305	 -0.873475
H	 -0.365484	 1.024911	 0.875569
C	 2.191998	 0.301789	 0.000897
H	 0.855148	 -1.151283	 -0.871571
H	 0.855132	 -1.151660	 0.872805
C	 3.441114	 -0.581407	 0.000108
H	 2.215074	 0.954890	 -0.869742
H	 2.215465	 0.953923	 0.872248
C	 4.739576	 0.224112	 -0.001102
H	 3.419457	 -1.233487	 -0.870178
H	 3.420834	 -1.233096	 0.870717
H	 4.804918	 0.861552	 -0.878265
H	 5.606527	 -0.429058	 -0.001824
H	 4.806469	 0.861674	 0.875853

	symmetry c1
}
set optking {
	frozen_dihedral = ("
		2 4 8 10
	")
}

ee = optimize('scf')
oeprop('DIPOLE', 'QUADRUPOLE', 'MULLIKEN_CHARGES')
f=open( 'psi4out.xyz', 'w' )
f.write( "23  " )
f.write( str(ee) + "\n" )
f.write( MOL.save_string_xyz() )
f.close()
--------------------------------------------------------------------------

    Molecular point group: c1
  Charge       = 0
  Multiplicity = 1
  Basis Set: 6-31G*
  Basis Set:
  @DF-RHF Final Energy:  -422.97667413268783
    Total Energy =                       -422.9766741326877764
    Molecular point group: c1
  Basis Set: 6-31G*
  Basis Set:
  Basis Set: 6-31G*
  Basis Set:
  @DF-RHF Final Energy:  -422.97706697813919
    Total Energy =                       -422.9770669781390779
  Basis Set: 6-31G*
  Basis Set:
  Basis Set: 6-31G*
  Basis Set:
  @DF-RHF Final Energy:  -422.97740081286088
    Total Energy =                       -422.9774008128607647
  Basis Set: 6-31G*
  Basis Set:
  Basis Set: 6-31G*
  Basis Set:
  @DF-RHF Final Energy:  -422.97750676422197
    Total Energy =                       -422.9775067642217437
  Basis Set: 6-31G*
  Basis Set:
  Basis Set: 6-31G*
  Basis Set:
  @DF-RHF Final Energy:  -422.97761400890880
    Total Energy =                       -422.9776140089090859
  Basis Set: 6-31G*
  Basis Set:
  Basis Set: 6-31G*
  Basis Set:
  @DF-RHF Final Energy:  -422.97762179190431
    Total Energy =                       -422.9776217919037435
  Basis Set: 6-31G*
  Basis Set:
  Charge       = 0
  Multiplicity = 1
  Basis Set: 6-31G*
  Basis Set:

    Orbital Energies (a.u.)
    -----------------------

    Doubly Occupied:

       1A    -20.602190     2A    -20.540025     3A    -11.375775
       4A    -11.279903     5A    -11.231803     6A    -11.223943
       7A    -11.223350     8A    -11.221275     9A    -11.212608
      10A     -1.465346    11A     -1.361360    12A     -1.093430
      13A     -1.041846    14A     -1.002846    15A     -0.931621
      16A     -0.846287    17A     -0.800722    18A     -0.771816
      19A     -0.697940    20A     -0.679159    21A     -0.659801
      22A     -0.648447    23A     -0.605717    24A     -0.587857
      25A     -0.585235    26A     -0.571790    27A     -0.551758
      28A     -0.539010    29A     -0.522700    30A     -0.507844
      31A     -0.488814    32A     -0.478440    33A     -0.473839
      34A     -0.470405    35A     -0.440765    36A     -0.434358

  @DF-RHF Final Energy:  -422.97762141770380

   => Energetics <=

    Nuclear Repulsion Energy =            451.3869069948628407
    One-Electron Energy =               -1470.3890097451617294
    Two-Electron Energy =                 596.0244813325950872
    DFT Exchange-Correlation Energy =       0.0000000000000000
    Empirical Dispersion Energy =           0.0000000000000000
    PCM Polarization Energy =               0.0000000000000000
    EFP Energy =                            0.0000000000000000
    Total Energy =                       -422.9776214177038582
    Molecular point group: c1
  Basis Set: 6-31G*
  Basis Set:

  -Total Gradient:
     Atom            X                  Y                   Z
    ------   -----------------  -----------------  -----------------
       1       -0.000020097548     0.000023099123     0.000106294124
       2       -0.000028975933     0.000015434762    -0.000039709287
       3       -0.000063107595     0.000057486256     0.000044451487
       4        0.000135168167    -0.000098973245    -0.000173948901
       5        0.000018105473     0.000000573346     0.000015849920
       6       -0.000012698559    -0.000010022299    -0.000001330017
       7        0.000007075994    -0.000024381455    -0.000018893536
       8       -0.000112897681     0.000211937545     0.000106211616
       9        0.000045224531     0.000009430718    -0.000019157267
      10        0.000081634644    -0.000155723624    -0.000090050798
      11       -0.000044018678    -0.000028514218     0.000015757034
      12        0.000017567391    -0.000007475822     0.000014112104
      13        0.000002672171    -0.000016095041     0.000003665199
      14       -0.000010266476     0.000022874624     0.000010329915
      15        0.000001599892    -0.000002717744     0.000006027685
      16       -0.000004364567     0.000015107736     0.000021060648
      17        0.000001620945    -0.000014581559     0.000027364002
      18       -0.000009027261     0.000005511918    -0.000036402896
      19       -0.000007110481    -0.000018920173     0.000005645480
      20        0.000006014897     0.000015764578     0.000010718122
      21        0.000005963763     0.000010469696    -0.000000239226
      22       -0.000006171880    -0.000002400457    -0.000009272816
      23       -0.000003911206    -0.000007884665     0.000001517410

  **** Optimization is complete! (in 7 steps) ****
    Final optimized geometry and variables:
    Molecular point group: c1

    Geometry (in Angstrom), charge = 0, multiplicity = 1:

    O           -2.423673044459     0.623487639056    -1.497961710010
    C           -2.513859495454    -0.128385475852    -0.581071808785
    C           -3.674839707194    -1.070528048817    -0.389771170206
    O           -1.617959083045    -0.240164921882     0.387810052042
    H           -3.751162048328    -1.708921964313    -1.261795495716
    H           -3.563476321244    -1.673405744517     0.499229508484
    H           -4.587020529110    -0.489014469007    -0.329087148822
    C           -0.448006785992     0.575125306883     0.370011200033
    C            0.782554586222    -0.316018119502     0.383173539931
    H           -0.468274331051     1.212253003005    -0.498967973290
    H           -0.490691006266     1.191998255882     1.258909706609
    C            2.079101739749     0.493745328321     0.442897522917
    H            0.773358771615    -0.936794245903    -0.509015494298
    H            0.722769080184    -0.987545986515     1.235141905048
    C            3.331837503033    -0.384281850682     0.444513065813
    H            2.120953124653     1.175558579618    -0.404650700385
    H            2.077808221419     1.116245112085     1.336252952896
    C            4.626267956666     0.425921936415     0.498331225775
    H            3.333356871374    -1.009063046021    -0.445755474854
    H            3.294114407012    -1.062567249754     1.294010885158
    H            4.708644072160     1.090803326890    -0.356716084153
    H            5.495941473218    -0.223606546876     0.496968943197
    H            4.670384268457     1.035821932474     1.396215877840

  Mulliken Charges: (a.u.)
   Center  Symbol    Alpha    Beta     Spin     Total
       1     O     4.28363  4.28363  0.00000 -0.56726
       2     C     2.61544  2.61544  0.00000  0.76911
       3     C     3.28847  3.28847  0.00000 -0.57694
       4     O     4.31369  4.31369  0.00000 -0.62739
       5     H     0.39779  0.39779  0.00000  0.20442
       6     H     0.39991  0.39991  0.00000  0.20019
       7     H     0.39754  0.39754  0.00000  0.20493
       8     C     3.00633  3.00633  0.00000 -0.01266
       9     C     3.16311  3.16311  0.00000 -0.32621
      10     H     0.39348  0.39348  0.00000  0.21305
      11     H     0.41465  0.41465  0.00000  0.17071
      12     C     3.16111  3.16111  0.00000 -0.32223
      13     H     0.41541  0.41541  0.00000  0.16918
      14     H     0.41450  0.41450  0.00000  0.17100
      15     C     3.15137  3.15137  0.00000 -0.30273
      16     H     0.41952  0.41952  0.00000  0.16095
      17     H     0.42189  0.42189  0.00000  0.15622
      18     C     3.23990  3.23990  0.00000 -0.47981
      19     H     0.42088  0.42088  0.00000  0.15824
      20     H     0.42159  0.42159  0.00000  0.15682
      21     H     0.42053  0.42053  0.00000  0.15895
      22     H     0.41800  0.41800  0.00000  0.16401
      23     H     0.42127  0.42127  0.00000  0.15746

   Total alpha = 36.00000, Total beta = 36.00000, Total charge = -0.00000
