                              Psi4 1.0.54 Driver

  ==> Input File <==

--------------------------------------------------------------------------
set {
	reference rhf
	basis cc-pvtz
}

set_num_threads( 4 )
memory 2 gb

molecule MOL {
0 1

O	 0.749630	 1.305591	 -0.000460
C	 0.576499	 0.134701	 -0.003900
C	 -0.765656	 -0.550508	 -0.002152
O	 1.564816	 -0.744612	 -0.000631
C	 -1.945526	 0.411052	 0.000603
H	 -0.794329	 -1.203792	 -0.868145
H	 -0.791555	 -1.205429	 0.862701
C	 -2.182198	 1.025407	 1.375913
H	 -2.834601	 -0.113375	 -0.327903
H	 -1.770752	 1.193086	 -0.728270
H	 -2.391233	 0.262351	 2.118450
H	 -3.025401	 1.705150	 1.355439
H	 -1.315553	 1.584494	 1.713074
C	 2.884339	 -0.237801	 0.002883
H	 3.064150	 0.362814	 -0.876312
H	 3.533055	 -1.098529	 0.004958
H	 3.059365	 0.363432	 0.882614

	symmetry c1
}
set optking {
	frozen_dihedral = ("
		9 5 3 6
	")
}

ee,wfn = optimize('scf', return_wfn=True)
oeprop( wfn, 'DIPOLE', 'QUADRUPOLE', 'MULLIKEN_CHARGES')
f=open( 'psi4out.xyz', 'w' )
f.write( "17  " )
f.write( str(ee) + "\n" )
f.write( MOL.save_string_xyz() )
f.close()
--------------------------------------------------------------------------

    Molecular point group: c1
  Charge       = 0
  Multiplicity = 1
  Basis Set: CC-PVTZ
  Basis Set:
  @DF-RHF Final Energy:  -345.03421494590100
    Total Energy =                       -345.0342149459012262
    Molecular point group: c1
  Basis Set: CC-PVTZ
  Basis Set:
  Basis Set: CC-PVTZ
  Basis Set:
  @DF-RHF Final Energy:  -345.03411106851485
    Total Energy =                       -345.0341110685142780
  Basis Set: CC-PVTZ
  Basis Set:
  Basis Set: CC-PVTZ
  Basis Set:
  @DF-RHF Final Energy:  -345.03337533569908
    Total Energy =                       -345.0333753356989632
  Basis Set: CC-PVTZ
  Basis Set:
  Basis Set: CC-PVTZ
  Basis Set:
  @DF-RHF Final Energy:  -345.03448178586734
    Total Energy =                       -345.0344817858673423
  Basis Set: CC-PVTZ
  Basis Set:
  Basis Set: CC-PVTZ
  Basis Set:
  @DF-RHF Final Energy:  -345.03451463930014
    Total Energy =                       -345.0345146393003688
  Basis Set: CC-PVTZ
  Basis Set:
  Basis Set: CC-PVTZ
  Basis Set:
  @DF-RHF Final Energy:  -345.03454169654208
    Total Energy =                       -345.0345416965420782
  Basis Set: CC-PVTZ
  Basis Set:
  Basis Set: CC-PVTZ
  Basis Set:
  @DF-RHF Final Energy:  -345.03455001608990
    Total Energy =                       -345.0345500160899519
  Basis Set: CC-PVTZ
  Basis Set:
  Charge       = 0
  Multiplicity = 1
  Basis Set: CC-PVTZ
  Basis Set:

    Orbital Energies (a.u.)
    -----------------------

    Doubly Occupied:

       1A    -20.597354     2A    -20.535125     3A    -11.365787
       4A    -11.279199     5A    -11.234355     6A    -11.220119
       7A    -11.206927     8A     -1.473347     9A     -1.366818
      10A     -1.080078    11A     -1.000920    12A     -0.939226
      13A     -0.829984    14A     -0.768320    15A     -0.704233
      16A     -0.685052    17A     -0.675793    18A     -0.618783
      19A     -0.616987    20A     -0.568060    21A     -0.566962
      22A     -0.536343    23A     -0.525345    24A     -0.488762
      25A     -0.484181    26A     -0.482509    27A     -0.460977
      28A     -0.441073

  @DF-RHF Final Energy:  -345.03455231038163

   => Energetics <=

    Nuclear Repulsion Energy =            317.8336563201845593
    One-Electron Energy =               -1100.2311735275475257
    Two-Electron Energy =                 437.3629648969813388
    DFT Exchange-Correlation Energy =       0.0000000000000000
    Empirical Dispersion Energy =           0.0000000000000000
    PCM Polarization Energy =               0.0000000000000000
    EFP Energy =                            0.0000000000000000
    Total Energy =                       -345.0345523103816276
    Molecular point group: c1
  Basis Set: CC-PVTZ
  Basis Set:

  -Total Gradient:
     Atom            X                  Y                   Z
    ------   -----------------  -----------------  -----------------
       1        0.000007457763    -0.000016863532     0.000000639861
       2        0.000005337918     0.000048106101     0.000007547853
       3        0.001156413323     0.001662308823    -0.001180033186
       4       -0.000024213107    -0.000029397866    -0.000007583848
       5       -0.000634291879    -0.001061951152     0.001945726449
       6       -0.000912620749    -0.001197158889     0.000698812062
       7        0.000002474653    -0.000015132379    -0.000006173740
       8        0.000000881319    -0.000001677404    -0.000000658290
       9        0.000321991164     0.000601649688    -0.001472491899
      10       -0.000000049143     0.000008207436    -0.000006592663
      11       -0.000004463499    -0.000010926378     0.000018703302
      12        0.000011297651    -0.000007039602    -0.000012427171
      13        0.000010908864     0.000009156581     0.000009463116
      14        0.000059240804     0.000008607936     0.000007363232
      15       -0.000007597845     0.000003009765    -0.000011165777
      16        0.000010552032    -0.000005267145    -0.000000642271
      17       -0.000003319268     0.000004368023     0.000009512967

  **** Optimization is complete! (in 8 steps) ****
    Final optimized geometry and variables:
    Molecular point group: c1

    Geometry (in Angstrom), charge = 0, multiplicity = 1:

    O            0.633054055255     1.120442630047    -0.223876161553
    C            0.421754316607    -0.044404364332    -0.235595757888
    C           -0.940134375144    -0.688848174863    -0.309045955847
    O            1.381283720900    -0.953926560808    -0.203280380416
    C           -2.105639765645     0.285462331323    -0.172842442825
    H           -0.984756312698    -1.218726876920    -1.254916386801
    H           -0.979294035268    -1.458976228103     0.453655635220
    C           -2.357454908768     0.740609221790     1.260678473172
    H           -2.995275353093    -0.192230198191    -0.569075934722
    H           -1.916343719736     1.148593099436    -0.798608433207
    H           -2.589070275385    -0.102610727146     1.903785219992
    H           -3.193869411141     1.428093211891     1.304466869442
    H           -1.491209710978     1.247954274022     1.666666143214
    C            2.715571293690    -0.489107949393    -0.162697760876
    H            2.938887971147     0.105355658548    -1.036190841312
    H            3.336880168479    -1.369681818017    -0.142922798129
    H            2.884772467247     0.106677475131     0.721917523343

  Mulliken Charges: (a.u.)
   Center  Symbol    Alpha    Beta     Spin     Total
       1     O     4.19851  4.19851  0.00000 -0.39703
       2     C     2.80485  2.80485  0.00000  0.39030
       3     C     3.10350  3.10350  0.00000 -0.20701
       4     O     4.14644  4.14644  0.00000 -0.29288
       5     C     3.08517  3.08517  0.00000 -0.17034
       6     H     0.43408  0.43408  0.00000  0.13183
       7     H     0.44040  0.44040  0.00000  0.11920
       8     C     3.15095  3.15095  0.00000 -0.30190
       9     H     0.44785  0.44785  0.00000  0.10431
      10     H     0.44560  0.44560  0.00000  0.10880
      11     H     0.45809  0.45809  0.00000  0.08382
      12     H     0.44794  0.44794  0.00000  0.10411
      13     H     0.44615  0.44615  0.00000  0.10771
      14     C     3.03658  3.03658  0.00000 -0.07316
      15     H     0.45431  0.45431  0.00000  0.09137
      16     H     0.44527  0.44527  0.00000  0.10946
      17     H     0.45430  0.45430  0.00000  0.09139

   Total alpha = 28.00000, Total beta = 28.00000, Total charge = -0.00000

*** Psi4 exiting successfully. Buy a developer a beer!
