  ==> Input File <==

--------------------------------------------------------------------------
set {
	reference rhf
	basis cc-pvtz
}

set_num_threads( 4 )
memory 2 gb

molecule MOL {
0 1

H	 1.015181	 -4.381372	 3.710248
C	 1.087515	 -3.807152	 2.794199
C	 -0.119538	 -2.891323	 2.624101
H	 2.009310	 -3.236478	 2.835002
H	 1.170267	 -4.508784	 1.970863
C	 -0.059285	 -2.065421	 1.347690
H	 -0.198524	 -2.217523	 3.469985
H	 -1.027498	 -3.489793	 2.619801
N	 -1.205681	 -1.190777	 1.227239
H	 0.834378	 -1.448708	 1.361817
H	 0.041627	 -2.734338	 0.487778
C	 -1.215959	 -0.382435	 0.027143
H	 -2.046127	 -1.727694	 1.279106
C	 -2.451944	 0.502410	 -0.038737
H	 -0.327929	 0.242481	 0.034839
H	 -1.156892	 -0.990452	 -0.880548
C	 -3.752217	 -0.292550	 0.005776
H	 -2.407325	 1.093801	 -0.946480
H	 -2.431979	 1.206234	 0.790023
H	 -3.817783	 -0.982946	 -0.828547
H	 -4.612613	 0.364348	 -0.042306
H	 -3.830160	 -0.871666	 0.919868

	symmetry c1
}
set optking {
	frozen_dihedral = ("
		15 12 14 18
	")
}

ee = optimize('scf')
oeprop('DIPOLE', 'QUADRUPOLE', 'MULLIKEN_CHARGES')
f=open( 'psi4out.xyz', 'w' )
f.write( "22  " )
f.write( str(ee) + "\n" )
f.write( MOL.save_string_xyz() )
f.close()
--------------------------------------------------------------------------

    Molecular point group: c1
  Charge       = 0
  Multiplicity = 1
  Basis Set: CC-PVTZ
  Basis Set:
  @DF-RHF Final Energy:  -290.48789874413239
    Total Energy =                       -290.4878987441330196
    Molecular point group: c1
  Basis Set: CC-PVTZ
  Basis Set:
  Basis Set: CC-PVTZ
  Basis Set:
  @DF-RHF Final Energy:  -290.48840885301354
    Total Energy =                       -290.4884088530138797
  Basis Set: CC-PVTZ
  Basis Set:
  Basis Set: CC-PVTZ
  Basis Set:
  @DF-RHF Final Energy:  -290.48875390386166
    Total Energy =                       -290.4887539038614364
  Basis Set: CC-PVTZ
  Basis Set:
  Basis Set: CC-PVTZ
  Basis Set:
  @DF-RHF Final Energy:  -290.48877532897137
    Total Energy =                       -290.4887753289717125
  Basis Set: CC-PVTZ
  Basis Set:
  Basis Set: CC-PVTZ
  Basis Set:
  @DF-RHF Final Energy:  -290.48877685886862
    Total Energy =                       -290.4887768588680501
  Basis Set: CC-PVTZ
  Basis Set:
  Charge       = 0
  Multiplicity = 1
  Basis Set: CC-PVTZ
  Basis Set:

    Orbital Energies (a.u.)
    -----------------------

    Doubly Occupied:

       1A    -15.527898     2A    -11.236492     3A    -11.236248
       4A    -11.211923     5A    -11.211657     6A    -11.207798
       7A    -11.207631     8A     -1.207504     9A     -1.059806
      10A     -1.024563    11A     -0.929262    12A     -0.880515
      13A     -0.805724    14A     -0.788429    15A     -0.669920
      16A     -0.635260    17A     -0.624119    18A     -0.588550
      19A     -0.574096    20A     -0.573519    21A     -0.544624
      22A     -0.529468    23A     -0.506357    24A     -0.486695
      25A     -0.480810    26A     -0.472791    27A     -0.467201
      28A     -0.452092    29A     -0.361264

  @DF-RHF Final Energy:  -290.48877694771539

   => Energetics <=

    Nuclear Repulsion Energy =            317.9153539175951551
    One-Electron Energy =               -1021.8038307309687980
    Two-Electron Energy =                 413.3996998656584765
    DFT Exchange-Correlation Energy =       0.0000000000000000
    Empirical Dispersion Energy =           0.0000000000000000
    PCM Polarization Energy =               0.0000000000000000
    EFP Energy =                            0.0000000000000000
    Total Energy =                       -290.4887769477152233
    Molecular point group: c1
  Basis Set: CC-PVTZ
  Basis Set:

  -Total Gradient:
     Atom            X                  Y                   Z
    ------   -----------------  -----------------  -----------------
       1        0.000002075117    -0.000002063608     0.000000630737
       2       -0.000001454525    -0.000004127834     0.000001556234
       3        0.000005717004     0.000000619143    -0.000001963566
       4       -0.000001549447     0.000000156150    -0.000000063219
       5        0.000000836329     0.000000163473     0.000000222444
       6       -0.000011899300     0.000010803176     0.000006766665
       7       -0.000000150140     0.000000791678    -0.000002415040
       8        0.000000187104    -0.000000029019     0.000000731979
       9        0.000001856189    -0.000003266148    -0.000012945396
      10        0.000003744493    -0.000001934118    -0.000001740598
      11        0.000001803379    -0.000002359772     0.000000742517
      12       -0.000114042001    -0.000238669949    -0.001702314303
      13       -0.000005268371     0.000006640958    -0.000000858172
      14        0.000818261031     0.001096424624     0.001049845303
      15       -0.000025023731     0.000039673513     0.001289287400
      16       -0.000001414136     0.000002791424    -0.000002784750
      17        0.000000248175    -0.000002547934    -0.000001797311
      18       -0.000672417753    -0.000893326732    -0.000630187798
      19        0.000003954910    -0.000005582058    -0.000001052371
      20        0.000000143122     0.000000581813     0.000002524580
      21       -0.000000314200     0.000000058267     0.000002044173
      22       -0.000005293248    -0.000004797049     0.000003770490

  **** Optimization is complete! (in 6 steps) ****
    Final optimized geometry and variables:
    Molecular point group: c1

    Geometry (in Angstrom), charge = 0, multiplicity = 1:

    H            2.185460024155    -2.905850784714     2.576521003504
    C            2.253108785527    -2.315515030914     1.670391860076
    C            1.007974891881    -1.456166793515     1.481330711819
    H            3.144935127502    -1.701968255909     1.742633018450
    H            2.390216331772    -3.000264664339     0.840134069116
    C            1.061185399423    -0.609049023442     0.218569835466
    H            0.875107598918    -0.799715837054     2.334105793324
    H            0.130516941692    -2.097533384925     1.444882487885
    N           -0.121564916080     0.214338402755     0.082444935464
    H            1.925587644410     0.046502845589     0.263282297348
    H            1.212464361118    -1.260163419215    -0.647641089622
    C           -0.139916695173     1.027748678349    -1.115878916725
    H           -0.932257687038    -0.365651369905     0.115464438010
    C           -1.338310049250     1.968170616026    -1.167252118048
    H            0.766110235442     1.624222694857    -1.114491059975
    H           -0.115332923016     0.420545658250    -2.025799749525
    C           -2.694032615956     1.265418545802    -1.154574752839
    H           -1.262371239830     2.554274852015    -2.078324826822
    H           -1.279660103871     2.658766376308    -0.333260585776
    H           -2.767181538024     0.537487754847    -1.957020054859
    H           -3.497492732751     1.980599743502    -1.286300772489
    H           -2.873176510812     0.752247035516    -0.217024210108

  Mulliken Charges: (a.u.)
   Center  Symbol    Alpha    Beta     Spin     Total
       1     H     0.44770  0.44770  0.00000  0.10460
       2     C     3.15342  3.15342  0.00000 -0.30685
       3     C     3.08108  3.08108  0.00000 -0.16215
       4     H     0.45464  0.45464  0.00000  0.09072
       5     H     0.45607  0.45607  0.00000  0.08785
       6     C     3.02174  3.02174  0.00000 -0.04349
       7     H     0.44913  0.44913  0.00000  0.10174
       8     H     0.45987  0.45987  0.00000  0.08025
       9     N     3.64115  3.64115  0.00000 -0.28229
      10     H     0.45923  0.45923  0.00000  0.08155
      11     H     0.47493  0.47493  0.00000  0.05013
      12     C     3.03629  3.03629  0.00000 -0.07258
      13     H     0.44170  0.44170  0.00000  0.11660
      14     C     3.07896  3.07896  0.00000 -0.15791
      15     H     0.45416  0.45416  0.00000  0.09167
      16     H     0.46969  0.46969  0.00000  0.06062
      17     C     3.15906  3.15906  0.00000 -0.31812
      18     H     0.45503  0.45503  0.00000  0.08993
      19     H     0.45211  0.45211  0.00000  0.09578
      20     H     0.45427  0.45427  0.00000  0.09146
      21     H     0.44548  0.44548  0.00000  0.10904
      22     H     0.45428  0.45428  0.00000  0.09143

   Total alpha = 29.00000, Total beta = 29.00000, Total charge = -0.00000
