  ==> Input File <==

--------------------------------------------------------------------------
set {
	reference rhf
	basis 6-31G*
}

set_num_threads( 4 )
memory 2 gb

molecule MOL {
0 1

O	 3.225979	 0.970355	 -0.599647
C	 2.701189	 0.057885	 -0.047330
C	 1.245376	 -0.013843	 0.345420
O	 3.347903	 -1.046386	 0.304773
C	 0.455112	 1.231400	 -0.050772
H	 0.838542	 -0.913825	 -0.103701
H	 1.208210	 -0.175333	 1.419774
C	 -0.998893	 1.219485	 0.433193
H	 0.482531	 1.345121	 -1.130325
H	 0.957290	 2.103070	 0.354729
C	 -1.883438	 0.145884	 -0.207175
H	 -1.431207	 2.195402	 0.224832
H	 -1.019646	 1.105716	 1.516076
C	 -3.347647	 0.245583	 0.225435
H	 -1.822183	 0.231698	 -1.291012
H	 -1.510341	 -0.844814	 0.042401
C	 -3.528264	 0.852606	 1.617926
H	 -3.796964	 -0.745857	 0.205513
H	 -3.897603	 0.843010	 -0.500050
C	 -4.993070	 0.945096	 2.043940
H	 -2.978517	 0.257404	 2.343979
H	 -3.083612	 1.845400	 1.638566
H	 -5.088428	 1.379138	 3.034456
H	 -5.457329	 -0.036801	 2.067120
H	 -5.563263	 1.562935	 1.355878
C	 4.728119	 -1.109107	 -0.004993
H	 4.882018	 -1.033965	 -1.071845
H	 5.068212	 -2.067527	 0.355250
H	 5.265056	 -0.311663	 0.488280

	symmetry c1
}
set optking {
	frozen_dihedral = ("
		17 14 11 15
	")
}

ee = optimize('scf')
oeprop('DIPOLE', 'QUADRUPOLE', 'MULLIKEN_CHARGES')
f=open( 'psi4out.xyz', 'w' )
f.write( "29  " )
f.write( str(ee) + "\n" )
f.write( MOL.save_string_xyz() )
f.close()
--------------------------------------------------------------------------

    Molecular point group: c1
  Charge       = 0
  Multiplicity = 1
  Basis Set: 6-31G*
  Basis Set:
  @DF-RHF Final Energy:  -501.03488857370530
    Total Energy =                       -501.0348885737055298
    Molecular point group: c1
  Basis Set: 6-31G*
  Basis Set:
  Basis Set: 6-31G*
  Basis Set:
  @DF-RHF Final Energy:  -501.03543956904048
    Total Energy =                       -501.0354395690402498
  Basis Set: 6-31G*
  Basis Set:
  Basis Set: 6-31G*
  Basis Set:
  @DF-RHF Final Energy:  -501.03749256584990
    Total Energy =                       -501.0374925658500160
  Basis Set: 6-31G*
  Basis Set:
  Basis Set: 6-31G*
  Basis Set:
  @DF-RHF Final Energy:  -501.03768013760418
    Total Energy =                       -501.0376801376047524
  Basis Set: 6-31G*
  Basis Set:
  @DF-RHF Final Energy:  -501.03767319922497
    Total Energy =                       -501.0376731992248551
  @DF-RHF Final Energy:  -501.03753176570183
    Total Energy =                       -501.0375317657019423
  @DF-RHF Final Energy:  -501.03769812124483
    Total Energy =                       -501.0376981212440342
  Basis Set: 6-31G*
  Basis Set:
  @DF-RHF Final Energy:  -501.03768285815397
    Total Energy =                       -501.0376828581538575
  Basis Set: 6-31G*
  Basis Set:
  Basis Set: 6-31G*
  Basis Set:
  @DF-RHF Final Energy:  -501.03769998051837
    Total Energy =                       -501.0376999805191645
  Basis Set: 6-31G*
  Basis Set:
  Basis Set: 6-31G*
  Basis Set:
  @DF-RHF Final Energy:  -501.03770428904227
    Total Energy =                       -501.0377042890422672
  Basis Set: 6-31G*
  Basis Set:
  Charge       = 0
  Multiplicity = 1
  Basis Set: 6-31G*
  Basis Set:

    Orbital Energies (a.u.)
    -----------------------

    Doubly Occupied:

       1A    -20.603324     2A    -20.545145     3A    -11.371955
       4A    -11.280627     5A    -11.234665     6A    -11.218874
       7A    -11.217168     8A    -11.216551     9A    -11.215632
      10A    -11.214986    11A    -11.208949    12A     -1.469017
      13A     -1.362458    14A     -1.097291    15A     -1.065020
      16A     -1.017358    17A     -0.976297    18A     -0.928705
      19A     -0.862460    20A     -0.819531    21A     -0.774059
      22A     -0.757267    23A     -0.700970    24A     -0.682198
      25A     -0.671855    26A     -0.648604    27A     -0.626906
      28A     -0.603526    29A     -0.598071    30A     -0.581441
      31A     -0.564399    32A     -0.553927    33A     -0.546462
      34A     -0.524014    35A     -0.515666    36A     -0.505403
      37A     -0.492189    38A     -0.484300    39A     -0.478927
      40A     -0.456748    41A     -0.449764    42A     -0.448286
      43A     -0.443118    44A     -0.436977

  @DF-RHF Final Energy:  -501.03770426455401

   => Energetics <=

    Nuclear Repulsion Energy =            615.5704442617435461
    One-Electron Energy =               -1902.2741213336767032
    Two-Electron Energy =                 785.6659728073786937
    DFT Exchange-Correlation Energy =       0.0000000000000000
    Empirical Dispersion Energy =           0.0000000000000000
    PCM Polarization Energy =               0.0000000000000000
    EFP Energy =                            0.0000000000000000
    Total Energy =                       -501.0377042645545771
    Molecular point group: c1
  Basis Set: 6-31G*
  Basis Set:

  -Total Gradient:
     Atom            X                  Y                   Z
    ------   -----------------  -----------------  -----------------
       1        0.000004709781     0.000009290178     0.000017035747
       2       -0.000016227225    -0.000022126388    -0.000047663689
       3        0.000007250137     0.000009338713     0.000023295232
       4        0.000002924694     0.000007175052     0.000014135193
       5       -0.000000820533     0.000003209988    -0.000002899091
       6        0.000011994214     0.000007213173    -0.000002450623
       7       -0.000003397075    -0.000004608144     0.000005207745
       8       -0.000007732335    -0.000013573218    -0.000004867652
       9       -0.000006617039    -0.000002077519     0.000001263282
      10        0.000002114901     0.000003677791    -0.000002549215
      11       -0.000831096912    -0.005769502206    -0.001560984129
      12        0.000015811830    -0.000001385748     0.000001041525
      13       -0.000005223651     0.000001517144     0.000003279756
      14        0.000397086930    -0.005025071577     0.002985284253
      15        0.000617777896     0.006353026406     0.000531336232
      16       -0.000003660215     0.000009157720     0.000009245269
      17       -0.000183562654     0.004423574597    -0.001995993137
      18       -0.000008615024    -0.000002988268    -0.000003867885
      19        0.000005227967     0.000004962867     0.000009619747
      20        0.000002478436    -0.000012767953     0.000024728301
      21       -0.000015116674     0.000015926904     0.000009992720
      22        0.000013142548     0.000001840284    -0.000012299800
      23       -0.000006969893    -0.000012881808     0.000008751759
      24        0.000000526958     0.000002409188    -0.000018591491
      25        0.000007255686     0.000014645226     0.000007375357
      26        0.000000300647     0.000000004384     0.000000167779
      27       -0.000000459314     0.000000135525     0.000000273258
      28        0.000000181568     0.000000064168     0.000000300660
      29        0.000000714336    -0.000000186481    -0.000000167103

  **** Optimization is complete! (in 11 steps) ****
    Final optimized geometry and variables:
    Molecular point group: c1

    Geometry (in Angstrom), charge = 0, multiplicity = 1:

    O            3.113370291647     0.621350319754    -1.061059436429
    C            2.600691234108    -0.265016733581    -0.457254584105
    C            1.159764347291    -0.307045903619    -0.009127226164
    O            3.249606212700    -1.362730006013    -0.088997645060
    C            0.367136942292     0.931538245751    -0.421763255088
    H            0.728910599398    -1.218716208250    -0.409421098828
    H            1.161005540738    -0.428635919847     1.071134396578
    C           -1.065469344540     0.959401181409     0.123622894582
    H            0.351562476824     1.002596361426    -1.505256458248
    H            0.896041471770     1.811530136336    -0.071986036955
    C           -1.976962721651    -0.132299902558    -0.455207457623
    H           -1.490492067148     1.932927678373    -0.109107799263
    H           -1.034910354161     0.892572786531     1.208201580349
    C           -3.469216634242    -0.021830735417    -0.070621341798
    H           -1.900849170264    -0.047762693075    -1.536665528898
    H           -1.599908811525    -1.111134162000    -0.174916794833
    C           -3.784105612229     0.581674414748     1.302081990534
    H           -3.923651235817    -1.006827412698    -0.141354620452
    H           -3.973289770023     0.589792252649    -0.816801638618
    C           -5.283774291314     0.581471592466     1.599252761427
    H           -3.266590704724     0.026213460717     2.082046609770
    H           -3.412787774761     1.600011227954     1.353025134472
    H           -5.492038678949     1.020586064874     2.570072694735
    H           -5.684630627065    -0.428169898562     1.599755803395
    H           -5.830801597823     1.152500242353     0.854118230824
    C            4.616817133272    -1.451319707878    -0.446425001528
    H            4.732001908890    -1.416343561883    -1.520214471019
    H            4.960956575816    -2.399706413023    -0.064157450161
    H            5.179007931311    -0.642398321681    -0.002433982122

  Mulliken Charges: (a.u.)
   Center  Symbol    Alpha    Beta     Spin     Total
       1     O     4.28598  4.28598  0.00000 -0.57196
       2     C     2.60476  2.60476  0.00000  0.79049
       3     C     3.20978  3.20978  0.00000 -0.41956
       4     O     4.30750  4.30750  0.00000 -0.61500
       5     C     3.15369  3.15369  0.00000 -0.30737
       6     H     0.39879  0.39879  0.00000  0.20242
       7     H     0.40133  0.40133  0.00000  0.19735
       8     C     3.16074  3.16074  0.00000 -0.32147
       9     H     0.41352  0.41352  0.00000  0.17296
      10     H     0.40865  0.40865  0.00000  0.18270
      11     C     3.15605  3.15605  0.00000 -0.31211
      12     H     0.41845  0.41845  0.00000  0.16310
      13     H     0.42136  0.42136  0.00000  0.15728
      14     C     3.15256  3.15256  0.00000 -0.30512
      15     H     0.42075  0.42075  0.00000  0.15850
      16     H     0.42215  0.42215  0.00000  0.15569
      17     C     3.15494  3.15494  0.00000 -0.30987
      18     H     0.42113  0.42113  0.00000  0.15775
      19     H     0.42317  0.42317  0.00000  0.15365
      20     C     3.23926  3.23926  0.00000 -0.47851
      21     H     0.42396  0.42396  0.00000  0.15208
      22     H     0.41958  0.41958  0.00000  0.16084
      23     H     0.41921  0.41921  0.00000  0.16158
      24     H     0.42184  0.42184  0.00000  0.15632
      25     H     0.42172  0.42172  0.00000  0.15655
      26     C     3.09240  3.09240  0.00000 -0.18479
      27     H     0.40909  0.40909  0.00000  0.18183
      28     H     0.40853  0.40853  0.00000  0.18295
      29     H     0.40914  0.40914  0.00000  0.18173

   Total alpha = 44.00000, Total beta = 44.00000, Total charge = -0.00000
