                              Psi4 1.0.54 Driver

  ==> Input File <==

--------------------------------------------------------------------------
set {
	reference rhf
	basis cc-pvtz
}

set_num_threads( 4 )
memory 2 gb

molecule MOL {
0 1

O	 3.029752	 1.084626	 0.728427
C	 2.841259	 0.166180	 -0.000295
C	 1.542794	 -0.614730	 -0.000853
C	 3.895334	 -0.287854	 -0.984675
C	 0.288398	 0.247429	 0.000314
H	 1.557171	 -1.273139	 -0.866508
H	 1.557484	 -1.274998	 0.863344
C	 -0.993089	 -0.581367	 -0.000217
H	 0.305153	 0.900562	 -0.864701
H	 0.305567	 0.898805	 0.866656
C	 -2.258482	 0.271340	 0.000669
H	 -1.002280	 -1.233920	 -0.870484
H	 -1.002061	 -1.235367	 0.868958
C	 -3.544441	 -0.550271	 -0.000253
H	 -2.250545	 0.925250	 -0.867923
H	 -2.250598	 0.923423	 0.870642
C	 -4.804551	 0.308747	 0.000556
H	 -3.553737	 -1.201524	 -0.870151
H	 -3.553831	 -1.203282	 0.868313
H	 -4.842050	 0.949078	 -0.874436
H	 -5.698404	 -0.304480	 -0.000254
H	 -4.842277	 0.947103	 0.876982
H	 3.509155	 -0.236007	 -1.996715
H	 4.771016	 0.336614	 -0.897432
H	 4.163592	 -1.321330	 -0.794918

	symmetry c1
}
set optking {
	frozen_dihedral = ("
		1 2 3 6
	")
}

ee,wfn = optimize('scf', return_wfn=True)
oeprop( wfn, 'DIPOLE', 'QUADRUPOLE', 'MULLIKEN_CHARGES')
f=open( 'psi4out.xyz', 'w' )
f.write( "25  " )
f.write( str(ee) + "\n" )
f.write( MOL.save_string_xyz() )
f.close()
--------------------------------------------------------------------------

    Molecular point group: c1
  Charge       = 0
  Multiplicity = 1
  Basis Set: CC-PVTZ
  Basis Set:
  @DF-RHF Final Energy:  -387.27260612784261
    Total Energy =                       -387.2726061278424368
    Molecular point group: c1
  Basis Set: CC-PVTZ
  Basis Set:
  Basis Set: CC-PVTZ
  Basis Set:
  @DF-RHF Final Energy:  -387.27248732202844
    Total Energy =                       -387.2724873220283826
  Basis Set: CC-PVTZ
  Basis Set:
  Basis Set: CC-PVTZ
  Basis Set:
  @DF-RHF Final Energy:  -387.23858006437547
    Total Energy =                       -387.2385800643751281
  Basis Set: CC-PVTZ
  Basis Set:
  Basis Set: CC-PVTZ
  Basis Set:
  @DF-RHF Final Energy:  -387.27207299952926
    Total Energy =                       -387.2720729995294278
  Basis Set: CC-PVTZ
  Basis Set:
  Basis Set: CC-PVTZ
  Basis Set:
  @DF-RHF Final Energy:  -387.27317091118965
    Total Energy =                       -387.2731709111893679
  Basis Set: CC-PVTZ
  Basis Set:
  Basis Set: CC-PVTZ
  Basis Set:
  @DF-RHF Final Energy:  -387.27319188868688
    Total Energy =                       -387.2731918886864833
  Basis Set: CC-PVTZ
  Basis Set:
  Basis Set: CC-PVTZ
  Basis Set:
  @DF-RHF Final Energy:  -387.27319490040821
    Total Energy =                       -387.2731949004082708
  Basis Set: CC-PVTZ
  Basis Set:
  Charge       = 0
  Multiplicity = 1
  Basis Set: CC-PVTZ
  Basis Set:

    Orbital Energies (a.u.)
    -----------------------

    Doubly Occupied:

       1A    -20.537140     2A    -11.320457     3A    -11.228867
       4A    -11.227318     5A    -11.219598     6A    -11.216368
       7A    -11.214452     8A    -11.212892     9A    -11.207213
      10A     -1.397853    11A     -1.096414    12A     -1.057827
      13A     -1.015423    14A     -0.971009    15A     -0.892325
      16A     -0.815649    17A     -0.792773    18A     -0.732038
      19A     -0.665552    20A     -0.651266    21A     -0.636814
      22A     -0.618124    23A     -0.600429    24A     -0.586219
      25A     -0.569367    26A     -0.560711    27A     -0.541436
      28A     -0.533609    29A     -0.512385    30A     -0.493851
      31A     -0.489502    32A     -0.473981    33A     -0.465136
      34A     -0.464485    35A     -0.453157    36A     -0.398954

  @DF-RHF Final Energy:  -387.27319504091156

   => Energetics <=

    Nuclear Repulsion Energy =            439.1285244629118552
    One-Electron Energy =               -1395.0622468160477183
    Two-Electron Energy =                 568.6605273122244171
    DFT Exchange-Correlation Energy =       0.0000000000000000
    Empirical Dispersion Energy =           0.0000000000000000
    PCM Polarization Energy =               0.0000000000000000
    EFP Energy =                            0.0000000000000000
    Total Energy =                       -387.2731950409114461
    Molecular point group: c1
  Basis Set: CC-PVTZ
  Basis Set:

  -Total Gradient:
     Atom            X                  Y                   Z
    ------   -----------------  -----------------  -----------------
       1        0.000390362617    -0.000513872688     0.001042734975
       2       -0.000425447723     0.000554180269    -0.001239166597
       3       -0.000394451179     0.000622495621    -0.000714345574
       4        0.000005005534     0.000029153841    -0.000028500189
       5        0.000007968608    -0.000010836701     0.000002932552
       6        0.000433987800    -0.000663974514     0.000917245845
       7       -0.000006387896     0.000003805178    -0.000009827610
       8       -0.000008098321     0.000014756961     0.000001686360
       9        0.000001672008     0.000001269077     0.000003495222
      10        0.000007984059    -0.000007571396    -0.000000339505
      11        0.000004854079    -0.000010875141     0.000005877919
      12       -0.000006462459     0.000000762547     0.000003012348
      13       -0.000002432103     0.000004178870    -0.000001662534
      14       -0.000005280911     0.000006973823    -0.000012023165
      15        0.000001609552     0.000000037649     0.000003188717
      16        0.000008216397    -0.000002775709     0.000000801550
      17       -0.000009403602    -0.000015458560     0.000004282575
      18       -0.000008487227    -0.000001941110     0.000001163711
      19       -0.000001233978     0.000004060161    -0.000004414943
      20        0.000002123283    -0.000001794737     0.000001721371
      21       -0.000003306944     0.000004848548    -0.000002290979
      22        0.000004256028    -0.000002007674    -0.000000168812
      23        0.000002619097    -0.000006535415     0.000010600052
      24        0.000000824151    -0.000011260589     0.000003627358
      25       -0.000000490872     0.000002381689     0.000010369352

  **** Optimization is complete! (in 8 steps) ****
    Final optimized geometry and variables:
    Molecular point group: c1

    Geometry (in Angstrom), charge = 0, multiplicity = 1:

    O            3.038897768069     1.029836998253     0.504667302126
    C            2.844842742061    -0.048271066028     0.045596219348
    C            1.500734264469    -0.739313860167     0.196382613863
    C            3.929870668744    -0.806377695892    -0.679131271682
    C            0.314824949627     0.182751849309    -0.077798916927
    H            1.461921846783    -1.622912029122    -0.430948330152
    H            1.460099349209    -1.092448376133     1.224352502969
    C           -1.029474782874    -0.496579991710     0.165561902273
    H            0.363196122446     0.530993761494    -1.106157863950
    H            0.406097865944     1.061432665488     0.547711701701
    C           -2.220977617525     0.414270511556    -0.115471441967
    H           -1.104839713724    -1.386809321315    -0.454731913452
    H           -1.075463748825    -0.839556080837     1.196450263346
    C           -3.569089621516    -0.256623141295     0.132172372981
    H           -2.175907570396     0.756757579335    -1.146596727227
    H           -2.144645685187     1.304847178987     0.503354313489
    C           -4.755215890458     0.659072998994    -0.151156700598
    H           -3.646181876151    -1.146913774511    -0.486219898509
    H           -3.616075339227    -0.597474044996     1.162866082245
    H           -4.756322969057     0.989648417231    -1.184533009955
    H           -5.695615107501     0.153061079101     0.034781106472
    H           -4.725571838588     1.543167407038     0.476924540654
    H            3.629900757620    -0.976936136896    -1.708011304214
    H            4.854014040218    -0.249720399423    -0.655324733386
    H            4.071636040336    -1.780210144097    -0.222290866599

  Mulliken Charges: (a.u.)
   Center  Symbol    Alpha    Beta     Spin     Total
       1     O     4.17514  4.17514  0.00000 -0.35027
       2     C     2.85896  2.85896  0.00000  0.28207
       3     C     3.10698  3.10698  0.00000 -0.21396
       4     C     3.15304  3.15304  0.00000 -0.30608
       5     C     3.09148  3.09148  0.00000 -0.18296
       6     H     0.44621  0.44621  0.00000  0.10757
       7     H     0.44403  0.44403  0.00000  0.11194
       8     C     3.09026  3.09026  0.00000 -0.18051
       9     H     0.45345  0.45345  0.00000  0.09309
      10     H     0.43794  0.43794  0.00000  0.12413
      11     C     3.08653  3.08653  0.00000 -0.17306
      12     H     0.45558  0.45558  0.00000  0.08885
      13     H     0.45391  0.45391  0.00000  0.09218
      14     C     3.08439  3.08439  0.00000 -0.16878
      15     H     0.45482  0.45482  0.00000  0.09036
      16     H     0.45285  0.45285  0.00000  0.09430
      17     C     3.15036  3.15036  0.00000 -0.30073
      18     H     0.45524  0.45524  0.00000  0.08951
      19     H     0.45454  0.45454  0.00000  0.09092
      20     H     0.45514  0.45514  0.00000  0.08971
      21     H     0.44847  0.44847  0.00000  0.10305
      22     H     0.45446  0.45446  0.00000  0.09108
      23     H     0.45004  0.45004  0.00000  0.09991
      24     H     0.43636  0.43636  0.00000  0.12729
      25     H     0.44981  0.44981  0.00000  0.10039

   Total alpha = 36.00000, Total beta = 36.00000, Total charge = -0.00000

*** Psi4 exiting successfully. Buy a developer a beer!
