  ==> Input File <==

--------------------------------------------------------------------------
set {
	reference rhf
	basis 6-31G*
}

set_num_threads( 1 )
memory 2 gb

molecule MOL {
0 1

O	 1.696138	 1.118290	 -0.637235
C	 1.705091	 0.115954	 0.001797
C	 0.592902	 -0.360560	 0.903926
O	 2.721346	 -0.737485	 -0.000216
C	 -0.604069	 0.584677	 0.941778
H	 0.301853	 -1.351097	 0.565045
H	 1.015994	 -0.500016	 1.895019
C	 -1.715376	 0.077365	 1.861936
H	 -0.989016	 0.714647	 -0.064757
H	 -0.274457	 1.566250	 1.267629
C	 -2.924420	 1.013126	 1.911160
H	 -2.039084	 -0.908750	 1.532107
H	 -1.322504	 -0.053198	 2.869153
C	 -4.033960	 0.506313	 2.831656
H	 -3.319644	 1.142559	 0.906080
H	 -2.602820	 1.998373	 2.241310
H	 -4.401069	 -0.463173	 2.506782
H	 -4.876387	 1.190840	 2.845460
H	 -3.678376	 0.399002	 3.852614
C	 4.024888	 -0.184556	 -0.001949
H	 4.179030	 0.422472	 -0.882452
H	 4.701782	 -1.024608	 -0.003642
H	 4.181981	 0.421185	 0.878906

	symmetry c1
}
set optking {
	frozen_dihedral = ("
		15 11 8 12,
		9 5 8 12,
		1 2 3 6,
		9 5 3 6
	")
}

ee = energy('scf')
oeprop('DIPOLE', 'QUADRUPOLE', 'MULLIKEN_CHARGES')
f=open( 'psi4out.xyz', 'w' )
f.write( "23  " )
f.write( str(ee) + "\n" )
f.write( MOL.save_string_xyz() )
f.close()
--------------------------------------------------------------------------

    Molecular point group: c1

    Geometry (in Angstrom), charge = 0, multiplicity = 1:

       Center              X                  Y                   Z               Mass
    ------------   -----------------  -----------------  -----------------  -----------------
           O          1.496261191037     0.882308310447    -1.496398441178    15.994914619560
           C          1.505214191037    -0.120027689553    -0.857366441178    12.000000000000
           C          0.393025191037    -0.596541689553     0.044762558822    12.000000000000
           O          2.521469191037    -0.973466689553    -0.859379441178    15.994914619560
           C         -0.803945808963     0.348695310447     0.082614558822    12.000000000000
           H          0.101976191037    -1.587078689553    -0.294118441178     1.007825032070
           H          0.816117191037    -0.735997689553     1.035855558822     1.007825032070
           C         -1.915252808963    -0.158616689553     1.002772558822    12.000000000000
           H         -1.188892808963     0.478665310447    -0.923920441178     1.007825032070
           H         -0.474333808963     1.330268310447     0.408465558822     1.007825032070
           C         -3.124296808963     0.777144310447     1.051996558822    12.000000000000
           H         -2.238960808963    -1.144731689553     0.672943558822     1.007825032070
           H         -1.522380808963    -0.289179689553     2.009989558822     1.007825032070
           C         -4.233836808963     0.270331310447     1.972492558822    12.000000000000
           H         -3.519520808963     0.906577310447     0.046916558822     1.007825032070
           H         -2.802696808963     1.762391310447     1.382146558822     1.007825032070
           H         -4.600945808963    -0.699154689553     1.647618558822     1.007825032070
           H         -5.076263808963     0.954858310447     1.986296558822     1.007825032070
           H         -3.878252808963     0.163020310447     2.993450558822     1.007825032070
           C          3.825011191037    -0.420537689553    -0.861112441178    12.000000000000
           H          3.979153191037     0.186490310447    -1.741615441178     1.007825032070
           H          4.501905191037    -1.260589689553    -0.862805441178     1.007825032070
           H          3.982104191037     0.185203310447     0.019742558822     1.007825032070

  Charge       = 0
  Multiplicity = 1
  Basis Set: 6-31G*
  Basis Set:

    Orbital Energies (a.u.)
    -----------------------

    Doubly Occupied:

       1A    -20.596079     2A    -20.548509     3A    -11.372881
       4A    -11.285002     5A    -11.235779     6A    -11.219194
       7A    -11.218038     8A    -11.216634     9A    -11.209826
      10A     -1.467029    11A     -1.363603    12A     -1.093173
      13A     -1.042914    14A     -0.986748    15A     -0.934734
      16A     -0.845084    17A     -0.795301    18A     -0.767516
      19A     -0.696591    20A     -0.681888    21A     -0.672172
      22A     -0.650885    23A     -0.610108    24A     -0.603196
      25A     -0.574739    26A     -0.564314    27A     -0.554495
      28A     -0.530788    29A     -0.511106    30A     -0.507760
      31A     -0.484895    32A     -0.470535    33A     -0.467202
      34A     -0.464799    35A     -0.452166    36A     -0.432029

  @DF-RHF Final Energy:  -422.96782269897153

   => Energetics <=

    Nuclear Repulsion Energy =            452.3775155373906500
    One-Electron Energy =               -1472.4353610353857675
    Two-Electron Energy =                 597.0900227990232452
    DFT Exchange-Correlation Energy =       0.0000000000000000
    Empirical Dispersion Energy =           0.0000000000000000
    PCM Polarization Energy =               0.0000000000000000
    EFP Energy =                            0.0000000000000000
    Total Energy =                       -422.9678226989718723

  Mulliken Charges: (a.u.)
   Center  Symbol    Alpha    Beta     Spin     Total
       1     O     4.27742  4.27742  0.00000 -0.55484
       2     C     2.60494  2.60494  0.00000  0.79012
       3     C     3.21000  3.21000  0.00000 -0.42000
       4     O     4.30958  4.30958  0.00000 -0.61916
       5     C     3.15309  3.15309  0.00000 -0.30618
       6     H     0.39938  0.39938  0.00000  0.20123
       7     H     0.40362  0.40362  0.00000  0.19276
       8     C     3.15317  3.15317  0.00000 -0.30634
       9     H     0.41105  0.41105  0.00000  0.17790
      10     H     0.41259  0.41259  0.00000  0.17481
      11     C     3.15152  3.15152  0.00000 -0.30304
      12     H     0.42375  0.42375  0.00000  0.15250
      13     H     0.42455  0.42455  0.00000  0.15089
      14     C     3.23957  3.23957  0.00000 -0.47915
      15     H     0.42111  0.42111  0.00000  0.15778
      16     H     0.42156  0.42156  0.00000  0.15689
      17     H     0.42170  0.42170  0.00000  0.15659
      18     H     0.41846  0.41846  0.00000  0.16309
      19     H     0.42200  0.42200  0.00000  0.15601
      20     C     3.09507  3.09507  0.00000 -0.19015
      21     H     0.40247  0.40247  0.00000  0.19505
      22     H     0.40646  0.40646  0.00000  0.18708
      23     H     0.41692  0.41692  0.00000  0.16615

   Total alpha = 36.00000, Total beta = 36.00000, Total charge = -0.00000
