                              Psi4 1.0.54 Driver

  ==> Input File <==

--------------------------------------------------------------------------
set {
	reference rhf
	basis cc-pvtz
}

set_num_threads( 4 )
memory 2 gb

molecule MOL {
0 1

H	 3.273550	 0.176575	 -0.102788
N	 2.434118	 -0.362336	 -0.080023
C	 1.263683	 0.494973	 0.021954
H	 2.497769	 -0.973635	 0.707123
C	 -0.016402	 -0.325609	 -0.026924
H	 1.281046	 1.180753	 -0.818521
H	 1.263195	 1.106873	 0.925039
C	 -1.280222	 0.525501	 0.047748
H	 -0.016555	 -0.912552	 -0.939713
H	 -0.013968	 -1.037618	 0.796370
C	 -2.560550	 -0.301343	 -0.007746
H	 -1.279826	 1.241005	 -0.770188
H	 -1.270314	 1.110506	 0.963469
H	 -2.616933	 -0.872890	 -0.928009
H	 -3.439394	 0.331082	 0.043463
H	 -2.609296	 -1.002756	 0.818586

	symmetry c1
}
ee,wfn = energy('scf', return_wfn=True)
oeprop( wfn, 'DIPOLE', 'QUADRUPOLE', 'MULLIKEN_CHARGES')
oeprop( wfn, 'GRID_ESP')
f=open( 'psi4out.xyz', 'w' )
f.write( "16  " )
f.write( str(ee) + "\n" )
f.write( MOL.save_string_xyz() )
f.close()
--------------------------------------------------------------------------

    Molecular point group: c1

    Geometry (in Angstrom), charge = 0, multiplicity = 1:

       Center              X                  Y                   Z               Mass
    ------------   -----------------  -----------------  -----------------  -----------------
           H          3.273418879779     0.176595425090    -0.102789150428     1.007825032070
           N          2.433986879779    -0.362315574910    -0.080024150428    14.003074004780
           C          1.263551879779     0.494993425090     0.021952849572    12.000000000000
           H          2.497637879779    -0.973614574910     0.707121849572     1.007825032070
           C         -0.016533120221    -0.325588574910    -0.026925150428    12.000000000000
           H          1.280914879779     1.180773425090    -0.818522150428     1.007825032070
           H          1.263063879779     1.106893425090     0.925037849572     1.007825032070
           C         -1.280353120221     0.525521425090     0.047746849572    12.000000000000
           H         -0.016686120221    -0.912531574910    -0.939714150428     1.007825032070
           H         -0.014099120221    -1.037597574910     0.796368849572     1.007825032070
           C         -2.560681120221    -0.301322574910    -0.007747150428    12.000000000000
           H         -1.279957120221     1.241025425090    -0.770189150428     1.007825032070
           H         -1.270445120221     1.110526425090     0.963467849572     1.007825032070
           H         -2.617064120221    -0.872869574910    -0.928010150428     1.007825032070
           H         -3.439525120221     0.331102425090     0.043461849572     1.007825032070
           H         -2.609427120221    -1.002735574910     0.818584849572     1.007825032070

  Charge       = 0
  Multiplicity = 1
  Basis Set: CC-PVTZ
  Basis Set:

    Orbital Energies (a.u.)
    -----------------------

    Doubly Occupied:

       1A    -15.526522     2A    -11.238066     3A    -11.212968
       4A    -11.207905     5A    -11.205911     6A     -1.178299
       7A     -1.060840     8A     -0.959787     9A     -0.844165
      10A     -0.792411    11A     -0.665448    12A     -0.638609
      13A     -0.606645    14A     -0.576538    15A     -0.565542
      16A     -0.525579    17A     -0.500696    18A     -0.470315
      19A     -0.465453    20A     -0.462645    21A     -0.383995

  @DF-RHF Final Energy:  -212.40032740691572

   => Energetics <=

    Nuclear Repulsion Energy =            186.5664753533906151
    One-Electron Energy =                -655.7575049138956729
    Two-Electron Energy =                 256.7907021535892227
    DFT Exchange-Correlation Energy =       0.0000000000000000
    Empirical Dispersion Energy =           0.0000000000000000
    PCM Polarization Energy =               0.0000000000000000
    EFP Energy =                            0.0000000000000000
    Total Energy =                       -212.4003274069158351

  Mulliken Charges: (a.u.)
   Center  Symbol    Alpha    Beta     Spin     Total
       1     H     0.43018  0.43018  0.00000  0.13964
       2     N     3.68930  3.68930  0.00000 -0.37860
       3     C     3.02607  3.02607  0.00000 -0.05215
       4     H     0.43093  0.43093  0.00000  0.13814
       5     C     3.08006  3.08006  0.00000 -0.16012
       6     H     0.45717  0.45717  0.00000  0.08567
       7     H     0.46885  0.46885  0.00000  0.06231
       8     C     3.08846  3.08846  0.00000 -0.17692
       9     H     0.44942  0.44942  0.00000  0.10117
      10     H     0.46073  0.46073  0.00000  0.07853
      11     C     3.14927  3.14927  0.00000 -0.29854
      12     H     0.45472  0.45472  0.00000  0.09055
      13     H     0.45642  0.45642  0.00000  0.08716
      14     H     0.45416  0.45416  0.00000  0.09167
      15     H     0.44879  0.44879  0.00000  0.10243
      16     H     0.45547  0.45547  0.00000  0.08907

   Total alpha = 21.00000, Total beta = 21.00000, Total charge =  0.00000

*** Psi4 exiting successfully. Buy a developer a beer!
