  ==> Input File <==

--------------------------------------------------------------------------
set {
	reference rhf
	basis 6-31G*
}

set_num_threads( 4 )
memory 2 gb

molecule MOL {
0 1

O	 -2.821601	 1.309235	 -0.001213
C	 -2.668563	 0.129746	 -0.000350
C	 -3.801572	 -0.864014	 -0.000442
O	 -1.481751	 -0.454642	 0.000584
H	 -4.417280	 -0.689587	 -0.874708
H	 -3.443784	 -1.883046	 -0.000565
H	 -4.417179	 -0.689832	 0.873954
C	 -0.334255	 0.388708	 0.000906
C	 0.891947	 -0.504646	 0.000751
H	 -0.365390	 1.025305	 -0.873475
H	 -0.365484	 1.024911	 0.875569
C	 2.191998	 0.301789	 0.000897
H	 0.855148	 -1.151283	 -0.871571
H	 0.855132	 -1.151660	 0.872805
C	 3.441114	 -0.581407	 0.000108
H	 2.215074	 0.954890	 -0.869742
H	 2.215465	 0.953923	 0.872248
C	 4.258786	 -0.454730	 -1.284505
H	 3.147376	 -1.619198	 0.140761
H	 4.064863	 -0.322222	 0.852652
H	 3.671753	 -0.739960	 -2.152866
H	 5.136850	 -1.092209	 -1.255196
H	 4.596416	 0.566657	 -1.435452

	symmetry c1
}
set optking {
	frozen_dihedral = ("
		19 15 12 16
	")
}

ee = optimize('scf')
oeprop('DIPOLE', 'QUADRUPOLE', 'MULLIKEN_CHARGES')
f=open( 'psi4out.xyz', 'w' )
f.write( "23  " )
f.write( str(ee) + "\n" )
f.write( MOL.save_string_xyz() )
f.close()
--------------------------------------------------------------------------

    Molecular point group: c1
  Charge       = 0
  Multiplicity = 1
  Basis Set: 6-31G*
  Basis Set:
  @DF-RHF Final Energy:  -422.97367816611154
    Total Energy =                       -422.9736781661110854
    Molecular point group: c1
  Basis Set: 6-31G*
  Basis Set:
  Basis Set: 6-31G*
  Basis Set:
  @DF-RHF Final Energy:  -422.97392622753006
    Total Energy =                       -422.9739262275302281
  Basis Set: 6-31G*
  Basis Set:
  Basis Set: 6-31G*
  Basis Set:
  @DF-RHF Final Energy:  -422.97401237699211
    Total Energy =                       -422.9740123769920501
  Basis Set: 6-31G*
  Basis Set:
  Basis Set: 6-31G*
  Basis Set:
  @DF-RHF Final Energy:  -422.97385100858577
    Total Energy =                       -422.9738510085858252
  Basis Set: 6-31G*
  Basis Set:
  Basis Set: 6-31G*
  Basis Set:
  @DF-RHF Final Energy:  -422.97401787576337
    Total Energy =                       -422.9740178757627973
  Basis Set: 6-31G*
  Basis Set:
  Charge       = 0
  Multiplicity = 1
  Basis Set: 6-31G*
  Basis Set:

    Orbital Energies (a.u.)
    -----------------------

    Doubly Occupied:

       1A    -20.603034     2A    -20.540552     3A    -11.374100
       4A    -11.281284     5A    -11.232403     6A    -11.224661
       7A    -11.223680     8A    -11.221437     9A    -11.213376
      10A     -1.467960    11A     -1.360750    12A     -1.092601
      13A     -1.040988    14A     -1.002966    15A     -0.930340
      16A     -0.844617    17A     -0.801166    18A     -0.774052
      19A     -0.691329    20A     -0.685284    21A     -0.669085
      22A     -0.636264    23A     -0.612907    24A     -0.594605
      25A     -0.580754    26A     -0.571220    27A     -0.549391
      28A     -0.532079    29A     -0.527747    30A     -0.503988
      31A     -0.499639    32A     -0.474996    33A     -0.464899
      34A     -0.463946    35A     -0.451353    36A     -0.435223

  @DF-RHF Final Energy:  -422.97401779725766

   => Energetics <=

    Nuclear Repulsion Energy =            451.1690252600520239
    One-Electron Energy =               -1469.9367384505999325
    Two-Electron Energy =                 595.7936953932902497
    DFT Exchange-Correlation Energy =       0.0000000000000000
    Empirical Dispersion Energy =           0.0000000000000000
    PCM Polarization Energy =               0.0000000000000000
    EFP Energy =                            0.0000000000000000
    Total Energy =                       -422.9740177972577158
    Molecular point group: c1
  Basis Set: 6-31G*
  Basis Set:

  -Total Gradient:
     Atom            X                  Y                   Z
    ------   -----------------  -----------------  -----------------
       1       -0.000000094367    -0.000002153157    -0.000049105007
       2       -0.000014822101    -0.000004508601     0.000132488996
       3       -0.000002120961     0.000002206743    -0.000041471079
       4       -0.000008768235     0.000008304679    -0.000043837602
       5       -0.000007289452    -0.000007000912    -0.000000647605
       6        0.000000724098     0.000000690025    -0.000002309869
       7        0.000005587908     0.000006065859    -0.000000600560
       8        0.000004627069    -0.000004814799    -0.000022766276
       9        0.000047960963    -0.000002373567     0.000033356377
      10       -0.000003386353     0.000010363176     0.000002450592
      11        0.000002302125    -0.000005872384    -0.000004209661
      12        0.000781382327     0.001072618513     0.000555000776
      13        0.000008730344    -0.000014835515     0.000013655335
      14       -0.000021107538     0.000009275947     0.000009632709
      15        0.000009911773    -0.000027190458     0.001432371934
      16       -0.000653236747    -0.000918508369    -0.000717085323
      17        0.000027888111    -0.000020071894     0.000016603672
      18       -0.000016746380     0.000020024307     0.000009640203
      19       -0.000148585515    -0.000144856347    -0.001330344277
      20       -0.000018677218     0.000023228689     0.000002361105
      21       -0.000000889739     0.000012666499     0.000002737082
      22       -0.000004610754    -0.000011681608     0.000005047474
      23        0.000011220651    -0.000001576825    -0.000002968999

  **** Optimization is complete! (in 6 steps) ****
    Final optimized geometry and variables:
    Molecular point group: c1

    Geometry (in Angstrom), charge = 0, multiplicity = 1:

    O           -2.768925821475     1.385488831250     0.123259159016
    C           -2.613814301732     0.206352065374     0.137030567054
    C           -3.745110224025    -0.789365766121     0.137811517335
    O           -1.426061766304    -0.375946585195     0.152566106034
    H           -4.354594774765    -0.624229415876    -0.742592052127
    H           -3.385603979599    -1.807724048169     0.149946561815
    H           -4.367501843758    -0.608074661349     1.005938176630
    C           -0.279903694063     0.469295139854     0.153167115939
    C            0.947699048950    -0.421387566814     0.173020647182
    H           -0.304885174075     1.096601200615    -0.728179325626
    H           -0.319268305250     1.115012982267     1.020623536003
    C            2.248087284489     0.387281569515     0.179783217196
    H            0.922356164599    -1.075489003017    -0.694623597335
    H            0.904065201242    -1.061704054519     1.049573518836
    C            3.511941434774    -0.501766709688     0.151091991224
    H            2.250440188431     1.048700203715    -0.683649050088
    H            2.262575612701     1.030410059761     1.055516479288
    C            4.303705426590    -0.382400352745    -1.152140493771
    H            3.228083458597    -1.541814030819     0.288104357591
    H            4.161435617790    -0.251990043454     0.984314380090
    H            3.689646281432    -0.647598171975    -2.008551843708
    H            5.168001455915    -1.039392915372    -1.148593905935
    H            4.658889003690     0.632871276324    -1.303068724779

  Mulliken Charges: (a.u.)
   Center  Symbol    Alpha    Beta     Spin     Total
       1     O     4.28390  4.28390  0.00000 -0.56779
       2     C     2.61533  2.61533  0.00000  0.76933
       3     C     3.28774  3.28774  0.00000 -0.57547
       4     O     4.31256  4.31256  0.00000 -0.62512
       5     H     0.39749  0.39749  0.00000  0.20502
       6     H     0.39988  0.39988  0.00000  0.20025
       7     H     0.39751  0.39751  0.00000  0.20499
       8     C     2.99633  2.99633  0.00000  0.00734
       9     C     3.16685  3.16685  0.00000 -0.33371
      10     H     0.41066  0.41066  0.00000  0.17867
      11     H     0.41072  0.41072  0.00000  0.17856
      12     C     3.16406  3.16406  0.00000 -0.32812
      13     H     0.41443  0.41443  0.00000  0.17115
      14     H     0.41368  0.41368  0.00000  0.17265
      15     C     3.15505  3.15505  0.00000 -0.31010
      16     H     0.41816  0.41816  0.00000  0.16369
      17     H     0.41760  0.41760  0.00000  0.16479
      18     C     3.24045  3.24045  0.00000 -0.48089
      19     H     0.41856  0.41856  0.00000  0.16287
      20     H     0.41795  0.41795  0.00000  0.16409
      21     H     0.42166  0.42166  0.00000  0.15669
      22     H     0.41912  0.41912  0.00000  0.16176
      23     H     0.42032  0.42032  0.00000  0.15937

   Total alpha = 36.00000, Total beta = 36.00000, Total charge =  0.00000
