                              Psi4 1.0.54 Driver

  ==> Input File <==

--------------------------------------------------------------------------
set {
	reference rhf
	basis cc-pvtz
}

set_num_threads( 4 )
memory 2 gb

molecule MOL {
0 1

H	 1.808835	 2.458156	 -0.049904
N	 0.977957	 1.912358	 -0.135559
C	 1.263552	 0.494993	 0.021953
H	 0.593757	 2.100334	 -1.037995
C	 -0.016533	 -0.325589	 -0.026925
H	 1.739298	 0.358143	 0.987319
H	 1.960836	 0.116784	 -0.726871
C	 -1.280353	 0.525521	 0.047747
H	 -0.016686	 -0.912532	 -0.939714
H	 -0.014099	 -1.037598	 0.796369
C	 -2.560681	 -0.301323	 -0.007747
H	 -1.279957	 1.241025	 -0.770189
H	 -1.270445	 1.110526	 0.963468
H	 -2.617064	 -0.872870	 -0.928010
H	 -3.439525	 0.331102	 0.043462
H	 -2.609427	 -1.002736	 0.818585

	symmetry c1
}
set optking {
	frozen_dihedral = ("
		6 3 5 9
	")
}

ee,wfn = optimize('scf', return_wfn=True)
oeprop( wfn, 'DIPOLE', 'QUADRUPOLE', 'MULLIKEN_CHARGES')
f=open( 'psi4out.xyz', 'w' )
f.write( "16  " )
f.write( str(ee) + "\n" )
f.write( MOL.save_string_xyz() )
f.close()
--------------------------------------------------------------------------

    Molecular point group: c1
  Charge       = 0
  Multiplicity = 1
  Basis Set: CC-PVTZ
  Basis Set:
  @DF-RHF Final Energy:  -212.38849302147213
    Total Energy =                       -212.3884930214722431
    Molecular point group: c1
  Basis Set: CC-PVTZ
  Basis Set:
  Basis Set: CC-PVTZ
  Basis Set:
  @DF-RHF Final Energy:  -212.38922830807539
    Total Energy =                       -212.3892283080755305
  Basis Set: CC-PVTZ
  Basis Set:
  Basis Set: CC-PVTZ
  Basis Set:
  @DF-RHF Final Energy:  -212.39157704845314
    Total Energy =                       -212.3915770484530299
  Basis Set: CC-PVTZ
  Basis Set:
  Basis Set: CC-PVTZ
  Basis Set:
  @DF-RHF Final Energy:  -212.39180283924460
    Total Energy =                       -212.3918028392448036
  Basis Set: CC-PVTZ
  Basis Set:
  Basis Set: CC-PVTZ
  Basis Set:
  @DF-RHF Final Energy:  -212.39181863225704
    Total Energy =                       -212.3918186322570705
  Basis Set: CC-PVTZ
  Basis Set:
  Basis Set: CC-PVTZ
  Basis Set:
  @DF-RHF Final Energy:  -212.39182616440141
    Total Energy =                       -212.3918261644011523
  Basis Set: CC-PVTZ
  Basis Set:
  Charge       = 0
  Multiplicity = 1
  Basis Set: CC-PVTZ
  Basis Set:

    Orbital Energies (a.u.)
    -----------------------

    Doubly Occupied:

       1A    -15.527398     2A    -11.239344     3A    -11.208382
       4A    -11.205291     5A    -11.201332     6A     -1.178082
       7A     -1.052901     8A     -0.957714     9A     -0.851045
      10A     -0.777500    11A     -0.668799    12A     -0.629335
      13A     -0.608609    14A     -0.577692    15A     -0.558229
      16A     -0.524228    17A     -0.498736    18A     -0.468536
      19A     -0.463888    20A     -0.451458    21A     -0.380820

  @DF-RHF Final Energy:  -212.39182777806613

   => Energetics <=

    Nuclear Repulsion Energy =            189.1795767939719610
    One-Electron Energy =                -661.0841674938536698
    Two-Electron Energy =                 259.5127629218157495
    DFT Exchange-Correlation Energy =       0.0000000000000000
    Empirical Dispersion Energy =           0.0000000000000000
    PCM Polarization Energy =               0.0000000000000000
    EFP Energy =                            0.0000000000000000
    Total Energy =                       -212.3918277780659878
    Molecular point group: c1
  Basis Set: CC-PVTZ
  Basis Set:

  -Total Gradient:
     Atom            X                  Y                   Z
    ------   -----------------  -----------------  -----------------
       1       -0.000016288337    -0.000031343941    -0.000011609783
       2       -0.000013240146     0.000031952189     0.000020242595
       3       -0.002344885268     0.003838238993     0.003039739634
       4       -0.000000212682    -0.000003612080    -0.000004373908
       5       -0.001867875257     0.004133931780    -0.003145924969
       6        0.002288719969    -0.003929030441    -0.002062129122
       7       -0.000010395006     0.000012367972     0.000005561464
       8       -0.000001889854     0.000007490685     0.000027087194
       9        0.001962125874    -0.004073829376     0.002134035384
      10       -0.000001133320     0.000021396245     0.000000405594
      11       -0.000007792094    -0.000005391885    -0.000010314866
      12       -0.000000139372    -0.000031656995     0.000019900144
      13       -0.000003386850     0.000008561284    -0.000010027994
      14        0.000002861251     0.000004708982     0.000010498880
      15        0.000006205382    -0.000002523914    -0.000000730549
      16        0.000007325708     0.000018740501    -0.000012359699

  **** Optimization is complete! (in 7 steps) ****
    Final optimized geometry and variables:
    Molecular point group: c1

    Geometry (in Angstrom), charge = 0, multiplicity = 1:

    H            2.373757294780     1.808540750592     0.137609481172
    N            1.486253718521     1.396283218906    -0.057036144341
    C            1.568011755919    -0.052395476909     0.048353466966
    H            1.231840404415     1.677066342989    -0.980799831482
    C            0.208728274822    -0.774031334712    -0.084564469628
    H            2.009841451295    -0.297907679921     1.006431743007
    H            2.246960277568    -0.478259506140    -0.690239155969
    C           -1.041245932808     0.080920315496     0.102792640052
    H            0.166334416683    -1.295810727112    -1.036511021077
    H            0.186921171684    -1.568631065167     0.656426349998
    C           -2.318953590863    -0.750011288133     0.037351549290
    H           -1.081419370717     0.856410910493    -0.653797356619
    H           -0.987239303543     0.597057032753     1.054145659852
    H           -2.410856470781    -1.257323142762    -0.917771129890
    H           -3.196911307535    -0.127101038787     0.165417645730
    H           -2.335777406705    -1.507615943646     0.814053134358

  Mulliken Charges: (a.u.)
   Center  Symbol    Alpha    Beta     Spin     Total
       1     H     0.42911  0.42911  0.00000  0.14179
       2     N     3.68442  3.68442  0.00000 -0.36885
       3     C     3.03512  3.03512  0.00000 -0.07025
       4     H     0.43226  0.43226  0.00000  0.13548
       5     C     3.10053  3.10053  0.00000 -0.20106
       6     H     0.45575  0.45575  0.00000  0.08851
       7     H     0.46217  0.46217  0.00000  0.07566
       8     C     3.07333  3.07333  0.00000 -0.14665
       9     H     0.45286  0.45286  0.00000  0.09429
      10     H     0.45457  0.45457  0.00000  0.09085
      11     C     3.15167  3.15167  0.00000 -0.30334
      12     H     0.45820  0.45820  0.00000  0.08360
      13     H     0.44800  0.44800  0.00000  0.10400
      14     H     0.45721  0.45721  0.00000  0.08559
      15     H     0.44871  0.44871  0.00000  0.10259
      16     H     0.45611  0.45611  0.00000  0.08779

   Total alpha = 21.00000, Total beta = 21.00000, Total charge =  0.00000

*** Psi4 exiting successfully. Buy a developer a beer!
