  ==> Input File <==

--------------------------------------------------------------------------
set {
	reference rhf
	basis cc-pvtz
}

set_num_threads( 4 )
memory 2 gb

molecule MOL {
0 1

H	 3.003058	 -0.856456	 1.450991
O	 2.094336	 -1.085114	 1.524237
C	 1.324647	 -0.284267	 0.761550
C	 1.856895	 0.733985	 -0.014694
C	 -0.037500	 -0.504516	 0.769757
H	 2.918234	 0.904166	 -0.019902
C	 1.027258	 1.528503	 -0.779809
H	 -0.451624	 -1.290134	 1.368212
C	 -0.861704	 0.296439	 0.000000
H	 1.450299	 2.313293	 -1.376436
C	 -0.336456	 1.314737	 -0.777179
C	 -2.330689	 0.069587	 0.000000
H	 -0.984089	 1.930937	 -1.371113
O	 -2.848621	 -0.993976	 0.000000
H	 -2.934306	 0.982410	 0.000000

	symmetry c1
}
set optking {
	frozen_dihedral = ("
		11 9 12 14
	")
}

ee = optimize('scf')
oeprop('DIPOLE', 'QUADRUPOLE', 'MULLIKEN_CHARGES')
f=open( 'psi4out.xyz', 'w' )
f.write( "15  " )
f.write( str(ee) + "\n" )
f.write( MOL.save_string_xyz() )
f.close()
--------------------------------------------------------------------------

    Molecular point group: c1
  Charge       = 0
  Multiplicity = 1
  Basis Set: CC-PVTZ
  Basis Set:
  @DF-RHF Final Energy:  -418.43416618537321
    Total Energy =                       -418.4341661853732148
    Molecular point group: c1
  Basis Set: CC-PVTZ
  Basis Set:
  Basis Set: CC-PVTZ
  Basis Set:
  @DF-RHF Final Energy:  -418.43238934456343
    Total Energy =                       -418.4323893445629210
  Basis Set: CC-PVTZ
  Basis Set:
  Basis Set: CC-PVTZ
  Basis Set:
  @DF-RHF Final Energy:  -418.43460369661108
    Total Energy =                       -418.4346036966114752
  Basis Set: CC-PVTZ
  Basis Set:
  Basis Set: CC-PVTZ
  Basis Set:
  @DF-RHF Final Energy:  -418.43471174199703
    Total Energy =                       -418.4347117419970346
  Basis Set: CC-PVTZ
  Basis Set:
  Basis Set: CC-PVTZ
  Basis Set:
  @DF-RHF Final Energy:  -418.43471294187913
    Total Energy =                       -418.4347129418786153
  Basis Set: CC-PVTZ
  Basis Set:
  Charge       = 0
  Multiplicity = 1
  Basis Set: CC-PVTZ
  Basis Set:

    Orbital Energies (a.u.)
    -----------------------

    Doubly Occupied:

       1A    -20.595716     2A    -20.557817     3A    -11.329398
       4A    -11.311611     5A    -11.252495     6A    -11.250467
       7A    -11.244458     8A    -11.241095     9A    -11.237266
      10A     -1.427531    11A     -1.413062    12A     -1.173477
      13A     -1.051427    14A     -1.029781    15A     -0.902241
      16A     -0.848830    17A     -0.818146    18A     -0.740901
      19A     -0.705417    20A     -0.688162    21A     -0.649600
      22A     -0.642843    23A     -0.616057    24A     -0.607736
      25A     -0.582902    26A     -0.550892    27A     -0.542515
      28A     -0.516805    29A     -0.494077    30A     -0.427283
      31A     -0.357790    32A     -0.329733

  @DF-RHF Final Energy:  -418.43471325998388

   => Energetics <=

    Nuclear Repulsion Energy =            403.9616200660919390
    One-Electron Energy =               -1370.5176112145795742
    Two-Electron Energy =                 548.1212778885037551
    DFT Exchange-Correlation Energy =       0.0000000000000000
    Empirical Dispersion Energy =           0.0000000000000000
    PCM Polarization Energy =               0.0000000000000000
    EFP Energy =                            0.0000000000000000
    Total Energy =                       -418.4347132599839370
    Molecular point group: c1
  Basis Set: CC-PVTZ
  Basis Set:

  -Total Gradient:
     Atom            X                  Y                   Z
    ------   -----------------  -----------------  -----------------
       1       -0.000005387080     0.000017168571     0.000013713724
       2        0.000002314204    -0.000012582568    -0.000029120098
       3       -0.000027083360    -0.000012597739     0.000013991348
       4       -0.000006179801     0.000035008481    -0.000004272888
       5        0.000034955226     0.000003126837     0.000037690278
       6        0.000002202751    -0.000004879303    -0.000002573102
       7        0.000046106558    -0.000029331628    -0.000004038016
       8       -0.000003537385     0.000004388890    -0.000001236578
       9       -0.000880385002     0.004496828477     0.002427262177
      10       -0.000000057502    -0.000001295999     0.000001799159
      11        0.000636444538    -0.003160271814    -0.003528997858
      12       -0.000006355160    -0.001143981432     0.007068362458
      13       -0.000000079530    -0.000003103090    -0.000005290468
      14        0.000209138212    -0.000177182269    -0.005986127906
      15       -0.000002096675    -0.000011295419    -0.000001162230

  **** Optimization is complete! (in 6 steps) ****
    Final optimized geometry and variables:
    Molecular point group: c1

    Geometry (in Angstrom), charge = 0, multiplicity = 1:

    H            3.013106395412    -0.948426901852     1.224571378430
    O            2.101914088943    -1.160134412395     1.317734752777
    C            1.333739300823    -0.353691155631     0.560546761622
    C            1.866804791501     0.652947970911    -0.227613059248
    C           -0.031575768853    -0.564832491747     0.580843954401
    H            2.929842058011     0.810357109374    -0.250099254174
    C            1.033151916390     1.451644971006    -0.985283187500
    H           -0.438579623663    -1.363566129084     1.167513040486
    C           -0.858493689209     0.256188117025    -0.161204566662
    H            1.456378604773     2.222112341046    -1.600363192162
    C           -0.333562062703     1.265073830847    -0.951618247249
    C           -2.324793278719    -0.006839877137    -0.206253673938
    H           -0.982147536772     1.892623252536    -1.532845964833
    O           -2.806639747941    -1.086126674146    -0.191991615591
    H           -2.953499172825     0.882405794772    -0.317714660769

  Mulliken Charges: (a.u.)
   Center  Symbol    Alpha    Beta     Spin     Total
       1     H     0.38700  0.38700  0.00000  0.22600
       2     O     4.17022  4.17022  0.00000 -0.34044
       3     C     2.83947  2.83947  0.00000  0.32106
       4     C     3.13124  3.13124  0.00000 -0.26248
       5     C     3.12312  3.12312  0.00000 -0.24625
       6     H     0.43182  0.43182  0.00000  0.13635
       7     C     3.06080  3.06080  0.00000 -0.12161
       8     H     0.40945  0.40945  0.00000  0.18111
       9     C     2.95025  2.95025  0.00000  0.09949
      10     H     0.41948  0.41948  0.00000  0.16104
      11     C     3.11274  3.11274  0.00000 -0.22549
      12     C     2.92129  2.92129  0.00000  0.15742
      13     H     0.42405  0.42405  0.00000  0.15190
      14     O     4.16266  4.16266  0.00000 -0.32532
      15     H     0.45640  0.45640  0.00000  0.08721

   Total alpha = 32.00000, Total beta = 32.00000, Total charge =  0.00000
