                              Psi4 1.0.54 Driver

  ==> Input File <==

--------------------------------------------------------------------------
set {
	reference rhf
	basis cc-pvtz
}

set_num_threads( 4 )
memory 2 gb

molecule MOL {
0 1

H	 -2.602485	 1.243128	 1.085271
O	 -1.778596	 0.782128	 1.134307
C	 -1.605397	 0.107680	 0.001145
C	 -0.310616	 -0.658853	 0.000791
O	 -2.400551	 0.132701	 -0.873540
C	 0.926581	 0.227233	 0.000178
H	 -0.327628	 -1.313681	 -0.864448
H	 -0.327041	 -1.313334	 0.866298
C	 2.220156	 -0.582071	 -0.000088
H	 0.899945	 0.878221	 -0.866390
H	 0.900542	 0.878581	 0.866486
C	 3.466689	 0.296012	 -0.000457
H	 2.239073	 -1.234095	 -0.869382
H	 2.239505	 -1.233985	 0.869270
H	 3.493549	 0.935857	 -0.875887
H	 4.368821	 -0.304526	 -0.001199
H	 3.494559	 0.935166	 0.875458

	symmetry c1
}
set optking {
	frozen_dihedral = ("
		2 3 4 7
	")
}

ee,wfn = optimize('scf', return_wfn=True)
oeprop( wfn, 'DIPOLE', 'QUADRUPOLE', 'MULLIKEN_CHARGES')
f=open( 'psi4out.xyz', 'w' )
f.write( "17  " )
f.write( str(ee) + "\n" )
f.write( MOL.save_string_xyz() )
f.close()
--------------------------------------------------------------------------

    Molecular point group: c1
  Charge       = 0
  Multiplicity = 1
  Basis Set: CC-PVTZ
  Basis Set:
  @DF-RHF Final Energy:  -345.04725224408531
    Total Energy =                       -345.0472522440853709
    Molecular point group: c1
  Basis Set: CC-PVTZ
  Basis Set:
  Basis Set: CC-PVTZ
  Basis Set:
  @DF-RHF Final Energy:  -345.04760602114686
    Total Energy =                       -345.0476060211470895
  Basis Set: CC-PVTZ
  Basis Set:
  Basis Set: CC-PVTZ
  Basis Set:
  @DF-RHF Final Energy:  -345.04756203321762
    Total Energy =                       -345.0475620332177300
  Basis Set: CC-PVTZ
  Basis Set:
  Basis Set: CC-PVTZ
  Basis Set:
  @DF-RHF Final Energy:  -345.04762732765647
    Total Energy =                       -345.0476273276560732
  Basis Set: CC-PVTZ
  Basis Set:
  Basis Set: CC-PVTZ
  Basis Set:
  @DF-RHF Final Energy:  -345.04765694640594
    Total Energy =                       -345.0476569464059367
  Basis Set: CC-PVTZ
  Basis Set:
  Charge       = 0
  Multiplicity = 1
  Basis Set: CC-PVTZ
  Basis Set:

    Orbital Energies (a.u.)
    -----------------------

    Doubly Occupied:

       1A    -20.604445     2A    -20.539106     3A    -11.372350
       4A    -11.237799     5A    -11.230639     6A    -11.224695
       7A    -11.214245     8A     -1.477043     9A     -1.367807
      10A     -1.096555    11A     -1.021237    12A     -0.911852
      13A     -0.824803    14A     -0.808050    15A     -0.705528
      16A     -0.684909    17A     -0.654316    18A     -0.641809
      19A     -0.589919    20A     -0.587284    21A     -0.581697
      22A     -0.538354    23A     -0.516499    24A     -0.497543
      25A     -0.487308    26A     -0.479151    27A     -0.474770
      28A     -0.437825

  @DF-RHF Final Energy:  -345.04765718129687

   => Energetics <=

    Nuclear Repulsion Energy =            305.4916739809198702
    One-Electron Energy =               -1075.4635903333949045
    Two-Electron Energy =                 424.9242591711779369
    DFT Exchange-Correlation Energy =       0.0000000000000000
    Empirical Dispersion Energy =           0.0000000000000000
    PCM Polarization Energy =               0.0000000000000000
    EFP Energy =                            0.0000000000000000
    Total Energy =                       -345.0476571812971542
    Molecular point group: c1
  Basis Set: CC-PVTZ
  Basis Set:

  -Total Gradient:
     Atom            X                  Y                   Z
    ------   -----------------  -----------------  -----------------
       1        0.000009041183    -0.000015440020    -0.000021921225
       2        0.000132406341     0.000131823676    -0.000054822565
       3       -0.000086669514    -0.000124782899     0.000155518186
       4       -0.000105543619    -0.000136753353     0.000112238285
       5       -0.000042384221    -0.000028409690    -0.000094630713
       6       -0.000016338452     0.000012194009     0.000002832602
       7        0.000090890016     0.000169070650    -0.000122665800
       8        0.000005181962     0.000007568733     0.000000291837
       9        0.000009213548    -0.000012277450     0.000021489495
      10        0.000004756190     0.000008767685     0.000011312677
      11       -0.000002744932    -0.000008924023     0.000006581713
      12       -0.000002639957    -0.000001462921    -0.000016642808
      13       -0.000007857941    -0.000008073904     0.000002240878
      14        0.000008634657     0.000005798727     0.000006812146
      15        0.000001786575     0.000007088934    -0.000002560713
      16        0.000004706795    -0.000000494326    -0.000007866784
      17       -0.000002438633    -0.000005693828     0.000001792794

  **** Optimization is complete! (in 6 steps) ****
    Final optimized geometry and variables:
    Molecular point group: c1

    Geometry (in Angstrom), charge = 0, multiplicity = 1:

    H           -2.637268300657     1.202812504344     1.025180011875
    O           -1.831795713705     0.713180797298     1.097390702782
    C           -1.638856105670     0.051740973766    -0.040569769240
    C           -0.363732307346    -0.745318907867    -0.033998929257
    O           -2.403239367355     0.115163279268    -0.941056635893
    C            0.881595799733     0.147662271096    -0.036782419875
    H           -0.379479340709    -1.378860940623    -0.908716167495
    H           -0.361856841231    -1.373803487261     0.849389936723
    C            2.173620792317    -0.663436543027    -0.063006099516
    H            0.848429394070     0.801815814044    -0.903136266436
    H            0.869027287492     0.786047757769     0.839171945272
    C            3.421506929161     0.212555439648    -0.077948889120
    H            2.175146596237    -1.309372734756    -0.936218161491
    H            2.202640742793    -1.318910584472     0.802926544674
    H            3.436924837229     0.856579816678    -0.950637068417
    H            4.321621378991    -0.390505365032    -0.096113793258
    H            3.465134030475     0.846463939508     0.801183520179

  Mulliken Charges: (a.u.)
   Center  Symbol    Alpha    Beta     Spin     Total
       1     H     0.38057  0.38057  0.00000  0.23885
       2     O     4.16407  4.16407  0.00000 -0.32813
       3     C     2.80718  2.80718  0.00000  0.38564
       4     C     3.08620  3.08620  0.00000 -0.17240
       5     O     4.19522  4.19522  0.00000 -0.39045
       6     C     3.09973  3.09973  0.00000 -0.19946
       7     H     0.43655  0.43655  0.00000  0.12690
       8     H     0.44414  0.44414  0.00000  0.11172
       9     C     3.08733  3.08733  0.00000 -0.17466
      10     H     0.44700  0.44700  0.00000  0.10601
      11     H     0.44297  0.44297  0.00000  0.11405
      12     C     3.14918  3.14918  0.00000 -0.29836
      13     H     0.45203  0.45203  0.00000  0.09593
      14     H     0.45316  0.45316  0.00000  0.09368
      15     H     0.45355  0.45355  0.00000  0.09290
      16     H     0.44710  0.44710  0.00000  0.10579
      17     H     0.45401  0.45401  0.00000  0.09197

   Total alpha = 28.00000, Total beta = 28.00000, Total charge = -0.00000

*** Psi4 exiting successfully. Buy a developer a beer!
