                              Psi4 1.0.54 Driver

  ==> Input File <==

--------------------------------------------------------------------------
set {
	reference rhf
	basis cc-pvtz
}

set_num_threads( 4 )
memory 2 gb

molecule MOL {
0 1

H	 1.166964	 -1.062386	 0.758429
O	 1.324748	 -0.612467	 -0.052206
C	 0.706474	 0.636793	 -0.025501
C	 -0.491160	 0.761662	 -0.924229
H	 1.456987	 1.356988	 -0.329393
H	 0.414182	 0.903244	 0.988535
C	 -0.912425	 -0.147602	 -1.775159
H	 -1.024045	 1.694043	 -0.835081
H	 -0.398891	 -1.081114	 -1.904815
H	 -1.782016	 0.021139	 -2.381293

	symmetry c1
}
set optking {
	frozen_dihedral = ("
		5 3 2 1
	")
}

ee,wfn = optimize('scf', return_wfn=True)
oeprop( wfn, 'DIPOLE', 'QUADRUPOLE', 'MULLIKEN_CHARGES')
f=open( 'psi4out.xyz', 'w' )
f.write( "10  " )
f.write( str(ee) + "\n" )
f.write( MOL.save_string_xyz() )
f.close()
--------------------------------------------------------------------------

    Molecular point group: c1
  Charge       = 0
  Multiplicity = 1
  Basis Set: CC-PVTZ
  Basis Set:
  @DF-RHF Final Energy:  -191.99668001355033
    Total Energy =                       -191.9966800135503604
    Molecular point group: c1
  Basis Set: CC-PVTZ
  Basis Set:
  Basis Set: CC-PVTZ
  Basis Set:
  @DF-RHF Final Energy:  -191.99710026862283
    Total Energy =                       -191.9971002686227166
  Basis Set: CC-PVTZ
  Basis Set:
  Basis Set: CC-PVTZ
  Basis Set:
  @DF-RHF Final Energy:  -191.99717481834023
    Total Energy =                       -191.9971748183402269
  Basis Set: CC-PVTZ
  Basis Set:
  Basis Set: CC-PVTZ
  Basis Set:
  @DF-RHF Final Energy:  -191.99717687176206
    Total Energy =                       -191.9971768717620648
  Basis Set: CC-PVTZ
  Basis Set:
  Charge       = 0
  Multiplicity = 1
  Basis Set: CC-PVTZ
  Basis Set:

    Orbital Energies (a.u.)
    -----------------------

    Doubly Occupied:

       1A    -20.553599     2A    -11.278531     3A    -11.224531
       4A    -11.209833     5A     -1.373383     6A     -1.058799
       7A     -0.928551     8A     -0.762740     9A     -0.705467
      10A     -0.656213    11A     -0.615585    12A     -0.579602
      13A     -0.514871    14A     -0.509710    15A     -0.450320
      16A     -0.363036

  @DF-RHF Final Energy:  -191.99717716040826

   => Energetics <=

    Nuclear Repulsion Energy =            119.3969103648127827
    One-Electron Energy =                -497.2186317925269918
    Two-Electron Energy =                 185.8245442673058960
    DFT Exchange-Correlation Energy =       0.0000000000000000
    Empirical Dispersion Energy =           0.0000000000000000
    PCM Polarization Energy =               0.0000000000000000
    EFP Energy =                            0.0000000000000000
    Total Energy =                       -191.9971771604083415
    Molecular point group: c1
  Basis Set: CC-PVTZ
  Basis Set:

  -Total Gradient:
     Atom            X                  Y                   Z
    ------   -----------------  -----------------  -----------------
       1        0.001037698065     0.000524205313     0.000566355026
       2       -0.001216271852    -0.000607032657    -0.000440551448
       3       -0.000098999325    -0.000023068965    -0.001183137020
       4        0.000014362568     0.000030697597     0.000010912965
       5        0.000262600571     0.000101489456     0.001054225510
       6       -0.000002867881    -0.000010378945    -0.000006023100
       7        0.000026358774     0.000001731521    -0.000031380501
       8       -0.000005127289    -0.000004238678     0.000003881291
       9       -0.000009809691    -0.000009545734     0.000010198594
      10       -0.000007943936    -0.000003858910     0.000015518682

  **** Optimization is complete! (in 5 steps) ****
    Final optimized geometry and variables:
    Molecular point group: c1

    Geometry (in Angstrom), charge = 0, multiplicity = 1:

    H            0.935903730458    -1.180447064265     1.376727634114
    O            1.110658123909    -0.702100804967     0.589245154143
    C            0.471157198087     0.541162188879     0.621045672406
    C           -0.694668854558     0.636024405692    -0.319943322346
    H            1.201038983469     1.302899049652     0.365290759252
    H            0.130394992736     0.776145788053     1.626590975893
    C           -1.127580230294    -0.327664920270    -1.100850840979
    H           -1.186857321402     1.594840542403    -0.328271461687
    H           -0.650340554860    -1.287854849291    -1.120282921816
    H           -1.969870609938    -0.177843228696    -1.749334915272

  Mulliken Charges: (a.u.)
   Center  Symbol    Alpha    Beta     Spin     Total
       1     H     0.38999  0.38999  0.00000  0.22002
       2     O     4.19916  4.19916  0.00000 -0.39831
       3     C     2.94946  2.94946  0.00000  0.10108
       4     C     3.08000  3.08000  0.00000 -0.16000
       5     H     0.46009  0.46009  0.00000  0.07983
       6     H     0.47133  0.47133  0.00000  0.05733
       7     C     3.17568  3.17568  0.00000 -0.35136
       8     H     0.42407  0.42407  0.00000  0.15187
       9     H     0.42084  0.42084  0.00000  0.15832
      10     H     0.42939  0.42939  0.00000  0.14123

   Total alpha = 16.00000, Total beta = 16.00000, Total charge = -0.00000

*** Psi4 exiting successfully. Buy a developer a beer!
