  ==> Input File <==

--------------------------------------------------------------------------
set {
	reference rhf
	basis 6-31G*
}

set_num_threads( 4 )
memory 2 gb

molecule MOL {
0 1

H	 -2.696796	 1.619900	 -2.117710
C	 -1.709131	 2.096286	 -2.083144
C	 -1.187476	 2.381863	 -0.697888
O	 -1.132691	 2.349665	 -3.090748
C	 -1.220012	 1.144545	 0.209990
H	 -0.185376	 2.785246	 -0.786127
H	 -1.822800	 3.156572	 -0.270285
C	 -0.252658	 0.041456	 -0.226725
H	 -0.980051	 1.454664	 1.222674
H	 -2.234284	 0.750009	 0.246745
C	 1.180775	 0.282413	 0.250794
H	 -0.266029	 -0.034465	 -1.312038
H	 -0.597733	 -0.921000	 0.146291
C	 2.148627	 -0.814315	 -0.201312
H	 1.516199	 1.249228	 -0.115937
H	 1.192670	 0.346017	 1.338083
C	 3.580890	 -0.659131	 0.322722
H	 2.166869	 -0.852443	 -1.289387
H	 1.762857	 -1.776509	 0.128956
C	 4.324889	 0.564933	 -0.213704
H	 4.142010	 -1.551473	 0.056605
H	 3.564836	 -0.624694	 1.410140
H	 4.342616	 0.565491	 -1.300421
H	 3.866655	 1.493402	 0.110242
H	 5.353900	 0.572371	 0.132816

	symmetry c1
}
set optking {
	frozen_dihedral = ("
		3 5 8 12
	")
}

ee = optimize('scf')
oeprop('DIPOLE', 'QUADRUPOLE', 'MULLIKEN_CHARGES')
f=open( 'psi4out.xyz', 'w' )
f.write( "25  " )
f.write( str(ee) + "\n" )
f.write( MOL.save_string_xyz() )
f.close()
--------------------------------------------------------------------------

    Molecular point group: c1
  Charge       = 0
  Multiplicity = 1
  Basis Set: 6-31G*
  Basis Set:
  @DF-RHF Final Energy:  -387.11961044310038
    Total Energy =                       -387.1196104430996456
    Molecular point group: c1
  Basis Set: 6-31G*
  Basis Set:
  Basis Set: 6-31G*
  Basis Set:
  @DF-RHF Final Energy:  -387.11952781305763
    Total Energy =                       -387.1195278130581983
  Basis Set: 6-31G*
  Basis Set:
  Basis Set: 6-31G*
  Basis Set:
  @DF-RHF Final Energy:  -387.11736121989867
    Total Energy =                       -387.1173612198979299
  Basis Set: 6-31G*
  Basis Set:
  Basis Set: 6-31G*
  Basis Set:
  @DF-RHF Final Energy:  -387.11980474667467
    Total Energy =                       -387.1198047466747312
  Basis Set: 6-31G*
  Basis Set:
  @DF-RHF Final Energy:  -387.11986100979061
    Total Energy =                       -387.1198610097908386
  Basis Set: 6-31G*
  Basis Set:
  @DF-RHF Final Energy:  -387.11985502742920
    Total Energy =                       -387.1198550274300487
  Basis Set: 6-31G*
  Basis Set:
  Basis Set: 6-31G*
  Basis Set:
  @DF-RHF Final Energy:  -387.11984880833609
    Total Energy =                       -387.1198488083362008
  Basis Set: 6-31G*
  Basis Set:
  Basis Set: 6-31G*
  Basis Set:
  @DF-RHF Final Energy:  -387.11986801684674
    Total Energy =                       -387.1198680168471356
  Basis Set: 6-31G*
  Basis Set:
  Charge       = 0
  Multiplicity = 1
  Basis Set: 6-31G*
  Basis Set:

    Orbital Energies (a.u.)
    -----------------------

    Doubly Occupied:

       1A    -20.562800     2A    -11.326524     3A    -11.235512
       4A    -11.234680     5A    -11.223408     6A    -11.218015
       7A    -11.216329     8A    -11.215238     9A    -11.208244
      10A     -1.402607    11A     -1.102904    12A     -1.067643
      13A     -1.010594    14A     -0.942202    15A     -0.876618
      16A     -0.820645    17A     -0.786714    18A     -0.777242
      19A     -0.665485    20A     -0.654626    21A     -0.642978
      22A     -0.614359    23A     -0.609784    24A     -0.593130
      25A     -0.569599    26A     -0.546428    27A     -0.541804
      28A     -0.519120    29A     -0.515160    30A     -0.499677
      31A     -0.482293    32A     -0.475780    33A     -0.462422
      34A     -0.455011    35A     -0.441643    36A     -0.410205

  @DF-RHF Final Energy:  -387.11986839435849

   => Energetics <=

    Nuclear Repulsion Energy =            447.2931496814010188
    One-Electron Energy =               -1410.9711994628605680
    Two-Electron Energy =                 576.5581813871019676
    DFT Exchange-Correlation Energy =       0.0000000000000000
    Empirical Dispersion Energy =           0.0000000000000000
    PCM Polarization Energy =               0.0000000000000000
    EFP Energy =                            0.0000000000000000
    Total Energy =                       -387.1198683943575816
    Molecular point group: c1
  Basis Set: 6-31G*
  Basis Set:

  -Total Gradient:
     Atom            X                  Y                   Z
    ------   -----------------  -----------------  -----------------
       1        0.000008580645    -0.000021486300     0.000004265761
       2       -0.000014959756     0.000036854746    -0.000028181423
       3       -0.001165428576    -0.000790042424    -0.000915461058
       4       -0.000003164142     0.000012688434     0.000010657609
       5        0.002066665571     0.001367576565     0.001311636214
       6       -0.000002527815     0.000008803757    -0.000007108215
       7        0.000001316786     0.000021640414    -0.000015708706
       8       -0.002585572765    -0.002177882474    -0.000219441723
       9        0.000006146313    -0.000003506672     0.000004167632
      10        0.000003620033    -0.000005507421     0.000002260070
      11        0.000007657061     0.000011152474    -0.000011190814
      12        0.001676933827     0.001540388150    -0.000146460268
      13       -0.000004543765     0.000000490050    -0.000006263529
      14       -0.000009805678    -0.000005891434     0.000022166014
      15       -0.000005258790     0.000002633895    -0.000004267168
      16        0.000016550123     0.000003461040    -0.000007794455
      17        0.000005503906    -0.000008811726     0.000005532788
      18        0.000005430598     0.000003541361     0.000001874482
      19       -0.000011779469     0.000001723949    -0.000002925687
      20       -0.000006673495     0.000002418659     0.000002328818
      21        0.000005152580     0.000005242073    -0.000003053517
      22        0.000005170115    -0.000006668797     0.000000500207
      23        0.000000468640    -0.000002000755     0.000003087241
      24        0.000001544017     0.000002547657    -0.000003387973
      25       -0.000001025963     0.000000634780     0.000002767707

  **** Optimization is complete! (in 9 steps) ****
    Final optimized geometry and variables:
    Molecular point group: c1

    Geometry (in Angstrom), charge = 0, multiplicity = 1:

    H           -3.410667655575     0.837181841907    -1.434037306752
    C           -2.402840630236     1.270360781463    -1.426365163332
    C           -1.845776362953     1.565907535739    -0.057189347496
    O           -1.833262419245     1.475070382754    -2.449080825557
    C           -1.865254351979     0.329021171709     0.854964715578
    H           -0.848066421886     1.970899764281    -0.175552056434
    H           -2.469299338284     2.342797192511     0.383189371614
    C           -0.888112023949    -0.779348345826     0.432539090457
    H           -1.650235261402     0.637684225743     1.873489631689
    H           -2.878301039132    -0.068093429278     0.870811661202
    C            0.550814808742    -0.535901808101     0.899832682695
    H           -0.887374919254    -0.876878011972    -0.651066187476
    H           -1.232263736592    -1.729662422501     0.831582910582
    C            1.512443729572    -1.635292204798     0.441062543528
    H            0.892567276995     0.428177620304     0.534204200495
    H            0.566393590919    -0.475780261891     1.987162403327
    C            2.942822266298    -1.498183772210     0.975172174015
    H            1.537169208632    -1.659847341102    -0.647010830621
    H            1.116935570848    -2.598475300099     0.757554126768
    C            3.696728673701    -0.268687669858     0.465026725444
    H            3.500000838568    -2.389092244129     0.696233968112
    H            2.920651384202    -1.483356721140     2.063074875935
    H            3.722054490368    -0.249260171015    -0.621085022635
    H            3.241075315176     0.656647393499     0.801627604185
    H            4.723120552632    -0.272501264235     0.818841453330

  Mulliken Charges: (a.u.)
   Center  Symbol    Alpha    Beta     Spin     Total
       1     H     0.43217  0.43217  0.00000  0.13566
       2     C     2.83047  2.83047  0.00000  0.33905
       3     C     3.20860  3.20860  0.00000 -0.41721
       4     O     4.23819  4.23819  0.00000 -0.47638
       5     C     3.16930  3.16930  0.00000 -0.33860
       6     H     0.39900  0.39900  0.00000  0.20201
       7     H     0.40740  0.40740  0.00000  0.18521
       8     C     3.15843  3.15843  0.00000 -0.31686
       9     H     0.41210  0.41210  0.00000  0.17579
      10     H     0.41773  0.41773  0.00000  0.16454
      11     C     3.15487  3.15487  0.00000 -0.30975
      12     H     0.41568  0.41568  0.00000  0.16863
      13     H     0.41793  0.41793  0.00000  0.16413
      14     C     3.15335  3.15335  0.00000 -0.30669
      15     H     0.41854  0.41854  0.00000  0.16292
      16     H     0.42418  0.42418  0.00000  0.15163
      17     C     3.15257  3.15257  0.00000 -0.30514
      18     H     0.42100  0.42100  0.00000  0.15800
      19     H     0.42262  0.42262  0.00000  0.15475
      20     C     3.24146  3.24146  0.00000 -0.48293
      21     H     0.42041  0.42041  0.00000  0.15917
      22     H     0.42382  0.42382  0.00000  0.15235
      23     H     0.42040  0.42040  0.00000  0.15920
      24     H     0.42064  0.42064  0.00000  0.15871
      25     H     0.41910  0.41910  0.00000  0.16180

   Total alpha = 36.00000, Total beta = 36.00000, Total charge =  0.00000
