  ==> Input File <==

--------------------------------------------------------------------------
set {
	reference rhf
	basis 6-31G*
}

set_num_threads( 4 )
memory 2 gb

molecule MOL {
0 1

O	 -2.821601	 1.309235	 -0.001213
C	 -2.668563	 0.129746	 -0.000350
C	 -3.801572	 -0.864014	 -0.000442
O	 -1.481751	 -0.454642	 0.000584
H	 -4.417280	 -0.689587	 -0.874708
H	 -3.443784	 -1.883046	 -0.000565
H	 -4.417179	 -0.689832	 0.873954
C	 -0.334255	 0.388708	 0.000906
C	 0.891947	 -0.504646	 0.000751
H	 -0.365390	 1.025305	 -0.873475
H	 -0.365484	 1.024911	 0.875569
C	 0.523114	 -1.988886	 -0.037530
H	 1.482432	 -0.290590	 0.887288
H	 1.510050	 -0.252432	 -0.856452
C	 1.746665	 -2.907172	 -0.037636
H	 -0.104972	 -2.229859	 0.818346
H	 -0.076705	 -2.191959	 -0.923002
C	 1.378195	 -4.389648	 -0.074517
H	 2.347005	 -2.705815	 0.846741
H	 2.374265	 -2.669293	 -0.893558
H	 0.777872	 -4.666191	 0.787544
H	 2.265646	 -5.014682	 -0.073550
H	 0.805648	 -4.629464	 -0.965970

	symmetry c1
}
set optking {
	frozen_dihedral = ("
		13 9 8 10
	")
}

ee = optimize('scf')
oeprop('DIPOLE', 'QUADRUPOLE', 'MULLIKEN_CHARGES')
f=open( 'psi4out.xyz', 'w' )
f.write( "23  " )
f.write( str(ee) + "\n" )
f.write( MOL.save_string_xyz() )
f.close()
--------------------------------------------------------------------------

    Molecular point group: c1
  Charge       = 0
  Multiplicity = 1
  Basis Set: 6-31G*
  Basis Set:
  @DF-RHF Final Energy:  -422.96816325605511
    Total Energy =                       -422.9681632560552771
    Molecular point group: c1
  Basis Set: 6-31G*
  Basis Set:
  Basis Set: 6-31G*
  Basis Set:
  @DF-RHF Final Energy:  -422.96843923134787
    Total Energy =                       -422.9684392313480430
  Basis Set: 6-31G*
  Basis Set:
  Basis Set: 6-31G*
  Basis Set:
  @DF-RHF Final Energy:  -422.97080931123674
    Total Energy =                       -422.9708093112371898
  Basis Set: 6-31G*
  Basis Set:
  Basis Set: 6-31G*
  Basis Set:
  @DF-RHF Final Energy:  -422.97097657605457
    Total Energy =                       -422.9709765760549089
  Basis Set: 6-31G*
  Basis Set:
  Basis Set: 6-31G*
  Basis Set:
  @DF-RHF Final Energy:  -422.97088886990264
    Total Energy =                       -422.9708888699024101
  Basis Set: 6-31G*
  Basis Set:
  Basis Set: 6-31G*
  Basis Set:
  @DF-RHF Final Energy:  -422.97094482656303
    Total Energy =                       -422.9709448265630272
  Basis Set: 6-31G*
  Basis Set:
  Basis Set: 6-31G*
  Basis Set:
  @DF-RHF Final Energy:  -422.97098703365066
    Total Energy =                       -422.9709870336505446
  Basis Set: 6-31G*
  Basis Set:
  Charge       = 0
  Multiplicity = 1
  Basis Set: 6-31G*
  Basis Set:

    Orbital Energies (a.u.)
    -----------------------

    Doubly Occupied:

       1A    -20.603599     2A    -20.541153     3A    -11.374707
       4A    -11.282822     5A    -11.232976     6A    -11.226065
       7A    -11.218133     8A    -11.217076     9A    -11.210764
      10A     -1.468684    11A     -1.361345    12A     -1.088013
      13A     -1.039553    14A     -1.001175    15A     -0.931129
      16A     -0.844091    17A     -0.807732    18A     -0.761123
      19A     -0.690074    20A     -0.687809    21A     -0.666633
      22A     -0.642920    23A     -0.605178    24A     -0.588570
      25A     -0.579470    26A     -0.565833    27A     -0.559688
      28A     -0.527089    29A     -0.524982    30A     -0.517482
      31A     -0.488991    32A     -0.471260    33A     -0.470433
      34A     -0.457914    35A     -0.442552    36A     -0.437385

  @DF-RHF Final Energy:  -422.97098645644803

   => Energetics <=

    Nuclear Repulsion Energy =            460.3493172340810133
    One-Electron Energy =               -1488.3718032705669430
    Two-Electron Energy =                 605.0514995800376710
    DFT Exchange-Correlation Energy =       0.0000000000000000
    Empirical Dispersion Energy =           0.0000000000000000
    PCM Polarization Energy =               0.0000000000000000
    EFP Energy =                            0.0000000000000000
    Total Energy =                       -422.9709864564483723
    Molecular point group: c1
  Basis Set: 6-31G*
  Basis Set:

  -Total Gradient:
     Atom            X                  Y                   Z
    ------   -----------------  -----------------  -----------------
       1       -0.000003122453     0.000009850480    -0.000003349421
       2       -0.000023819953    -0.000031773942     0.000031869250
       3        0.000008072326     0.000007004821    -0.000019054226
       4       -0.000040411705    -0.000125294434    -0.000082318789
       5        0.000001499823    -0.000007812979     0.000000333823
       6        0.000002410696    -0.000001259939    -0.000005665864
       7        0.000006014669     0.000010770431     0.000001401356
       8       -0.000535276872    -0.000838812926    -0.000812360640
       9       -0.000501534019    -0.000553883733     0.000677386974
      10        0.000618419564     0.000726292141     0.000505254405
      11        0.000120153352     0.000032759966     0.000034322025
      12       -0.000083730801     0.000008233243     0.000508489922
      13        0.000452702948     0.000729368043    -0.000480190464
      14        0.000019231976     0.000047600696    -0.000017355318
      15       -0.000010542012    -0.000006971780    -0.000150293706
      16        0.000097383036    -0.000043656650    -0.000059210190
      17       -0.000107391762     0.000009668896    -0.000077573250
      18       -0.000009882819     0.000008446115    -0.000036788661
      19       -0.000064104003     0.000007224651    -0.000003633816
      20        0.000053247191     0.000001156928    -0.000007307890
      21       -0.000001904718     0.000012229441     0.000001564612
      22        0.000000903705     0.000011236123    -0.000003679761
      23        0.000001681834    -0.000012375595    -0.000001840373

  **** Optimization is complete! (in 8 steps) ****
    Final optimized geometry and variables:
    Molecular point group: c1

    Geometry (in Angstrom), charge = 0, multiplicity = 1:

    O           -2.053342635871     2.430683077640    -0.020297896574
    C           -1.975893950542     1.244193956407     0.010122647770
    C           -3.170611305385     0.325643134024     0.031273560669
    O           -0.829930435448     0.584215844939     0.029042808084
    H           -3.773432939703     0.518559039696    -0.848048688726
    H           -2.879482821041    -0.714148720093     0.055980185595
    H           -3.774059392675     0.559862228940     0.900110909500
    C            0.368378644985     1.354238984960     0.010791432469
    C            1.598859854673     0.427344331683     0.040496217752
    H            0.362375302342     1.974860007988    -0.873807644627
    H            0.356237293914     2.017563708892     0.863936036182
    C            1.311513328679    -1.076212789967    -0.008800656596
    H            2.179866981126     0.647272250663     0.931446242697
    H            2.238997899436     0.685464457663    -0.798526059098
    C            2.597243323184    -1.905256096007    -0.018752969018
    H            0.702642379988    -1.362411454475     0.843038551189
    H            0.725052069195    -1.308012761456    -0.893146113443
    C            2.331183224628    -3.409331418745    -0.070482561970
    H            3.184540635751    -1.674029849388     0.867533357737
    H            3.208043541920    -1.618323001006    -0.872287204944
    H            1.751583193832    -3.734553669249     0.788795827887
    H            3.259047079033    -3.972805782646    -0.075949616541
    H            1.775314259144    -3.678554469179    -0.964134611542

  Mulliken Charges: (a.u.)
   Center  Symbol    Alpha    Beta     Spin     Total
       1     O     4.28421  4.28421  0.00000 -0.56842
       2     C     2.61384  2.61384  0.00000  0.77232
       3     C     3.28768  3.28768  0.00000 -0.57536
       4     O     4.31200  4.31200  0.00000 -0.62400
       5     H     0.39741  0.39741  0.00000  0.20518
       6     H     0.40002  0.40002  0.00000  0.19995
       7     H     0.39743  0.39743  0.00000  0.20515
       8     C     2.99832  2.99832  0.00000  0.00336
       9     C     3.18117  3.18117  0.00000 -0.36234
      10     H     0.40816  0.40816  0.00000  0.18368
      11     H     0.40799  0.40799  0.00000  0.18402
      12     C     3.14422  3.14422  0.00000 -0.28845
      13     H     0.41554  0.41554  0.00000  0.16891
      14     H     0.41586  0.41586  0.00000  0.16828
      15     C     3.15378  3.15378  0.00000 -0.30757
      16     H     0.41710  0.41710  0.00000  0.16580
      17     H     0.41797  0.41797  0.00000  0.16406
      18     C     3.23909  3.23909  0.00000 -0.47818
      19     H     0.42319  0.42319  0.00000  0.15362
      20     H     0.42324  0.42324  0.00000  0.15353
      21     H     0.42142  0.42142  0.00000  0.15716
      22     H     0.41892  0.41892  0.00000  0.16215
      23     H     0.42142  0.42142  0.00000  0.15715

   Total alpha = 36.00000, Total beta = 36.00000, Total charge = -0.00000
