  ==> Input File <==

--------------------------------------------------------------------------
set {
	reference rhf
	basis 6-31G*
}

set_num_threads( 4 )
memory 2 gb

molecule MOL {
0 1

H	 -1.585109	 2.814345	 -2.485676
C	 -0.614923	 3.317134	 -2.583476
C	 0.031798	 3.713183	 -1.280591
O	 -0.149687	 3.513346	 -3.659025
C	 0.129677	 2.542706	 -0.292332
H	 1.006554	 4.134866	 -1.496796
H	 -0.582945	 4.499645	 -0.844445
C	 1.084436	 1.436658	 -0.748832
H	 0.458537	 2.929676	 0.667559
H	 -0.862572	 2.125895	 -0.126598
C	 1.180775	 0.282413	 0.250794
H	 2.072807	 1.862908	 -0.907830
H	 0.765316	 1.048922	 -1.714422
C	 2.148627	 -0.814315	 -0.201312
H	 1.489694	 0.676987	 1.215476
H	 0.192013	 -0.149836	 0.398762
C	 3.580890	 -0.659131	 0.322722
H	 2.166869	 -0.852443	 -1.289387
H	 1.762857	 -1.776509	 0.128956
C	 4.324889	 0.564933	 -0.213704
H	 4.142010	 -1.551473	 0.056605
H	 3.564836	 -0.624694	 1.410140
H	 4.342616	 0.565491	 -1.300421
H	 3.866655	 1.493402	 0.110242
H	 5.353900	 0.572371	 0.132816

	symmetry c1
}
set optking {
	frozen_dihedral = ("
		8 11 14 18
	")
}

ee = optimize('scf')
oeprop('DIPOLE', 'QUADRUPOLE', 'MULLIKEN_CHARGES')
f=open( 'psi4out.xyz', 'w' )
f.write( "25  " )
f.write( str(ee) + "\n" )
f.write( MOL.save_string_xyz() )
f.close()
--------------------------------------------------------------------------

    Molecular point group: c1
  Charge       = 0
  Multiplicity = 1
  Basis Set: 6-31G*
  Basis Set:
  @DF-RHF Final Energy:  -387.11655242614057
    Total Energy =                       -387.1165524261404016
    Molecular point group: c1
  Basis Set: 6-31G*
  Basis Set:
  Basis Set: 6-31G*
  Basis Set:
  @DF-RHF Final Energy:  -387.11721390806980
    Total Energy =                       -387.1172139080700845
  Basis Set: 6-31G*
  Basis Set:
  Basis Set: 6-31G*
  Basis Set:
  @DF-RHF Final Energy:  -387.11336133866916
    Total Energy =                       -387.1133613386692787
  Basis Set: 6-31G*
  Basis Set:
  Basis Set: 6-31G*
  Basis Set:
  @DF-RHF Final Energy:  -387.11745685253845
    Total Energy =                       -387.1174568525382256
  Basis Set: 6-31G*
  Basis Set:
  @DF-RHF Final Energy:  -387.11754073495064
    Total Energy =                       -387.1175407349506941
  @DF-RHF Final Energy:  -387.11754289760643
    Total Energy =                       -387.1175428976066542
  Basis Set: 6-31G*
  Basis Set:
  @DF-RHF Final Energy:  -387.11755846131877
    Total Energy =                       -387.1175584613179126
  Basis Set: 6-31G*
  Basis Set:
  Basis Set: 6-31G*
  Basis Set:
  @DF-RHF Final Energy:  -387.11752901594264
    Total Energy =                       -387.1175290159430915
  Basis Set: 6-31G*
  Basis Set:
  Basis Set: 6-31G*
  Basis Set:
  @DF-RHF Final Energy:  -387.11755899080543
    Total Energy =                       -387.1175589908050370
  Basis Set: 6-31G*
  Basis Set:
  Charge       = 0
  Multiplicity = 1
  Basis Set: 6-31G*
  Basis Set:

    Orbital Energies (a.u.)
    -----------------------

    Doubly Occupied:

       1A    -20.561905     2A    -11.326069     3A    -11.235074
       4A    -11.234482     5A    -11.222948     6A    -11.220507
       7A    -11.218198     8A    -11.217240     9A    -11.210648
      10A     -1.401845    11A     -1.103014    12A     -1.068037
      13A     -1.011099    14A     -0.945662    15A     -0.876104
      16A     -0.820895    17A     -0.787867    18A     -0.779226
      19A     -0.664455    20A     -0.660739    21A     -0.631550
      22A     -0.622275    23A     -0.607276    24A     -0.593129
      25A     -0.566572    26A     -0.558933    27A     -0.532810
      28A     -0.522809    29A     -0.516625    30A     -0.495729
      31A     -0.487080    32A     -0.484689    33A     -0.463091
      34A     -0.449776    35A     -0.441970    36A     -0.409432

  @DF-RHF Final Energy:  -387.11755901994150

   => Energetics <=

    Nuclear Repulsion Energy =            447.4019577346679171
    One-Electron Energy =               -1411.1395187631458157
    Two-Electron Energy =                 576.6200020085367441
    DFT Exchange-Correlation Energy =       0.0000000000000000
    Empirical Dispersion Energy =           0.0000000000000000
    PCM Polarization Energy =               0.0000000000000000
    EFP Energy =                            0.0000000000000000
    Total Energy =                       -387.1175590199411545
    Molecular point group: c1
  Basis Set: 6-31G*
  Basis Set:

  -Total Gradient:
     Atom            X                  Y                   Z
    ------   -----------------  -----------------  -----------------
       1       -0.000001567252    -0.000000315336     0.000003016863
       2       -0.000004252256    -0.000003337322     0.000006077523
       3        0.000000450472     0.000000376087    -0.000005826039
       4        0.000006760657     0.000001504644    -0.000001346349
       5        0.000004562529    -0.000003933726     0.000003882893
       6        0.000001352277    -0.000000267521     0.000000728948
       7       -0.000000207035    -0.000005021542     0.000001856366
       8        0.000111124626     0.000072239536     0.000057298090
       9       -0.000001244147     0.000006078465     0.000001650073
      10        0.000001916824    -0.000000084442    -0.000001653549
      11       -0.000203053249    -0.000133314267    -0.000091150097
      12       -0.000003830619    -0.000002753950     0.000000743776
      13       -0.000000364477     0.000002640222    -0.000003400535
      14        0.000242628344     0.000196113915     0.000022571520
      15       -0.000002000794     0.000000247148     0.000003591434
      16        0.000004505109    -0.000001864403    -0.000002372515
      17       -0.000001892744     0.000007003657    -0.000000481936
      18       -0.000156709046    -0.000134569340     0.000008323196
      19       -0.000002722829    -0.000001434395    -0.000004018345
      20        0.000007121409     0.000000779525     0.000001541280
      21       -0.000002485352    -0.000001189960     0.000001646713
      22       -0.000004225847     0.000002992013    -0.000000307973
      23       -0.000002771323     0.000002426272    -0.000001417019
      24        0.000005961930    -0.000005154726     0.000001425707
      25        0.000000942797     0.000000839439    -0.000002380022

  **** Optimization is complete! (in 10 steps) ****
    Final optimized geometry and variables:
    Molecular point group: c1

    Geometry (in Angstrom), charge = 0, multiplicity = 1:

    H           -2.962114901540     1.257598737692    -1.493762304730
    C           -1.998745851616     1.765730436581    -1.626155769160
    C           -1.314189692752     2.176888706550    -0.347462959074
    O           -1.571909465463     1.960957985318    -2.717756816490
    C           -1.171393598833     1.013512869421     0.643946048248
    H           -0.351532981700     2.607291450097    -0.598245508380
    H           -1.922518203093     2.959684348616     0.103808670993
    C           -0.216166573421    -0.082927024071     0.165183322698
    H           -0.819550452812     1.410407879305     1.591869101275
    H           -2.152723350787     0.585124913618     0.841580490530
    C           -0.097855737982    -1.237724727065     1.165344000048
    H            0.757314094405     0.356439946897    -0.027761468536
    H           -0.559787369893    -0.479884300999    -0.788342824971
    C            0.867488239731    -2.363173376629     0.744857788647
    H            0.198015679108    -0.848696984692     2.138271064103
    H           -1.090100287010    -1.660356593560     1.304707823377
    C            2.300585759546    -2.252779173254     1.282560286272
    H            0.891670949538    -2.434276587366    -0.341033515286
    H            0.466180006497    -3.310763959511     1.094165069005
    C            3.096769864318    -1.033711782378     0.815191634519
    H            2.838445466456    -3.151281127970     0.989705765574
    H            2.269476489781    -2.261809596324     2.370264347528
    H            3.122396304154    -0.970162899369    -0.269032842634
    H            2.678406783942    -0.106962439680     1.193605512566
    H            4.122491816658    -1.091634376905     1.166330614995

  Mulliken Charges: (a.u.)
   Center  Symbol    Alpha    Beta     Spin     Total
       1     H     0.43261  0.43261  0.00000  0.13478
       2     C     2.83073  2.83073  0.00000  0.33853
       3     C     3.20807  3.20807  0.00000 -0.41614
       4     O     4.23786  4.23786  0.00000 -0.47572
       5     C     3.16713  3.16713  0.00000 -0.33425
       6     H     0.39977  0.39977  0.00000  0.20046
       7     H     0.40669  0.40669  0.00000  0.18662
       8     C     3.15749  3.15749  0.00000 -0.31498
       9     H     0.41305  0.41305  0.00000  0.17390
      10     H     0.41978  0.41978  0.00000  0.16045
      11     C     3.15661  3.15661  0.00000 -0.31323
      12     H     0.41416  0.41416  0.00000  0.17168
      13     H     0.41851  0.41851  0.00000  0.16297
      14     C     3.15608  3.15608  0.00000 -0.31216
      15     H     0.42200  0.42200  0.00000  0.15599
      16     H     0.42091  0.42091  0.00000  0.15818
      17     C     3.15142  3.15142  0.00000 -0.30285
      18     H     0.42103  0.42103  0.00000  0.15795
      19     H     0.41929  0.41929  0.00000  0.16143
      20     C     3.24167  3.24167  0.00000 -0.48335
      21     H     0.42080  0.42080  0.00000  0.15840
      22     H     0.42349  0.42349  0.00000  0.15303
      23     H     0.42036  0.42036  0.00000  0.15928
      24     H     0.42195  0.42195  0.00000  0.15610
      25     H     0.41852  0.41852  0.00000  0.16295

   Total alpha = 36.00000, Total beta = 36.00000, Total charge =  0.00000
