  ==> Input File <==

--------------------------------------------------------------------------
set {
	reference rhf
	basis 6-31G*
}

set_num_threads( 4 )
memory 2 gb

molecule MOL {
0 1

O	 1.606592	 -0.148609	 -0.846661
C	 0.861134	 0.272526	 -0.014869
C	 -0.623889	 -0.118271	 -0.003699
C	 1.382408	 1.217843	 1.053145
C	 -0.895332	 -1.256461	 -1.002431
C	 -1.473649	 1.103340	 -0.370799
C	 -0.983900	 -0.581483	 1.422328
H	 -0.615301	 -0.972064	 -2.012700
H	 -1.954261	 -1.493213	 -1.010207
H	 -0.360539	 -2.164946	 -0.747760
H	 -1.227476	 1.468527	 -1.361691
H	 -2.526716	 0.838935	 -0.358521
H	 -1.314819	 1.915855	 0.325860
H	 -2.039679	 -0.828001	 1.472951
H	 -0.427637	 -1.464071	 1.720694
H	 -0.789023	 0.202493	 2.147048
H	 1.541828	 0.668066	 1.976071
H	 2.330324	 1.621931	 0.725603
H	 0.694358	 2.025807	 1.269948

	symmetry c1
}
set optking {
	frozen_dihedral = ("
		1 2 3 5
	")
}

ee = optimize('scf')
oeprop('DIPOLE', 'QUADRUPOLE', 'MULLIKEN_CHARGES')
f=open( 'psi4out.xyz', 'w' )
f.write( "19  " )
f.write( str(ee) + "\n" )
f.write( MOL.save_string_xyz() )
f.close()
--------------------------------------------------------------------------

    Molecular point group: c1
  Charge       = 0
  Multiplicity = 1
  Basis Set: 6-31G*
  Basis Set:
  @DF-RHF Final Energy:  -309.06213535543543
    Total Energy =                       -309.0621353554353163
    Molecular point group: c1
  Basis Set: 6-31G*
  Basis Set:
  Basis Set: 6-31G*
  Basis Set:
  @DF-RHF Final Energy:  -309.06230004808492
    Total Energy =                       -309.0623000480849214
  Basis Set: 6-31G*
  Basis Set:
  Basis Set: 6-31G*
  Basis Set:
  @DF-RHF Final Energy:  -309.06091768831789
    Total Energy =                       -309.0609176883176019
  Basis Set: 6-31G*
  Basis Set:
  Basis Set: 6-31G*
  Basis Set:
  @DF-RHF Final Energy:  -309.06296007476465
    Total Energy =                       -309.0629600747647032
  Basis Set: 6-31G*
  Basis Set:
  Basis Set: 6-31G*
  Basis Set:
  @DF-RHF Final Energy:  -309.06298464008296
    Total Energy =                       -309.0629846400830729
  Basis Set: 6-31G*
  Basis Set:
  Basis Set: 6-31G*
  Basis Set:
  @DF-RHF Final Energy:  -309.06308817491004
    Total Energy =                       -309.0630881749102628
  Basis Set: 6-31G*
  Basis Set:
  Charge       = 0
  Multiplicity = 1
  Basis Set: 6-31G*
  Basis Set:

    Orbital Energies (a.u.)
    -----------------------

    Doubly Occupied:

       1A    -20.548277     2A    -11.322687     3A    -11.246409
       4A    -11.226663     5A    -11.224695     6A    -11.224489
       7A    -11.208048     8A     -1.394587     9A     -1.109801
      10A     -1.001773    11A     -0.947078    12A     -0.934655
      13A     -0.835304    14A     -0.703511    15A     -0.664450
      16A     -0.631585    17A     -0.619560    18A     -0.598274
      19A     -0.592344    20A     -0.564715    21A     -0.546426
      22A     -0.543958    23A     -0.523592    24A     -0.512969
      25A     -0.498202    26A     -0.471562    27A     -0.466563
      28A     -0.392696

  @DF-RHF Final Energy:  -309.06308769935134

   => Energetics <=

    Nuclear Repulsion Energy =            326.3078544320080141
    One-Electron Energy =               -1065.6321350198602431
    Two-Electron Energy =                 430.2611928885006591
    DFT Exchange-Correlation Energy =       0.0000000000000000
    Empirical Dispersion Energy =           0.0000000000000000
    PCM Polarization Energy =               0.0000000000000000
    EFP Energy =                            0.0000000000000000
    Total Energy =                       -309.0630876993515130
    Molecular point group: c1
  Basis Set: 6-31G*
  Basis Set:

  -Total Gradient:
     Atom            X                  Y                   Z
    ------   -----------------  -----------------  -----------------
       1        0.000053424816    -0.000395657159     0.000215704746
       2       -0.000168704226     0.000540383716    -0.000402466713
       3        0.000026609499    -0.000470752688     0.000397295518
       4       -0.000071366417    -0.000043160070    -0.000008771205
       5       -0.000024261101     0.000244149418    -0.000373569423
       6        0.000050834556    -0.000083667347    -0.000008866244
       7        0.000134285133     0.000096675652     0.000049783501
       8       -0.000001335425    -0.000029355976    -0.000002578849
       9        0.000017272894     0.000027384062     0.000021202112
      10       -0.000005228730    -0.000026045117     0.000008920518
      11        0.000092256079     0.000039355923     0.000065740851
      12       -0.000001443671    -0.000029309284    -0.000038876618
      13       -0.000037234826     0.000035643492     0.000063404772
      14        0.000030759416     0.000016474904    -0.000047841782
      15        0.000020898377     0.000028087197     0.000007348833
      16        0.000021827850     0.000056041386     0.000064786881
      17       -0.000047213671    -0.000034269548    -0.000000927884
      18       -0.000029454875    -0.000021458726    -0.000049193497
      19       -0.000061925684     0.000049480164     0.000038904484

  **** Optimization is complete! (in 7 steps) ****
    Final optimized geometry and variables:
    Molecular point group: c1

    Geometry (in Angstrom), charge = 0, multiplicity = 1:

    O            1.604938056742    -0.219574377752    -0.910714713018
    C            0.877913155847     0.199739969678    -0.061794765646
    C           -0.606410023669    -0.188726369084    -0.016855073756
    C            1.429255921318     1.126279653270     1.007858818478
    C           -0.865766009616    -1.320101616825    -1.017575433882
    C           -1.445086889892     1.042839594655    -0.413119187473
    C           -0.994114523968    -0.646426887770     1.400097923341
    H           -0.606980910185    -1.020453917407    -2.024765246833
    H           -1.915805550320    -1.596176126534    -0.999195976429
    H           -0.279081418750    -2.199274890157    -0.777008732669
    H           -1.160051138237     1.410071120462    -1.393996243103
    H           -2.495820085767     0.773839508871    -0.451218341374
    H           -1.342601628825     1.857574375179     0.295756010869
    H           -2.033978456645    -0.956081703452     1.414358637129
    H           -0.394127610993    -1.493546330959     1.719889826409
    H           -0.879074145024     0.144271283863     2.133659329338
    H            1.647153693191     0.549279423737     1.901983800757
    H            2.352034882894     1.560169300157     0.648314220080
    H            0.737834967632     1.911782343164     1.286303617134

  Mulliken Charges: (a.u.)
   Center  Symbol    Alpha    Beta     Spin     Total
       1     O     4.26399  4.26399  0.00000 -0.52797
       2     C     2.72509  2.72509  0.00000  0.54982
       3     C     3.07049  3.07049  0.00000 -0.14098
       4     C     3.28872  3.28872  0.00000 -0.57744
       5     C     3.22583  3.22583  0.00000 -0.45165
       6     C     3.24131  3.24131  0.00000 -0.48262
       7     C     3.24178  3.24178  0.00000 -0.48357
       8     H     0.40806  0.40806  0.00000  0.18388
       9     H     0.42390  0.42390  0.00000  0.15220
      10     H     0.41397  0.41397  0.00000  0.17206
      11     H     0.41062  0.41062  0.00000  0.17876
      12     H     0.41282  0.41282  0.00000  0.17436
      13     H     0.41841  0.41841  0.00000  0.16319
      14     H     0.41327  0.41327  0.00000  0.17347
      15     H     0.41447  0.41447  0.00000  0.17106
      16     H     0.41703  0.41703  0.00000  0.16593
      17     H     0.40350  0.40350  0.00000  0.19300
      18     H     0.39608  0.39608  0.00000  0.20783
      19     H     0.41067  0.41067  0.00000  0.17867

   Total alpha = 28.00000, Total beta = 28.00000, Total charge = -0.00000
