  ==> Input File <==

--------------------------------------------------------------------------
set {
	reference rhf
	basis 6-31G*
}

set_num_threads( 4 )
memory 2 gb

molecule MOL {
0 1

H	 2.591676	 2.013956	 0.335017
O	 3.341076	 1.666752	 -0.126416
C	 3.569581	 0.339145	 0.272707
C	 2.539767	 -0.640285	 -0.279495
H	 4.553106	 0.084646	 -0.100901
H	 3.608576	 0.269204	 1.359154
C	 3.139864	 -1.953284	 -0.788205
H	 1.810837	 -0.849638	 0.499093
H	 2.005238	 -0.148714	 -1.090669
C	 2.087798	 -2.892099	 -1.385368
H	 3.649818	 -2.453610	 0.030322
H	 3.895678	 -1.737323	 -1.543484
C	 2.647202	 -4.186237	 -1.987543
H	 1.353225	 -3.139023	 -0.620987
H	 1.547206	 -2.356273	 -2.162768
C	 3.272444	 -5.150306	 -0.975553
H	 1.838712	 -4.700806	 -2.502690
H	 3.382429	 -3.938608	 -2.751715
C	 3.720156	 -6.470031	 -1.607468
H	 2.552512	 -5.357649	 -0.185099
H	 4.128205	 -4.683785	 -0.493544
C	 4.350470	 -7.431641	 -0.600653
H	 2.866143	 -6.951036	 -2.079469
H	 4.432216	 -6.264224	 -2.404023
H	 3.651429	 -7.682937	 0.192074
H	 4.655312	 -8.357697	 -1.078279
H	 5.230192	 -6.993692	 -0.137346

	symmetry c1
}
set optking {
	frozen_dihedral = ("
		8 4 3 2
	")
}

ee = optimize('scf')
oeprop('DIPOLE', 'QUADRUPOLE', 'MULLIKEN_CHARGES')
f=open( 'psi4out.xyz', 'w' )
f.write( "27  " )
f.write( str(ee) + "\n" )
f.write( MOL.save_string_xyz() )
f.close()
--------------------------------------------------------------------------

    Molecular point group: c1
  Charge       = 0
  Multiplicity = 1
  Basis Set: 6-31G*
  Basis Set:
  @DF-RHF Final Energy:  -388.27705029951517
    Total Energy =                       -388.2770502995150537
    Molecular point group: c1
  Basis Set: 6-31G*
  Basis Set:
  Basis Set: 6-31G*
  Basis Set:
  @DF-RHF Final Energy:  -388.27758331222498
    Total Energy =                       -388.2775833122253744
  Basis Set: 6-31G*
  Basis Set:
  Basis Set: 6-31G*
  Basis Set:
  @DF-RHF Final Energy:  -388.27767023316483
    Total Energy =                       -388.2776702331651677
  Basis Set: 6-31G*
  Basis Set:
  Basis Set: 6-31G*
  Basis Set:
  @DF-RHF Final Energy:  -388.27767320856935
    Total Energy =                       -388.2776732085693538
  Basis Set: 6-31G*
  Basis Set:
  Basis Set: 6-31G*
  Basis Set:
  @DF-RHF Final Energy:  -388.27767103946712
    Total Energy =                       -388.2776710394675774
  Basis Set: 6-31G*
  Basis Set:
  Basis Set: 6-31G*
  Basis Set:
  @DF-RHF Final Energy:  -388.27767487141824
    Total Energy =                       -388.2776748714181849
  Basis Set: 6-31G*
  Basis Set:
  Charge       = 0
  Multiplicity = 1
  Basis Set: 6-31G*
  Basis Set:

    Orbital Energies (a.u.)
    -----------------------

    Doubly Occupied:

       1A    -20.551692     2A    -11.266469     3A    -11.217516
       4A    -11.215512     5A    -11.215263     6A    -11.214909
       7A    -11.214067     8A    -11.212909     9A    -11.208520
      10A     -1.357718    11A     -1.094022    12A     -1.060799
      13A     -1.009886    14A     -0.943881    15A     -0.882638
      16A     -0.823648    17A     -0.804111    18A     -0.777181
      19A     -0.690174    20A     -0.647424    21A     -0.634070
      22A     -0.610356    23A     -0.609149    24A     -0.581107
      25A     -0.576248    26A     -0.555373    27A     -0.540162
      28A     -0.522569    29A     -0.509315    30A     -0.485388
      31A     -0.483399    32A     -0.476119    33A     -0.464371
      34A     -0.460162    35A     -0.456873    36A     -0.442513
      37A     -0.418262

  @DF-RHF Final Energy:  -388.27767538020771

   => Energetics <=

    Nuclear Repulsion Energy =            453.3416592876901632
    One-Electron Energy =               -1424.7711130199695617
    Two-Electron Energy =                 583.1517783520716876
    DFT Exchange-Correlation Energy =       0.0000000000000000
    Empirical Dispersion Energy =           0.0000000000000000
    PCM Polarization Energy =               0.0000000000000000
    EFP Energy =                            0.0000000000000000
    Total Energy =                       -388.2776753802077110
    Molecular point group: c1
  Basis Set: 6-31G*
  Basis Set:

  -Total Gradient:
     Atom            X                  Y                   Z
    ------   -----------------  -----------------  -----------------
       1       -0.000002621618     0.000072130670    -0.000015267690
       2        0.001930473533    -0.000416550865    -0.002714881318
       3       -0.002129923386    -0.000234787048     0.003959078178
       4       -0.002015549178     0.004128307265    -0.002643480805
       5        0.000039648554    -0.000077152728     0.000043678872
       6       -0.000016854076    -0.000043491153    -0.000017586243
       7        0.000015411888     0.000000809503     0.000069126410
       8        0.002189977405    -0.003493600340     0.001322981900
       9       -0.000013224704     0.000035987345     0.000003286136
      10       -0.000018690054     0.000032856861    -0.000005235064
      11        0.000024531760    -0.000012630636    -0.000011622942
      12       -0.000028992299    -0.000006227222     0.000003122604
      13        0.000015407754     0.000004909841     0.000010644831
      14        0.000010739909     0.000003037345     0.000007413183
      15       -0.000012144037     0.000001323780    -0.000001994452
      16        0.000014034621     0.000001625465    -0.000003183502
      17       -0.000002558019     0.000008026766    -0.000003879127
      18        0.000005977000    -0.000004642468     0.000006766949
      19        0.000000012319     0.000001033327    -0.000002905487
      20        0.000002778384     0.000002719835     0.000001527579
      21       -0.000000254785    -0.000002259347    -0.000007343857
      22       -0.000009808569    -0.000002280143     0.000001805823
      23        0.000000832621     0.000000640598    -0.000006430712
      24        0.000003852558     0.000000417245     0.000004077152
      25        0.000000499752    -0.000000670952     0.000003249150
      26       -0.000002857761    -0.000000265546    -0.000000046907
      27       -0.000000699575     0.000000732597    -0.000002900661

  **** Optimization is complete! (in 7 steps) ****
    Final optimized geometry and variables:
    Molecular point group: c1

    Geometry (in Angstrom), charge = 0, multiplicity = 1:

    H           -0.592167928813     4.883486116616     1.109050394475
    O            0.223292936455     4.555702358312     0.755644640355
    C            0.379718165981     3.204404850724     1.108983201270
    C           -0.671208973222     2.283739616275     0.471171892320
    H            1.367027421709     2.937856697463     0.753301397777
    H            0.389168479166     3.087199334323     2.190493929680
    C           -0.077812299701     0.955095823575    -0.009558407772
    H           -1.456347915807     2.057273825122     1.190351542345
    H           -1.123977268247     2.806723396943    -0.365349403405
    C           -1.133764616056     0.006809275171    -0.582564175913
    H            0.440847241846     0.477569739522     0.818699887567
    H            0.676184283494     1.156322254500    -0.768382436702
    C           -0.576000604481    -1.288597404823    -1.183582851136
    H           -1.856566269606    -0.239634621561     0.193674099677
    H           -1.688785247773     0.533857141913    -1.355973097697
    C            0.074919054017    -2.238396777142    -0.174410948163
    H           -1.389542003857    -1.813718992401    -1.679879958398
    H            0.143729091829    -1.041897944346    -1.962407674964
    C            0.521611226830    -3.560365463715    -0.802340536688
    H           -0.629273664543    -2.444411284378     0.630706556954
    H            0.935323280895    -1.760425010305     0.287459682175
    C            1.174410816420    -4.509150232283     0.202306376986
    H           -0.336328645064    -4.051189421153    -1.256876480801
    H            1.219690750944    -3.356325163223    -1.611540243962
    H            0.489657018820    -4.758681090055     1.008043127257
    H            1.478168020572    -5.437107574449    -0.272340063845
    H            2.058190556109    -4.061178557669     0.647909577972

  Mulliken Charges: (a.u.)
   Center  Symbol    Alpha    Beta     Spin     Total
       1     H     0.28363  0.28363  0.00000  0.43273
       2     O     4.37026  4.37026  0.00000 -0.74051
       3     C     2.99283  2.99283  0.00000  0.01434
       4     C     3.17368  3.17368  0.00000 -0.34735
       5     H     0.41506  0.41506  0.00000  0.16988
       6     H     0.42952  0.42952  0.00000  0.14096
       7     C     3.16126  3.16126  0.00000 -0.32252
       8     H     0.42380  0.42380  0.00000  0.15240
       9     H     0.41212  0.41212  0.00000  0.17576
      10     C     3.15332  3.15332  0.00000 -0.30664
      11     H     0.42125  0.42125  0.00000  0.15751
      12     H     0.41998  0.41998  0.00000  0.16003
      13     C     3.15340  3.15340  0.00000 -0.30680
      14     H     0.42425  0.42425  0.00000  0.15150
      15     H     0.42100  0.42100  0.00000  0.15799
      16     C     3.15269  3.15269  0.00000 -0.30538
      17     H     0.42174  0.42174  0.00000  0.15652
      18     H     0.42324  0.42324  0.00000  0.15353
      19     C     3.15118  3.15118  0.00000 -0.30235
      20     H     0.42499  0.42499  0.00000  0.15001
      21     H     0.42226  0.42226  0.00000  0.15549
      22     C     3.23916  3.23916  0.00000 -0.47832
      23     H     0.42317  0.42317  0.00000  0.15367
      24     H     0.42284  0.42284  0.00000  0.15432
      25     H     0.42206  0.42206  0.00000  0.15587
      26     H     0.41933  0.41933  0.00000  0.16133
      27     H     0.42198  0.42198  0.00000  0.15603

   Total alpha = 37.00000, Total beta = 37.00000, Total charge = -0.00000
