  ==> Input File <==

--------------------------------------------------------------------------
set {
	reference rhf
	basis 6-31G*
}

set_num_threads( 4 )
memory 2 gb

molecule MOL {
0 1

H	 -1.070890	 -1.366565	 0.180696
O	 -1.422729	 -0.573567	 -0.196946
C	 -0.731407	 0.539437	 0.309156
C	 0.680193	 0.672443	 -0.251532
H	 -1.319765	 1.404033	 0.030086
H	 -0.700012	 0.506517	 1.397677
C	 1.584226	 1.587933	 0.574487
H	 1.122119	 -0.317703	 -0.314449
H	 0.608551	 1.054341	 -1.267683
H	 1.736432	 1.196485	 1.575884
H	 2.562997	 1.685260	 0.116773
H	 1.161636	 2.585904	 0.662436

	symmetry c1
}
set optking {
	frozen_dihedral = ("
		8 4 3 2
	")
}

ee = optimize('scf')
oeprop('DIPOLE', 'QUADRUPOLE', 'MULLIKEN_CHARGES')
f=open( 'psi4out.xyz', 'w' )
f.write( "12  " )
f.write( str(ee) + "\n" )
f.write( MOL.save_string_xyz() )
f.close()
--------------------------------------------------------------------------

    Molecular point group: c1
  Charge       = 0
  Multiplicity = 1
  Basis Set: 6-31G*
  Basis Set:
  @DF-RHF Final Energy:  -193.10844005976810
    Total Energy =                       -193.1084400597680713
    Molecular point group: c1
  Basis Set: 6-31G*
  Basis Set:
  Basis Set: 6-31G*
  Basis Set:
  @DF-RHF Final Energy:  -193.10876347518641
    Total Energy =                       -193.1087634751864073
  Basis Set: 6-31G*
  Basis Set:
  Basis Set: 6-31G*
  Basis Set:
  @DF-RHF Final Energy:  -193.10879941293075
    Total Energy =                       -193.1087994129307503
  Basis Set: 6-31G*
  Basis Set:
  Basis Set: 6-31G*
  Basis Set:
  @DF-RHF Final Energy:  -193.10880244481760
    Total Energy =                       -193.1088024448176839
  Basis Set: 6-31G*
  Basis Set:
  Charge       = 0
  Multiplicity = 1
  Basis Set: 6-31G*
  Basis Set:

    Orbital Energies (a.u.)
    -----------------------

    Doubly Occupied:

       1A    -20.552755     2A    -11.268041     3A    -11.220063
       4A    -11.217320     5A     -1.360160     6A     -1.053275
       7A     -0.919013     8A     -0.819651     9A     -0.693211
      10A     -0.635758    11A     -0.597677    12A     -0.581360
      13A     -0.553016    14A     -0.505866    15A     -0.495158
      16A     -0.466913    17A     -0.428884

  @DF-RHF Final Energy:  -193.10880260424113

   => Energetics <=

    Nuclear Repulsion Energy =            130.8939117907734158
    One-Electron Energy =                -521.2691864357270788
    Two-Electron Energy =                 197.2664720407124719
    DFT Exchange-Correlation Energy =       0.0000000000000000
    Empirical Dispersion Energy =           0.0000000000000000
    PCM Polarization Energy =               0.0000000000000000
    EFP Energy =                            0.0000000000000000
    Total Energy =                       -193.1088026042411911
    Molecular point group: c1
  Basis Set: 6-31G*
  Basis Set:

  -Total Gradient:
     Atom            X                  Y                   Z
    ------   -----------------  -----------------  -----------------
       1        0.000000648357    -0.000023114733    -0.000001547069
       2        0.001164957781    -0.001866819969     0.002538558365
       3       -0.001878104424     0.002502335786    -0.004319446053
       4        0.002287404662    -0.000145189303     0.005713808589
       5       -0.000003992395     0.000000730033    -0.000018174376
       6       -0.000008995248    -0.000028780209     0.000005511547
       7        0.000001083778    -0.000065071040    -0.000010943745
       8       -0.001508164177    -0.000424762118    -0.003880685652
       9       -0.000027010799     0.000031868578    -0.000020282807
      10       -0.000003943065     0.000006202270    -0.000012970907
      11       -0.000012563793    -0.000010437219     0.000024766811
      12       -0.000011320673     0.000023037925    -0.000018594703

  **** Optimization is complete! (in 5 steps) ****
    Final optimized geometry and variables:
    Molecular point group: c1

    Geometry (in Angstrom), charge = 0, multiplicity = 1:

    H           -1.000733771333    -1.875269159042    -0.026231763002
    O           -1.430791723869    -1.077720350347    -0.300818425639
    C           -0.724991251976     0.024702915595     0.204400031512
    C            0.689032108253     0.134931473747    -0.364077791024
    H           -1.306797270383     0.900478630364    -0.052173793511
    H           -0.683801944457    -0.025251267135     1.292453410946
    C            1.589139726256     1.063880398536     0.446752967192
    H            1.120839806930    -0.862062474242    -0.430902977245
    H            0.624565715567     0.484957956806    -1.391059573440
    H            1.720350168014     0.700512813646     1.461970927660
    H            2.571900587864     1.148911537714    -0.004505373008
    H            1.167924554498     2.063745033067     0.506500537855

  Mulliken Charges: (a.u.)
   Center  Symbol    Alpha    Beta     Spin     Total
       1     H     0.28317  0.28317  0.00000  0.43367
       2     O     4.37030  4.37030  0.00000 -0.74059
       3     C     2.99014  2.99014  0.00000  0.01973
       4     C     3.16595  3.16595  0.00000 -0.33190
       5     H     0.41519  0.41519  0.00000  0.16962
       6     H     0.43237  0.43237  0.00000  0.13526
       7     C     3.24710  3.24710  0.00000 -0.49420
       8     H     0.42610  0.42610  0.00000  0.14780
       9     H     0.41452  0.41452  0.00000  0.17095
      10     H     0.42050  0.42050  0.00000  0.15900
      11     H     0.41547  0.41547  0.00000  0.16905
      12     H     0.41920  0.41920  0.00000  0.16161

   Total alpha = 17.00000, Total beta = 17.00000, Total charge =  0.00000
