  ==> Input File <==

--------------------------------------------------------------------------
set {
	reference rhf
	basis 6-31G*
}

set_num_threads( 4 )
memory 2 gb

molecule MOL {
0 1

H	 2.795998	 0.478103	 -2.242676
O	 1.870462	 0.312158	 -2.354273
C	 1.214095	 0.418474	 -1.178574
C	 1.861568	 0.732695	 0.009428
C	 -0.152788	 0.201638	 -1.185181
H	 2.925373	 0.901061	 0.012383
C	 1.142511	 0.829796	 1.188919
H	 -0.654137	 -0.041142	 -2.102123
C	 -0.865228	 0.300799	 0.000000
H	 1.654549	 1.073579	 2.102026
C	 -0.223820	 0.614700	 1.191567
C	 -2.333960	 0.069074	 0.000000
H	 -0.784306	 0.689608	 2.106580
O	 -2.847347	 -1.003763	 0.000000
H	 -2.943845	 0.977528	 0.000000

	symmetry c1
}
set optking {
	frozen_dihedral = ("
		11 9 12 14
	")
}

ee = optimize('scf')
oeprop('DIPOLE', 'QUADRUPOLE', 'MULLIKEN_CHARGES')
f=open( 'psi4out.xyz', 'w' )
f.write( "15  " )
f.write( str(ee) + "\n" )
f.write( MOL.save_string_xyz() )
f.close()
--------------------------------------------------------------------------

    Molecular point group: c1
  Charge       = 0
  Multiplicity = 1
  Basis Set: 6-31G*
  Basis Set:
  @DF-RHF Final Energy:  -418.27355903003041
    Total Energy =                       -418.2735590300308104
    Molecular point group: c1
  Basis Set: 6-31G*
  Basis Set:
  Basis Set: 6-31G*
  Basis Set:
  @DF-RHF Final Energy:  -418.27321981716915
    Total Energy =                       -418.2732198171692062
  Basis Set: 6-31G*
  Basis Set:
  Basis Set: 6-31G*
  Basis Set:
  @DF-RHF Final Energy:  -418.27366167683391
    Total Energy =                       -418.2736616768343083
  Basis Set: 6-31G*
  Basis Set:
  Basis Set: 6-31G*
  Basis Set:
  @DF-RHF Final Energy:  -418.27390570913946
    Total Energy =                       -418.2739057091397399
  Basis Set: 6-31G*
  Basis Set:
  Basis Set: 6-31G*
  Basis Set:
  @DF-RHF Final Energy:  -418.27390768818003
    Total Energy =                       -418.2739076881796336
  Basis Set: 6-31G*
  Basis Set:
  Charge       = 0
  Multiplicity = 1
  Basis Set: 6-31G*
  Basis Set:

    Orbital Energies (a.u.)
    -----------------------

    Doubly Occupied:

       1A    -20.602458     2A    -20.573413     3A    -11.336956
       4A    -11.313163     5A    -11.257239     6A    -11.251838
       7A    -11.241783     8A    -11.239898     9A    -11.239319
      10A     -1.422286    11A     -1.412584    12A     -1.167411
      13A     -1.047382    14A     -1.023478    15A     -0.898626
      16A     -0.841585    17A     -0.817354    18A     -0.738078
      19A     -0.699641    20A     -0.677907    21A     -0.659744
      22A     -0.639061    23A     -0.613173    24A     -0.600269
      25A     -0.581563    26A     -0.543804    27A     -0.528466
      28A     -0.511797    29A     -0.492064    30A     -0.423127
      31A     -0.352899    32A     -0.323643

  @DF-RHF Final Energy:  -418.27390831491510

   => Energetics <=

    Nuclear Repulsion Energy =            402.0123371715615690
    One-Electron Energy =               -1366.4284759221397962
    Two-Electron Energy =                 546.1422304356628956
    DFT Exchange-Correlation Energy =       0.0000000000000000
    Empirical Dispersion Energy =           0.0000000000000000
    PCM Polarization Energy =               0.0000000000000000
    EFP Energy =                            0.0000000000000000
    Total Energy =                       -418.2739083149153885
    Molecular point group: c1
  Basis Set: 6-31G*
  Basis Set:

  -Total Gradient:
     Atom            X                  Y                   Z
    ------   -----------------  -----------------  -----------------
       1       -0.000005770068     0.000010659609     0.000004817751
       2       -0.000000037742     0.000024975729     0.000008784360
       3        0.000002893858    -0.000099325720    -0.000000923863
       4        0.000001053605     0.000037014643     0.000016592912
       5       -0.000003920416     0.000010372866    -0.000007368893
       6        0.000000297569    -0.000006712099    -0.000005887133
       7        0.000066355802     0.000020224191    -0.000041978097
       8        0.000012930440     0.000016995101     0.000004632517
       9       -0.000596338292     0.003250739545     0.000747950368
      10       -0.000006563115    -0.000003949603     0.000002391405
      11        0.000287230868    -0.002279756319     0.000318464174
      12        0.000154589389    -0.000998232873    -0.003811873396
      13        0.000005561119     0.000010661740     0.000003198233
      14        0.000055502473     0.000019704361     0.002785666236
      15        0.000026214519    -0.000013371169    -0.000024466573

  **** Optimization is complete! (in 6 steps) ****
    Final optimized geometry and variables:
    Molecular point group: c1

    Geometry (in Angstrom), charge = 0, multiplicity = 1:

    H            2.835628793437     0.197674450601    -1.933558322887
    O            1.905603020183     0.057767180551    -2.044758328378
    C            1.258039518441     0.166526017179    -0.865510236761
    C            1.908650580885     0.475644008081     0.317903646100
    C           -0.113649702610    -0.047817528520    -0.872165003989
    H            2.973112921607     0.638313309804     0.322943532636
    C            1.182682173911     0.571049917399     1.494682818515
    H           -0.595484937241    -0.301952003474    -1.798035160896
    C           -0.828207381983     0.061301362342     0.306381656440
    H            1.693515599402     0.803169738411     2.411726243836
    C           -0.184764284973     0.369577618741     1.499641965857
    C           -2.309216484292    -0.187724358932     0.304927141353
    H           -0.741095497752     0.444556620502     2.416676014934
    O           -2.794037021447    -1.271081648643     0.293847537206
    H           -2.942882386919     0.702971651076     0.341788341389

  Mulliken Charges: (a.u.)
   Center  Symbol    Alpha    Beta     Spin     Total
       1     H     0.27014  0.27014  0.00000  0.45971
       2     O     4.37618  4.37618  0.00000 -0.75237
       3     C     2.79078  2.79078  0.00000  0.41844
       4     C     3.14234  3.14234  0.00000 -0.28468
       5     C     3.12629  3.12629  0.00000 -0.25257
       6     H     0.40065  0.40065  0.00000  0.19870
       7     C     3.08867  3.08867  0.00000 -0.17735
       8     H     0.38303  0.38303  0.00000  0.23393
       9     C     3.02132  3.02132  0.00000 -0.04263
      10     H     0.39368  0.39368  0.00000  0.21264
      11     C     3.11830  3.11830  0.00000 -0.23659
      12     C     2.85260  2.85260  0.00000  0.29480
      13     H     0.39363  0.39363  0.00000  0.21273
      14     O     4.22018  4.22018  0.00000 -0.44036
      15     H     0.42220  0.42220  0.00000  0.15559

   Total alpha = 32.00000, Total beta = 32.00000, Total charge =  0.00000
