                              Psi4 1.0.54 Driver

  ==> Input File <==

--------------------------------------------------------------------------
set {
	reference rhf
	basis cc-pvtz
}

set_num_threads( 4 )
memory 2 gb

molecule MOL {
0 1

H	 0.368932	 0.067620	 2.090526
C	 0.209919	 -0.484981	 1.189483
C	 0.208597	 -1.865081	 1.181972
C	 0.000000	 0.179985	 0.000046
H	 0.370006	 -2.400843	 2.096532
C	 -0.000003	 -2.552036	 -0.000010
N	 0.000000	 1.644631	 0.000076
C	 -0.209918	 -0.484932	 -1.189418
H	 -0.000000	 -3.625035	 -0.000032
C	 -0.208599	 -1.865032	 -1.181964
O	 1.050559	 2.194174	 -0.000073
O	 -1.050559	 2.194174	 -0.000074
H	 -0.368940	 0.067705	 -2.090438
H	 -0.370004	 -2.400757	 -2.096546

	symmetry c1
}
set optking {
	frozen_dihedral = ("
		2 4 7 11
	")
}

ee,wfn = optimize('scf', return_wfn=True)
oeprop( wfn, 'DIPOLE', 'QUADRUPOLE', 'MULLIKEN_CHARGES')
f=open( 'psi4out.xyz', 'w' )
f.write( "14  " )
f.write( str(ee) + "\n" )
f.write( MOL.save_string_xyz() )
f.close()
--------------------------------------------------------------------------

    Molecular point group: c1
  Charge       = 0
  Multiplicity = 1
  Basis Set: CC-PVTZ
  Basis Set:
  @DF-RHF Final Energy:  -434.32010414271190
    Total Energy =                       -434.3201041427114433
    Molecular point group: c1
  Basis Set: CC-PVTZ
  Basis Set:
  Basis Set: CC-PVTZ
  Basis Set:
  @DF-RHF Final Energy:  -434.31622169393847
    Total Energy =                       -434.3162216939383597
  Basis Set: CC-PVTZ
  Basis Set:
  Basis Set: CC-PVTZ
  Basis Set:
  @DF-RHF Final Energy:  -434.31949720634270
    Total Energy =                       -434.3194972063427031
  Basis Set: CC-PVTZ
  Basis Set:
  Basis Set: CC-PVTZ
  Basis Set:
  @DF-RHF Final Energy:  -434.32034410492298
    Total Energy =                       -434.3203441049231515
  Basis Set: CC-PVTZ
  Basis Set:
  Basis Set: CC-PVTZ
  Basis Set:
  @DF-RHF Final Energy:  -434.32036296387690
    Total Energy =                       -434.3203629638773009
  Basis Set: CC-PVTZ
  Basis Set:
  Basis Set: CC-PVTZ
  Basis Set:
  @DF-RHF Final Energy:  -434.32038540852875
    Total Energy =                       -434.3203854085290914
  Basis Set: CC-PVTZ
  Basis Set:
  Charge       = 0
  Multiplicity = 1
  Basis Set: CC-PVTZ
  Basis Set:

    Orbital Energies (a.u.)
    -----------------------

    Doubly Occupied:

       1A    -20.598507     2A    -20.598440     3A    -15.848343
       4A    -11.308160     5A    -11.267364     6A    -11.267291
       7A    -11.260879     8A    -11.260560     9A    -11.258003
      10A     -1.645808    11A     -1.428975    12A     -1.206523
      13A     -1.096682    14A     -1.056879    15A     -0.959243
      16A     -0.874947    17A     -0.831519    18A     -0.786430
      19A     -0.740736    20A     -0.738664    21A     -0.718223
      22A     -0.652006    23A     -0.650498    24A     -0.625874
      25A     -0.561725    26A     -0.553009    27A     -0.533712
      28A     -0.500822    29A     -0.485663    30A     -0.459463
      31A     -0.371623    32A     -0.370568

  @DF-RHF Final Energy:  -434.32038548064872

   => Energetics <=

    Nuclear Repulsion Energy =            417.3182891826123750
    One-Electron Energy =               -1418.2430679395220068
    Two-Electron Energy =                 566.6043932762609074
    DFT Exchange-Correlation Energy =       0.0000000000000000
    Empirical Dispersion Energy =           0.0000000000000000
    PCM Polarization Energy =               0.0000000000000000
    EFP Energy =                            0.0000000000000000
    Total Energy =                       -434.3203854806487243
    Molecular point group: c1
  Basis Set: CC-PVTZ
  Basis Set:

  -Total Gradient:
     Atom            X                  Y                   Z
    ------   -----------------  -----------------  -----------------
       1       -0.000003144161     0.000003440490     0.000002540118
       2       -0.002234758481    -0.000052416751     0.000324851267
       3       -0.000010898917     0.000013237644     0.000007372943
       4        0.003295324417     0.000073601501    -0.001446449396
       5       -0.000003981306    -0.000000375324    -0.000000259296
       6        0.000009525406    -0.000002315228    -0.000011151544
       7       -0.001103662223    -0.000046583464     0.003716032692
       8        0.000029650703     0.000001240052     0.000005407795
       9        0.000002074903     0.000000072172     0.000000021862
      10       -0.000020671843    -0.000004353800     0.000010192069
      11        0.000057212910    -0.000002305197    -0.002606384923
      12       -0.000009601935     0.000013813969    -0.000000155243
      13       -0.000004410096     0.000002035005    -0.000002486242
      14       -0.000002659379     0.000000908936     0.000000467897

  **** Optimization is complete! (in 7 steps) ****
    Final optimized geometry and variables:
    Molecular point group: c1

    Geometry (in Angstrom), charge = 0, multiplicity = 1:

    H            0.348352115464     0.070539422478     2.100969393087
    C            0.198920993611    -0.479531104096     1.193153890760
    C            0.189441592011    -1.861068123440     1.184602586935
    C            0.016310624646     0.177903559571     0.000991063877
    H            0.327689099628    -2.397627474510     2.102686829082
    C            0.003149560971    -2.547355185703    -0.000669501978
    N           -0.004579069375     1.643672876209     0.004627133016
    C           -0.187304141189    -0.476158056851    -1.189917642930
    H            0.000295578790    -3.619946103598    -0.001847574679
    C           -0.182748313079    -1.857475806347    -1.184227294083
    O            1.041044428441     2.198706683949     0.038038321604
    O           -1.065505179080     2.167332870771    -0.045330803054
    H           -0.344218729890     0.076523790828    -2.094814109435
    H           -0.330009700315    -2.391525168387    -2.102379350907

  Mulliken Charges: (a.u.)
   Center  Symbol    Alpha    Beta     Spin     Total
       1     H     0.41445  0.41445  0.00000  0.17111
       2     C     3.08501  3.08501  0.00000 -0.17002
       3     C     3.06412  3.06412  0.00000 -0.12824
       4     C     2.92408  2.92408  0.00000  0.15185
       5     H     0.41735  0.41735  0.00000  0.16529
       6     C     3.07821  3.07821  0.00000 -0.15642
       7     N     3.29232  3.29232  0.00000  0.41536
       8     C     3.08452  3.08452  0.00000 -0.16905
       9     H     0.41801  0.41801  0.00000  0.16399
      10     C     3.06402  3.06402  0.00000 -0.12805
      11     O     4.16320  4.16320  0.00000 -0.32640
      12     O     4.16302  4.16302  0.00000 -0.32604
      13     H     0.41433  0.41433  0.00000  0.17134
      14     H     0.41735  0.41735  0.00000  0.16529

   Total alpha = 32.00000, Total beta = 32.00000, Total charge = -0.00000

*** Psi4 exiting successfully. Buy a developer a beer!
