                              Psi4 1.0.54 Driver

  ==> Input File <==

--------------------------------------------------------------------------
set {
	reference rhf
	basis cc-pvtz
}

set_num_threads( 4 )
memory 2 gb

molecule MOL {
0 1

H	 -4.230259	 0.539112	 0.036360
O	 -3.515113	 -0.019339	 -0.206321
C	 -2.302264	 0.528872	 0.237390
C	 -1.175688	 -0.398187	 -0.171891
H	 -2.148018	 1.514076	 -0.197759
H	 -2.310727	 0.646384	 1.319032
C	 0.196029	 0.106276	 0.266738
H	 -1.201873	 -0.515469	 -1.250677
H	 -1.365975	 -1.378728	 0.252664
C	 1.330220	 -0.826136	 -0.155230
H	 0.359542	 1.097229	 -0.145561
H	 0.212134	 0.218135	 1.348778
C	 2.719700	 -0.407669	 0.328325
H	 1.339388	 -0.911200	 -1.239363
H	 1.119001	 -1.821953	 0.224128
C	 3.796497	 -1.480398	 0.183003
H	 2.647796	 -0.127413	 1.374744
H	 3.029546	 0.488215	 -0.203484
H	 3.510715	 -2.391284	 0.699411
H	 3.981182	 -1.732703	 -0.854263
H	 4.735224	 -1.142414	 0.606949

	symmetry c1
}
set optking {
	frozen_dihedral = ("
		16 13 10 14
	")
}

ee,wfn = optimize('scf', return_wfn=True)
oeprop( wfn, 'DIPOLE', 'QUADRUPOLE', 'MULLIKEN_CHARGES')
f=open( 'psi4out.xyz', 'w' )
f.write( "21  " )
f.write( str(ee) + "\n" )
f.write( MOL.save_string_xyz() )
f.close()
--------------------------------------------------------------------------

    Molecular point group: c1
  Charge       = 0
  Multiplicity = 1
  Basis Set: CC-PVTZ
  Basis Set:
  @DF-RHF Final Energy:  -310.33378228811370
    Total Energy =                       -310.3337822881138095
    Molecular point group: c1
  Basis Set: CC-PVTZ
  Basis Set:
  Basis Set: CC-PVTZ
  Basis Set:
  @DF-RHF Final Energy:  -310.33413681737693
    Total Energy =                       -310.3341368173772707
  Basis Set: CC-PVTZ
  Basis Set:
  Basis Set: CC-PVTZ
  Basis Set:
  @DF-RHF Final Energy:  -310.33428898958090
    Total Energy =                       -310.3342889895811254
  Basis Set: CC-PVTZ
  Basis Set:
  Basis Set: CC-PVTZ
  Basis Set:
  @DF-RHF Final Energy:  -310.33429286676721
    Total Energy =                       -310.3342928667673846
  Basis Set: CC-PVTZ
  Basis Set:
  Basis Set: CC-PVTZ
  Basis Set:
  @DF-RHF Final Energy:  -310.33429412621530
    Total Energy =                       -310.3342941262152408
  Basis Set: CC-PVTZ
  Basis Set:
  Charge       = 0
  Multiplicity = 1
  Basis Set: CC-PVTZ
  Basis Set:

    Orbital Energies (a.u.)
    -----------------------

    Doubly Occupied:

       1A    -20.545384     2A    -11.264993     3A    -11.213514
       4A    -11.212678     5A    -11.211000     6A    -11.208944
       7A    -11.205980     8A     -1.363238     9A     -1.087523
      10A     -1.035796    11A     -0.957876    12A     -0.867914
      13A     -0.802222    14A     -0.790743    15A     -0.695650
      16A     -0.665335    17A     -0.633607    18A     -0.598026
      19A     -0.581614    20A     -0.564327    21A     -0.549089
      22A     -0.522082    23A     -0.508466    24A     -0.484457
      25A     -0.477595    26A     -0.462825    27A     -0.461305
      28A     -0.444106    29A     -0.437388

  @DF-RHF Final Energy:  -310.33429415592377

   => Energetics <=

    Nuclear Repulsion Energy =            309.4408483848542346
    One-Electron Energy =               -1033.8429373919850605
    Two-Electron Energy =                 414.0677948512071680
    DFT Exchange-Correlation Energy =       0.0000000000000000
    Empirical Dispersion Energy =           0.0000000000000000
    PCM Polarization Energy =               0.0000000000000000
    EFP Energy =                            0.0000000000000000
    Total Energy =                       -310.3342941559236579
    Molecular point group: c1
  Basis Set: CC-PVTZ
  Basis Set:

  -Total Gradient:
     Atom            X                  Y                   Z
    ------   -----------------  -----------------  -----------------
       1        0.000001443954     0.000000879416     0.000000701195
       2       -0.000000011954    -0.000003217579    -0.000000824267
       3        0.000010514622     0.000003814136     0.000007928440
       4       -0.000000186693    -0.000001857306    -0.000005407219
       5       -0.000002721691    -0.000001452612    -0.000001693952
       6       -0.000004342186     0.000001916412     0.000003006448
       7       -0.000003418598     0.000006636286     0.000000007668
       8        0.000001559642     0.000000407224    -0.000002191310
       9        0.000001613305    -0.000003315390    -0.000000334547
      10        0.000744385702    -0.002928043643     0.000881508224
      11        0.000000212108     0.000004601012    -0.000003462083
      12       -0.000000435715     0.000000366875     0.000000754301
      13        0.000274912662     0.001290445867    -0.002226685685
      14       -0.000702177969     0.002189574893    -0.000214982544
      15        0.000002143141    -0.000003086434    -0.000001288488
      16       -0.000318841233    -0.000558411349     0.001565492259
      17       -0.000002005087     0.000001750926     0.000001987248
      18       -0.000002089697     0.000003972518    -0.000002336561
      19       -0.000002712114    -0.000007621115     0.000006358645
      20        0.000000478573    -0.000001442232    -0.000009834217
      21        0.000001679221     0.000004082096     0.000001296443

  **** Optimization is complete! (in 6 steps) ****
    Final optimized geometry and variables:
    Molecular point group: c1

    Geometry (in Angstrom), charge = 0, multiplicity = 1:

    H           -4.294826170941     0.941291313761    -0.107710487180
    O           -3.584242486680     0.376058808885    -0.347917155561
    C           -2.374135010786     0.884032020385     0.148026469100
    C           -1.254745388324    -0.052716818135    -0.258861096918
    H           -2.187295437557     1.879182558454    -0.250165743975
    H           -2.411967051225     0.967030145060     1.232202058536
    C            0.113337132721     0.410298866609     0.231917984378
    H           -1.253739097946    -0.137411607310    -1.340894357611
    H           -1.475219210868    -1.041532700975     0.130763827793
    C            1.244961052554    -0.534439738612    -0.166326738284
    H            0.322587700518     1.402906557923    -0.160630029300
    H            0.095974165581     0.508915865025     1.314706317141
    C            2.620861459524    -0.048683160093     0.284652332390
    H            1.240980253359    -0.641691744322    -1.248133192664
    H            1.051953250016    -1.520248181520     0.248048516566
    C            3.711669097741    -1.103182907105     0.128675573268
    H            2.569509976952     0.250764051021     1.328208879740
    H            2.889313930428     0.843365155896    -0.273910608156
    H            3.493570124373    -1.979024508724     0.730278919364
    H            3.801881220957    -1.427187626134    -0.903159868809
    H            4.676882583400    -0.719817145368     0.439374136977

  Mulliken Charges: (a.u.)
   Center  Symbol    Alpha    Beta     Spin     Total
       1     H     0.39761  0.39761  0.00000  0.20479
       2     O     4.19433  4.19433  0.00000 -0.38866
       3     C     2.96377  2.96377  0.00000  0.07246
       4     C     3.08470  3.08470  0.00000 -0.16940
       5     H     0.47490  0.47490  0.00000  0.05020
       6     H     0.47480  0.47480  0.00000  0.05039
       7     C     3.10069  3.10069  0.00000 -0.20137
       8     H     0.45100  0.45100  0.00000  0.09800
       9     H     0.45099  0.45099  0.00000  0.09803
      10     C     3.08570  3.08570  0.00000 -0.17140
      11     H     0.45557  0.45557  0.00000  0.08886
      12     H     0.45549  0.45549  0.00000  0.08901
      13     C     3.08375  3.08375  0.00000 -0.16750
      14     H     0.45367  0.45367  0.00000  0.09265
      15     H     0.45433  0.45433  0.00000  0.09134
      16     C     3.14994  3.14994  0.00000 -0.29988
      17     H     0.45626  0.45626  0.00000  0.08748
      18     H     0.45371  0.45371  0.00000  0.09259
      19     H     0.45501  0.45501  0.00000  0.08998
      20     H     0.45495  0.45495  0.00000  0.09009
      21     H     0.44883  0.44883  0.00000  0.10233

   Total alpha = 29.00000, Total beta = 29.00000, Total charge = -0.00000

*** Psi4 exiting successfully. Buy a developer a beer!
