                              Psi4 1.0.54 Driver

  ==> Input File <==

--------------------------------------------------------------------------
set {
	reference rhf
	basis cc-pvtz
}

set_num_threads( 4 )
memory 2 gb

molecule MOL {
0 1

O	 -2.817697	 1.304178	 0.001046
C	 -2.664672	 0.129869	 0.003507
C	 -3.797908	 -0.860100	 -0.001145
O	 -1.481217	 -0.452708	 0.001092
H	 -4.408836	 -0.679689	 -0.875387
H	 -3.443486	 -1.878443	 -0.002770
H	 -4.412123	 -0.683688	 0.871605
C	 -0.332055	 0.384012	 -0.000250
C	 0.892252	 -0.506059	 -0.000295
H	 -0.360822	 1.020205	 -0.874146
H	 -0.359817	 1.021310	 0.872861
C	 2.188199	 0.299473	 -0.001416
H	 0.857046	 -1.152781	 -0.871031
H	 0.857910	 -1.151798	 0.871202
C	 3.437151	 -0.577593	 -0.000991
H	 2.209565	 0.950707	 -0.871712
H	 2.210062	 0.952234	 0.867721
C	 3.706166	 -1.235039	 -1.350215
H	 3.334987	 -1.345576	 0.760469
H	 4.296037	 0.022779	 0.285288
H	 2.878606	 -1.870024	 -1.648180
H	 4.598249	 -1.849466	 -1.315962
H	 3.846779	 -0.491053	 -2.127110

	symmetry c1
}
set optking {
	frozen_dihedral = ("
		19 15 12 16
	")
}

ee,wfn = optimize('scf', return_wfn=True)
oeprop( wfn, 'DIPOLE', 'QUADRUPOLE', 'MULLIKEN_CHARGES')
f=open( 'psi4out.xyz', 'w' )
f.write( "23  " )
f.write( str(ee) + "\n" )
f.write( MOL.save_string_xyz() )
f.close()
--------------------------------------------------------------------------

    Molecular point group: c1
  Charge       = 0
  Multiplicity = 1
  Basis Set: CC-PVTZ
  Basis Set:
  @DF-RHF Final Energy:  -423.13266516941928
    Total Energy =                       -423.1326651694197380
    Molecular point group: c1
  Basis Set: CC-PVTZ
  Basis Set:
  Basis Set: CC-PVTZ
  Basis Set:
  @DF-RHF Final Energy:  -423.13262847207346
    Total Energy =                       -423.1326284720735202
  Basis Set: CC-PVTZ
  Basis Set:
  Basis Set: CC-PVTZ
  Basis Set:
  @DF-RHF Final Energy:  -423.13187525672066
    Total Energy =                       -423.1318752567207184
  Basis Set: CC-PVTZ
  Basis Set:
  Basis Set: CC-PVTZ
  Basis Set:
  @DF-RHF Final Energy:  -423.13287114939016
    Total Energy =                       -423.1328711493903256
  Basis Set: CC-PVTZ
  Basis Set:
  Basis Set: CC-PVTZ
  Basis Set:
  @DF-RHF Final Energy:  -423.13288048213900
    Total Energy =                       -423.1328804821392850
  Basis Set: CC-PVTZ
  Basis Set:
  Basis Set: CC-PVTZ
  Basis Set:
  @DF-RHF Final Energy:  -423.13288262677122
    Total Energy =                       -423.1328826267711065
  Basis Set: CC-PVTZ
  Basis Set:
  Charge       = 0
  Multiplicity = 1
  Basis Set: CC-PVTZ
  Basis Set:

    Orbital Energies (a.u.)
    -----------------------

    Doubly Occupied:

       1A    -20.595914     2A    -20.529511     3A    -11.366391
       4A    -11.279369     5A    -11.230683     6A    -11.222084
       7A    -11.221471     8A    -11.219810     9A    -11.210964
      10A     -1.471134    11A     -1.363982    12A     -1.095041
      13A     -1.042151    14A     -1.002889    15A     -0.931725
      16A     -0.852518    17A     -0.795600    18A     -0.773635
      19A     -0.694072    20A     -0.688336    21A     -0.672994
      22A     -0.635858    23A     -0.619332    24A     -0.598951
      25A     -0.578993    26A     -0.572294    27A     -0.547617
      28A     -0.537415    29A     -0.526722    30A     -0.508453
      31A     -0.498280    32A     -0.473903    33A     -0.467425
      34A     -0.466279    35A     -0.455151    36A     -0.438842

  @DF-RHF Final Energy:  -423.13288279880186

   => Energetics <=

    Nuclear Repulsion Energy =            454.4644363593155845
    One-Electron Energy =               -1476.8230625974276791
    Two-Electron Energy =                 599.2257434393103495
    DFT Exchange-Correlation Energy =       0.0000000000000000
    Empirical Dispersion Energy =           0.0000000000000000
    PCM Polarization Energy =               0.0000000000000000
    EFP Energy =                            0.0000000000000000
    Total Energy =                       -423.1328827988016883
    Molecular point group: c1
  Basis Set: CC-PVTZ
  Basis Set:

  -Total Gradient:
     Atom            X                  Y                   Z
    ------   -----------------  -----------------  -----------------
       1        0.000003756577     0.000007663072     0.000001495804
       2        0.000005194414    -0.000012041357     0.000007750781
       3       -0.000002306963    -0.000001578815    -0.000004080270
       4       -0.000011120412     0.000008162855     0.000011612001
       5       -0.000000049143    -0.000001841276     0.000000404529
       6       -0.000002603191    -0.000002428211    -0.000000336207
       7        0.000001546304     0.000001023064    -0.000001210697
       8        0.000003246638     0.000001999469    -0.000039739131
       9        0.000006632710     0.000003710735     0.000004897495
      10        0.000003771717     0.000001741269     0.000006881387
      11       -0.000005563292    -0.000003128717     0.000004277992
      12        0.000736212240     0.001086985539     0.000751546786
      13       -0.000004720721     0.000000681371     0.000000851948
      14        0.000003959941    -0.000001295137    -0.000000596128
      15        0.000620493891     0.000905698825     0.001048016490
      16       -0.000723047175    -0.001064813700    -0.000789298988
      17        0.000001197201     0.000003754571     0.000000242176
      18        0.000001228741    -0.000007277757     0.000000741398
      19       -0.000637007007    -0.000929513831    -0.001009592224
      20        0.000001680257    -0.000001825949     0.000000706089
      21        0.000006287275     0.000005016770     0.000000855811
      22       -0.000005158820     0.000003674948    -0.000002436461
      23       -0.000003631168    -0.000004367738     0.000007009419

  **** Optimization is complete! (in 7 steps) ****
    Final optimized geometry and variables:
    Molecular point group: c1

    Geometry (in Angstrom), charge = 0, multiplicity = 1:

    O           -2.697677450946     1.483601723800     0.178028771151
    C           -2.552386333604     0.308271333136     0.176578338386
    C           -3.692210126833    -0.674288170351     0.188641341307
    O           -1.372793834941    -0.281793459423     0.164259556131
    H           -4.313513992078    -0.490964837768    -0.677705232459
    H           -3.344600349736    -1.695007290132     0.183810400558
    H           -4.293533027368    -0.492568133610     1.069324707286
    C           -0.218558666020     0.547526006036     0.152022061786
    C            1.000178130698    -0.350414712924     0.139436694252
    H           -0.251502549941     1.184341451886    -0.721379849006
    H           -0.233472191252     1.184932268278     1.025472508640
    C            2.298833457730     0.454840932494     0.128869816360
    H            0.944263877599    -0.997904879961    -0.727963947539
    H            0.972696023052    -0.992651806476     1.013953777591
    C            3.563810231420    -0.407263195602     0.129919479562
    H            2.308702073290     1.100898537521    -0.745554193926
    H            2.314125396046     1.106837513337     0.997102719823
    C            3.864528324529    -1.077553412077    -1.208944574005
    H            3.474989205273    -1.172141175581     0.896321773330
    H            4.409985452775     0.212354672903     0.407259685550
    H            3.072932735242    -1.753280426744    -1.510585963285
    H            4.780508445951    -1.654363207594    -1.153527433192
    H            3.986712524170    -0.339178682332    -1.994514615329

  Mulliken Charges: (a.u.)
   Center  Symbol    Alpha    Beta     Spin     Total
       1     O     4.20241  4.20241  0.00000 -0.40481
       2     C     2.81524  2.81524  0.00000  0.36952
       3     C     3.13993  3.13993  0.00000 -0.27986
       4     O     4.14497  4.14497  0.00000 -0.28993
       5     H     0.44210  0.44210  0.00000  0.11580
       6     H     0.44190  0.44190  0.00000  0.11620
       7     H     0.44212  0.44212  0.00000  0.11576
       8     C     2.97860  2.97860  0.00000  0.04279
       9     C     3.08387  3.08387  0.00000 -0.16774
      10     H     0.45377  0.45377  0.00000  0.09246
      11     H     0.45317  0.45317  0.00000  0.09365
      12     C     3.10422  3.10422  0.00000 -0.20844
      13     H     0.45021  0.45021  0.00000  0.09959
      14     H     0.45085  0.45085  0.00000  0.09831
      15     C     3.09078  3.09078  0.00000 -0.18156
      16     H     0.45314  0.45314  0.00000  0.09373
      17     H     0.44653  0.44653  0.00000  0.10694
      18     C     3.15018  3.15018  0.00000 -0.30035
      19     H     0.45452  0.45452  0.00000  0.09095
      20     H     0.44653  0.44653  0.00000  0.10695
      21     H     0.45415  0.45415  0.00000  0.09170
      22     H     0.44630  0.44630  0.00000  0.10740
      23     H     0.45452  0.45452  0.00000  0.09096

   Total alpha = 36.00000, Total beta = 36.00000, Total charge = -0.00000

*** Psi4 exiting successfully. Buy a developer a beer!
