  ==> Input File <==

--------------------------------------------------------------------------
set {
	reference rhf
	basis 6-31G*
}

set_num_threads( 1 )
memory 2 gb

molecule MOL {
0 1

O	 3.225979	 0.970355	 -0.599647
C	 2.701189	 0.057885	 -0.047330
C	 1.245376	 -0.013843	 0.345420
O	 3.347903	 -1.046386	 0.304773
C	 0.455112	 1.231400	 -0.050772
H	 0.838542	 -0.913825	 -0.103701
H	 1.208210	 -0.175333	 1.419774
C	 -0.998893	 1.219485	 0.433193
H	 0.482531	 1.345121	 -1.130325
H	 0.957290	 2.103070	 0.354729
C	 -1.883438	 0.145884	 -0.207175
H	 -1.431207	 2.195402	 0.224832
H	 -1.019646	 1.105716	 1.516076
C	 -1.141808	 -0.690764	 -1.251688
H	 -2.269385	 -0.510606	 0.571211
H	 -2.750204	 0.605580	 -0.676609
C	 -2.017367	 -1.763412	 -1.902037
H	 -0.279632	 -1.165419	 -0.786297
H	 -0.746413	 -0.033687	 -2.024742
C	 -1.268213	 -2.596958	 -2.941109
H	 -2.414114	 -2.420290	 -1.130841
H	 -2.877435	 -1.290486	 -2.371510
H	 -1.914950	 -3.348066	 -3.384025
H	 -0.421649	 -3.111138	 -2.494854
H	 -0.888060	 -1.972464	 -3.744704
C	 4.728119	 -1.109107	 -0.004993
H	 4.882018	 -1.033965	 -1.071845
H	 5.068212	 -2.067527	 0.355250
H	 5.265056	 -0.311663	 0.488280

	symmetry c1
}
set optking {
	frozen_dihedral = ("
		21 17 14 11,
		17 14 11 15,
		6 3 5 9,
		11 8 5 9,
		2 4 26 27,
		1 2 4 26,
		6 3 2 1
	")
}

ee = energy('scf')
oeprop('DIPOLE', 'QUADRUPOLE', 'MULLIKEN_CHARGES')
f=open( 'psi4out.xyz', 'w' )
f.write( "29  " )
f.write( str(ee) + "\n" )
f.write( MOL.save_string_xyz() )
f.close()
--------------------------------------------------------------------------

    Molecular point group: c1

    Geometry (in Angstrom), charge = 0, multiplicity = 1:

       Center              X                  Y                   Z               Mass
    ------------   -----------------  -----------------  -----------------  -----------------
           O          2.412145863881     1.315227490797    -0.053686252328    15.994914619560
           C          1.887355863881     0.402757490797     0.498630747672    12.000000000000
           C          0.431542863881     0.331029490797     0.891380747672    12.000000000000
           O          2.534069863881    -0.701513509203     0.850733747672    15.994914619560
           C         -0.358721136119     1.576272490797     0.495188747672    12.000000000000
           H          0.024708863881    -0.568952509203     0.442259747672     1.007825032070
           H          0.394376863881     0.169539490797     1.965734747672     1.007825032070
           C         -1.812726136119     1.564357490797     0.979153747672    12.000000000000
           H         -0.331302136119     1.689993490797    -0.584364252328     1.007825032070
           H          0.143456863881     2.447942490797     0.900689747672     1.007825032070
           C         -2.697271136119     0.490756490797     0.338785747672    12.000000000000
           H         -2.245040136119     2.540274490797     0.770792747672     1.007825032070
           H         -1.833479136119     1.450588490797     2.062036747672     1.007825032070
           C         -1.955641136119    -0.345891509203    -0.705727252328    12.000000000000
           H         -3.083218136119    -0.165733509203     1.117171747672     1.007825032070
           H         -3.564037136119     0.950452490797    -0.130648252328     1.007825032070
           C         -2.831200136119    -1.418539509203    -1.356076252328    12.000000000000
           H         -1.093465136119    -0.820546509203    -0.240336252328     1.007825032070
           H         -1.560246136119     0.311185490797    -1.478781252328     1.007825032070
           C         -2.082046136119    -2.252085509203    -2.395148252328    12.000000000000
           H         -3.227947136119    -2.075417509203    -0.584880252328     1.007825032070
           H         -3.691268136119    -0.945613509203    -1.825549252328     1.007825032070
           H         -2.728783136119    -3.003193509203    -2.838064252328     1.007825032070
           H         -1.235482136119    -2.766265509203    -1.948893252328     1.007825032070
           H         -1.701893136119    -1.627591509203    -3.198743252328     1.007825032070
           C          3.914285863881    -0.764234509203     0.540967747672    12.000000000000
           H          4.068184863881    -0.689092509203    -0.525884252328     1.007825032070
           H          4.254378863881    -1.722654509203     0.901210747672     1.007825032070
           H          4.451222863881     0.033209490797     1.034240747672     1.007825032070

  Charge       = 0
  Multiplicity = 1
  Basis Set: 6-31G*
  Basis Set:

    Orbital Energies (a.u.)
    -----------------------

    Doubly Occupied:

       1A    -20.602924     2A    -20.544078     3A    -11.370705
       4A    -11.280382     5A    -11.230070     6A    -11.218317
       7A    -11.216479     8A    -11.214717     9A    -11.214644
      10A    -11.211018    11A    -11.209094    12A     -1.468358
      13A     -1.361678    14A     -1.106048    15A     -1.060364
      16A     -1.019636    17A     -0.973918    18A     -0.935375
      19A     -0.865979    20A     -0.812049    21A     -0.776873
      22A     -0.765048    23A     -0.702249    24A     -0.683269
      25A     -0.671762    26A     -0.647858    27A     -0.640173
      28A     -0.606178    29A     -0.594490    30A     -0.580878
      31A     -0.567996    32A     -0.552270    33A     -0.542496
      34A     -0.524351    35A     -0.520577    36A     -0.510253
      37A     -0.494572    38A     -0.483352    39A     -0.472174
      40A     -0.455872    41A     -0.452439    42A     -0.448072
      43A     -0.438740    44A     -0.425299

  @DF-RHF Final Energy:  -501.00989624601891

   => Energetics <=

    Nuclear Repulsion Energy =            644.5908308921060552
    One-Electron Energy =               -1960.2551605560483949
    Two-Electron Energy =                 814.6544334179227462
    DFT Exchange-Correlation Energy =       0.0000000000000000
    Empirical Dispersion Energy =           0.0000000000000000
    PCM Polarization Energy =               0.0000000000000000
    EFP Energy =                            0.0000000000000000
    Total Energy =                       -501.0098962460194798

  Mulliken Charges: (a.u.)
   Center  Symbol    Alpha    Beta     Spin     Total
       1     O     4.28618  4.28618  0.00000 -0.57236
       2     C     2.60407  2.60407  0.00000  0.79185
       3     C     3.21129  3.21129  0.00000 -0.42259
       4     O     4.30743  4.30743  0.00000 -0.61486
       5     C     3.16204  3.16204  0.00000 -0.32408
       6     H     0.39603  0.39603  0.00000  0.20795
       7     H     0.40096  0.40096  0.00000  0.19809
       8     C     3.16025  3.16025  0.00000 -0.32050
       9     H     0.40992  0.40992  0.00000  0.18016
      10     H     0.40595  0.40595  0.00000  0.18810
      11     C     3.15482  3.15482  0.00000 -0.30964
      12     H     0.41584  0.41584  0.00000  0.16833
      13     H     0.42099  0.42099  0.00000  0.15802
      14     C     3.15797  3.15797  0.00000 -0.31594
      15     H     0.42097  0.42097  0.00000  0.15807
      16     H     0.41814  0.41814  0.00000  0.16372
      17     C     3.14679  3.14679  0.00000 -0.29357
      18     H     0.43058  0.43058  0.00000  0.13885
      19     H     0.41990  0.41990  0.00000  0.16020
      20     C     3.23960  3.23960  0.00000 -0.47919
      21     H     0.42410  0.42410  0.00000  0.15179
      22     H     0.42344  0.42344  0.00000  0.15312
      23     H     0.41895  0.41895  0.00000  0.16211
      24     H     0.42315  0.42315  0.00000  0.15370
      25     H     0.42136  0.42136  0.00000  0.15729
      26     C     3.09227  3.09227  0.00000 -0.18454
      27     H     0.40921  0.40921  0.00000  0.18159
      28     H     0.40869  0.40869  0.00000  0.18262
      29     H     0.40914  0.40914  0.00000  0.18173

   Total alpha = 44.00000, Total beta = 44.00000, Total charge = -0.00000
