                              Psi4 1.0.54 Driver

  ==> Input File <==

--------------------------------------------------------------------------
set {
	reference rhf
	basis cc-pvtz
}

set_num_threads( 4 )
memory 2 gb

molecule MOL {
0 1

O	 2.868453	 1.353349	 -0.000734
C	 2.841259	 0.166180	 -0.000295
C	 1.542794	 -0.614730	 -0.000853
C	 4.113372	 -0.651103	 0.000743
C	 0.288398	 0.247429	 0.000314
H	 1.557171	 -1.273139	 -0.866508
H	 1.557484	 -1.274998	 0.863344
C	 -0.993089	 -0.581367	 -0.000217
H	 0.305153	 0.900562	 -0.864701
H	 0.305567	 0.898805	 0.866656
C	 -2.258482	 0.271340	 0.000669
H	 -1.002280	 -1.233920	 -0.870484
H	 -1.002061	 -1.235367	 0.868958
C	 -3.397441	 -0.331279	 -0.816864
H	 -2.024428	 1.260300	 -0.385711
H	 -2.591355	 0.417588	 1.025332
C	 -4.658383	 0.526499	 -0.811264
H	 -3.065993	 -0.476717	 -1.841525
H	 -3.632932	 -1.319317	 -0.430544
H	 -4.463834	 1.510703	 -1.224224
H	 -5.446349	 0.071017	 -1.400049
H	 -5.035104	 0.661659	 0.197129
H	 4.145311	 -1.294584	 -0.871587
H	 4.970080	 0.004978	 -0.000091
H	 4.145223	 -1.291980	 0.874988

	symmetry c1
}
set optking {
	frozen_dihedral = ("
		15 11 8 12
	")
}

ee,wfn = optimize('scf', return_wfn=True)
oeprop( wfn, 'DIPOLE', 'QUADRUPOLE', 'MULLIKEN_CHARGES')
f=open( 'psi4out.xyz', 'w' )
f.write( "25  " )
f.write( str(ee) + "\n" )
f.write( MOL.save_string_xyz() )
f.close()
--------------------------------------------------------------------------

    Molecular point group: c1
  Charge       = 0
  Multiplicity = 1
  Basis Set: CC-PVTZ
  Basis Set:
  @DF-RHF Final Energy:  -387.27109856745238
    Total Energy =                       -387.2710985674520998
    Molecular point group: c1
  Basis Set: CC-PVTZ
  Basis Set:
  Basis Set: CC-PVTZ
  Basis Set:
  @DF-RHF Final Energy:  -387.27131367675247
    Total Energy =                       -387.2713136767523565
  Basis Set: CC-PVTZ
  Basis Set:
  Basis Set: CC-PVTZ
  Basis Set:
  @DF-RHF Final Energy:  -387.27142698641353
    Total Energy =                       -387.2714269864136440
  Basis Set: CC-PVTZ
  Basis Set:
  Basis Set: CC-PVTZ
  Basis Set:
  @DF-RHF Final Energy:  -387.27121278527397
    Total Energy =                       -387.2712127852738604
  Basis Set: CC-PVTZ
  Basis Set:
  Charge       = 0
  Multiplicity = 1
  Basis Set: CC-PVTZ
  Basis Set:

    Orbital Energies (a.u.)
    -----------------------

    Doubly Occupied:

       1A    -20.538926     2A    -11.320598     3A    -11.230167
       4A    -11.226616     5A    -11.215595     6A    -11.214626
       7A    -11.214010     8A    -11.211285     9A    -11.206356
      10A     -1.398994    11A     -1.094223    12A     -1.057564
      13A     -1.015518    14A     -0.969563    15A     -0.891935
      16A     -0.816430    17A     -0.791753    18A     -0.731329
      19A     -0.658579    20A     -0.654462    21A     -0.634157
      22A     -0.625084    23A     -0.599090    24A     -0.584514
      25A     -0.567593    26A     -0.561300    27A     -0.540068
      28A     -0.529551    29A     -0.511805    30A     -0.492731
      31A     -0.488870    32A     -0.476954    33A     -0.465106
      34A     -0.456448    35A     -0.452389    36A     -0.401516

  @DF-RHF Final Energy:  -387.27143368302848

   => Energetics <=

    Nuclear Repulsion Energy =            439.2697847712420298
    One-Electron Energy =               -1395.3910293476446896
    Two-Electron Energy =                 568.8498108933736148
    DFT Exchange-Correlation Energy =       0.0000000000000000
    Empirical Dispersion Energy =           0.0000000000000000
    PCM Polarization Energy =               0.0000000000000000
    EFP Energy =                            0.0000000000000000
    Total Energy =                       -387.2714336830290449
    Molecular point group: c1
  Basis Set: CC-PVTZ
  Basis Set:

  -Total Gradient:
     Atom            X                  Y                   Z
    ------   -----------------  -----------------  -----------------
       1        0.000081186636    -0.000034960364    -0.000048608857
       2       -0.000115186308    -0.000111756357     0.000138192223
       3       -0.000016391404     0.000025097961    -0.000033059233
       4        0.000072276521     0.000074520173    -0.000040813018
       5        0.000077795323     0.000039923281     0.000005039661
       6       -0.000005386392     0.000010914298     0.000011515397
       7        0.000003447799     0.000015110281    -0.000012576015
       8        0.002582582740     0.003800020675    -0.001834400592
       9       -0.000013078160    -0.000015532179     0.000014522571
      10       -0.000001770729    -0.000026794653    -0.000017110837
      11       -0.001591589337    -0.002186271454    -0.004146409286
      12       -0.001894362903    -0.002877678307     0.002253389849
      13        0.000012336924     0.000027265979    -0.000040241290
      14       -0.000052924537    -0.000051494348    -0.000060664569
      15        0.000876670728     0.001235128133     0.003828701167
      16       -0.000002791274    -0.000001749739    -0.000053293253
      17       -0.000046623792     0.000027124648     0.000021004273
      18       -0.000004616180     0.000003406962     0.000040233822
      19        0.000001552221     0.000057797469    -0.000012689082
      20        0.000011935707    -0.000039955579     0.000019864642
      21        0.000003045727     0.000000831844     0.000005381951
      22        0.000018361263    -0.000001727817    -0.000033789962
      23       -0.000006131167     0.000022686745     0.000002455359
      24        0.000022066023    -0.000020370800    -0.000001419293
      25       -0.000012405420     0.000028463151    -0.000005225629

  **** Optimization is complete! (in 5 steps) ****
    Final optimized geometry and variables:
    Molecular point group: c1

    Geometry (in Angstrom), charge = 0, multiplicity = 1:

    O            2.855699841739     1.296762635415     0.190960489198
    C            2.821174906796     0.109985571789     0.210257473908
    C            1.518413091921    -0.663483829304     0.186197474321
    C            4.088102437044    -0.713946712257     0.259411037860
    C            0.270146786917     0.205648858096     0.137434123904
    H            1.552617597612    -1.336079327745    -0.667947030128
    H            1.504738438072    -1.309429977003     1.061072453561
    C           -1.015827255797    -0.613384295859     0.104241180171
    H            0.317284797706     0.849402296468    -0.733290536278
    H            0.262159079698     0.866660517309     0.997006662171
    C           -2.290711976521     0.242031363897     0.121955639202
    H           -1.025574550980    -1.268097921048    -0.763752682115
    H           -1.032977317652    -1.286435765674     0.958296868230
    C           -3.459753357655    -0.374063799277    -0.639045687566
    H           -2.073101621376     1.234164824317    -0.264149246099
    H           -2.589629602932     0.406357335134     1.154148007593
    C           -4.736318579056     0.455229369443    -0.553429995871
    H           -3.180178760519    -0.500175032577    -1.681388884754
    H           -3.651495083183    -1.372052742767    -0.253301014570
    H           -4.583094070569     1.450542543934    -0.956977985894
    H           -5.543355336425    -0.006822479648    -1.110401602929
    H           -5.064059224180     0.564186048679     0.474977220534
    H            4.139604433646    -1.372035604161    -0.600963833905
    H            4.948533646095    -0.062807182555     0.270820235043
    H            4.092461631953    -1.340105992334     1.144798220003

  Mulliken Charges: (a.u.)
   Center  Symbol    Alpha    Beta     Spin     Total
       1     O     4.17065  4.17065  0.00000 -0.34131
       2     C     2.86211  2.86211  0.00000  0.27578
       3     C     3.11471  3.11471  0.00000 -0.22942
       4     C     3.15133  3.15133  0.00000 -0.30265
       5     C     3.08271  3.08271  0.00000 -0.16541
       6     H     0.44513  0.44513  0.00000  0.10974
       7     H     0.44538  0.44538  0.00000  0.10925
       8     C     3.09368  3.09368  0.00000 -0.18737
       9     H     0.44607  0.44607  0.00000  0.10786
      10     H     0.44499  0.44499  0.00000  0.11002
      11     C     3.08957  3.08957  0.00000 -0.17913
      12     H     0.45539  0.45539  0.00000  0.08922
      13     H     0.45485  0.45485  0.00000  0.09031
      14     C     3.08370  3.08370  0.00000 -0.16740
      15     H     0.45215  0.45215  0.00000  0.09571
      16     H     0.45375  0.45375  0.00000  0.09251
      17     C     3.15038  3.15038  0.00000 -0.30076
      18     H     0.45484  0.45484  0.00000  0.09033
      19     H     0.45450  0.45450  0.00000  0.09100
      20     H     0.45423  0.45423  0.00000  0.09155
      21     H     0.44875  0.44875  0.00000  0.10250
      22     H     0.45503  0.45503  0.00000  0.08993
      23     H     0.45041  0.45041  0.00000  0.09917
      24     H     0.43532  0.43532  0.00000  0.12936
      25     H     0.45039  0.45039  0.00000  0.09922

   Total alpha = 36.00000, Total beta = 36.00000, Total charge = -0.00000

*** Psi4 exiting successfully. Buy a developer a beer!
