  ==> Input File <==

--------------------------------------------------------------------------
set {
	reference rhf
	basis 6-31G*
}

set_num_threads( 4 )
memory 2 gb

molecule MOL {
0 1

H	 -0.821032	 -1.655889	 0.000000
O	 -1.037828	 -0.728600	 0.000000
C	 0.100509	 -0.036935	 0.000000
C	 0.825857	 -0.154113	 -1.309978
O	 0.465591	 0.586156	 0.942176
H	 1.046743	 -1.195724	 -1.512392
H	 1.740014	 0.418469	 -1.269754
H	 0.192784	 0.209714	 -2.110955

	symmetry c1
}
set optking {
	frozen_dihedral = ("
		4 3 2 1
	")
}

ee = optimize('scf')
oeprop('DIPOLE', 'QUADRUPOLE', 'MULLIKEN_CHARGES')
f=open( 'psi4out.xyz', 'w' )
f.write( "8  " )
f.write( str(ee) + "\n" )
f.write( MOL.save_string_xyz() )
f.close()
--------------------------------------------------------------------------

    Molecular point group: c1
  Charge       = 0
  Multiplicity = 1
  Basis Set: 6-31G*
  Basis Set:
  @DF-RHF Final Energy:  -227.78718409092389
    Total Energy =                       -227.7871840909240859
    Molecular point group: c1
  Basis Set: 6-31G*
  Basis Set:
  Basis Set: 6-31G*
  Basis Set:
  @DF-RHF Final Energy:  -227.78789084992610
    Total Energy =                       -227.7878908499261001
  Basis Set: 6-31G*
  Basis Set:
  Basis Set: 6-31G*
  Basis Set:
  @DF-RHF Final Energy:  -227.78802869374067
    Total Energy =                       -227.7880286937407277
  Basis Set: 6-31G*
  Basis Set:
  Basis Set: 6-31G*
  Basis Set:
  @DF-RHF Final Energy:  -227.78924667728654
    Total Energy =                       -227.7892466772865419
  Basis Set: 6-31G*
  Basis Set:
  Basis Set: 6-31G*
  Basis Set:
  @DF-RHF Final Energy:  -227.78927537257653
    Total Energy =                       -227.7892753725764976
  Basis Set: 6-31G*
  Basis Set:
  Basis Set: 6-31G*
  Basis Set:
  @DF-RHF Final Energy:  -227.78928716248078
    Total Energy =                       -227.7892871624808322
  Basis Set: 6-31G*
  Basis Set:
  Basis Set: 6-31G*
  Basis Set:
  @DF-RHF Final Energy:  -227.78928968381581
    Total Energy =                       -227.7892896838158379
  Basis Set: 6-31G*
  Basis Set:
  Charge       = 0
  Multiplicity = 1
  Basis Set: 6-31G*
  Basis Set:

    Orbital Energies (a.u.)
    -----------------------

    Doubly Occupied:

       1A    -20.600047     2A    -20.561928     3A    -11.385930
       4A    -11.245611     5A     -1.463156     6A     -1.371167
       7A     -1.023494     8A     -0.829526     9A     -0.712437
      10A     -0.666871    11A     -0.661424    12A     -0.595272
      13A     -0.576505    14A     -0.517327    15A     -0.494664
      16A     -0.449640

  @DF-RHF Final Energy:  -227.78929186412631

   => Energetics <=

    Nuclear Repulsion Energy =            121.7517955405460413
    One-Electron Energy =                -552.7721791568801564
    Two-Electron Energy =                 203.2310917522078171
    DFT Exchange-Correlation Energy =       0.0000000000000000
    Empirical Dispersion Energy =           0.0000000000000000
    PCM Polarization Energy =               0.0000000000000000
    EFP Energy =                            0.0000000000000000
    Total Energy =                       -227.7892918641263122
    Molecular point group: c1
  Basis Set: 6-31G*
  Basis Set:

  -Total Gradient:
     Atom            X                  Y                   Z
    ------   -----------------  -----------------  -----------------
       1        0.000132390772     0.000040578776     0.004361860438
       2       -0.001027263239     0.000855311309    -0.006006693140
       3        0.002359096206    -0.003172608860     0.002700894221
       4       -0.001426150755     0.002246148524    -0.000946326334
       5       -0.000021812485     0.000020167442    -0.000094725334
       6        0.000004990248     0.000026226178     0.000018383992
       7        0.000011519779    -0.000017752132    -0.000018095861
       8       -0.000032770525     0.000001928763    -0.000015297982

  **** Optimization is complete! (in 8 steps) ****
    Final optimized geometry and variables:
    Molecular point group: c1

    Geometry (in Angstrom), charge = 0, multiplicity = 1:

    H           -0.944815866787    -1.594372083441     0.145696910487
    O           -1.106272403844    -0.658866530023     0.136469103336
    C            0.048076933240     0.055775445637     0.095691437554
    C            0.783597501286    -0.040025001295    -1.216250258889
    O            0.362370729943     0.759486651563     0.987127862317
    H            0.978795020862    -1.074602784801    -1.480136771142
    H            1.714151388191     0.504812780608    -1.161051079078
    H            0.155523846176     0.379709898091    -1.994506363764

  Mulliken Charges: (a.u.)
   Center  Symbol    Alpha    Beta     Spin     Total
       1     H     0.26791  0.26791  0.00000  0.46417
       2     O     4.35982  4.35982  0.00000 -0.71964
       3     C     2.64152  2.64152  0.00000  0.71695
       4     C     3.28831  3.28831  0.00000 -0.57663
       5     O     4.24192  4.24192  0.00000 -0.48385
       6     H     0.41202  0.41202  0.00000  0.17596
       7     H     0.39396  0.39396  0.00000  0.21207
       8     H     0.39452  0.39452  0.00000  0.21096

   Total alpha = 16.00000, Total beta = 16.00000, Total charge =  0.00000
