  ==> Input File <==

--------------------------------------------------------------------------
set {
	reference rhf
	basis 6-31G*
}

set_num_threads( 1 )
memory 2 gb

molecule MOL {
0 1

O	 -0.291628	 1.323815	 -0.000732
C	 -0.449655	 0.146360	 0.000961
C	 -1.783294	 -0.549321	 -0.000296
O	 0.550821	 -0.724572	 0.000672
H	 -1.863538	 -1.185371	 -0.874187
H	 -2.574672	 0.185258	 -0.002793
H	 -1.866414	 -1.182381	 0.875436
C	 0.316008	 -1.971535	 -0.628793
H	 -0.497598	 -2.493207	 -0.145824
H	 1.232698	 -2.530877	 -0.526011
H	 0.077978	 -1.830417	 -1.673192

	symmetry c1
}
set optking {
	frozen_dihedral = ("
		2 4 8 9
	")
}

ee = energy('scf')
oeprop('DIPOLE', 'QUADRUPOLE', 'MULLIKEN_CHARGES')
f=open( 'psi4out.xyz', 'w' )
f.write( "11  " )
f.write( str(ee) + "\n" )
f.write( MOL.save_string_xyz() )
f.close()
--------------------------------------------------------------------------

    Molecular point group: c1

    Geometry (in Angstrom), charge = 0, multiplicity = 1:

       Center              X                  Y                   Z               Mass
    ------------   -----------------  -----------------  -----------------  -----------------
           O          0.037830409805     1.702232610402     0.133031634294    15.994914619560
           C         -0.120196590195     0.524777610402     0.134724634294    12.000000000000
           C         -1.453835590195    -0.170903389598     0.133467634294    12.000000000000
           O          0.880279409805    -0.346154389598     0.134435634294    15.994914619560
           H         -1.534079590195    -0.806953389598    -0.740423365706     1.007825032070
           H         -2.245213590195     0.563675610402     0.130970634294     1.007825032070
           H         -1.536955590195    -0.803963389598     1.009199634294     1.007825032070
           C          0.645466409805    -1.593117389598    -0.495029365706    12.000000000000
           H         -0.168139590195    -2.114789389598    -0.012060365706     1.007825032070
           H          1.562156409805    -2.152459389598    -0.392247365706     1.007825032070
           H          0.407436409805    -1.451999389598    -1.539428365706     1.007825032070

  Charge       = 0
  Multiplicity = 1
  Basis Set: 6-31G*
  Basis Set:

    Orbital Energies (a.u.)
    -----------------------

    Doubly Occupied:

       1A    -20.605333     2A    -20.548192     3A    -11.379026
       4A    -11.299870     5A    -11.240723     6A     -1.469450
       7A     -1.371340     8A     -1.025483     9A     -0.989319
      10A     -0.785011    11A     -0.700347    12A     -0.692689
      13A     -0.684218    14A     -0.614179    15A     -0.590779
      16A     -0.568826    17A     -0.553934    18A     -0.515203
      19A     -0.455740    20A     -0.437242

  @DF-RHF Final Energy:  -266.81173962619391

   => Energetics <=

    Nuclear Repulsion Energy =            184.8791929242568415
    One-Electron Energy =                -730.3279790856136060
    Two-Electron Energy =                 278.6370465351626535
    DFT Exchange-Correlation Energy =       0.0000000000000000
    Empirical Dispersion Energy =           0.0000000000000000
    PCM Polarization Energy =               0.0000000000000000
    EFP Energy =                            0.0000000000000000
    Total Energy =                       -266.8117396261941394

  Mulliken Charges: (a.u.)
   Center  Symbol    Alpha    Beta     Spin     Total
       1     O     4.26506  4.26506  0.00000 -0.53011
       2     C     2.61163  2.61163  0.00000  0.77675
       3     C     3.31617  3.31617  0.00000 -0.63235
       4     O     4.29293  4.29293  0.00000 -0.58586
       5     H     0.40260  0.40260  0.00000  0.19479
       6     H     0.38988  0.38988  0.00000  0.22024
       7     H     0.39801  0.39801  0.00000  0.20397
       8     C     3.10396  3.10396  0.00000 -0.20791
       9     H     0.41254  0.41254  0.00000  0.17491
      10     H     0.39629  0.39629  0.00000  0.20742
      11     H     0.41093  0.41093  0.00000  0.17814

   Total alpha = 20.00000, Total beta = 20.00000, Total charge = -0.00000
