  ==> Input File <==

--------------------------------------------------------------------------
set {
	reference rhf
	basis 6-31G*
}

set_num_threads( 4 )
memory 2 gb

molecule MOL {
0 1

O	 0.625848	 1.349995	 -0.000749
C	 0.486307	 0.169203	 0.000779
C	 1.608116	 -0.841643	 0.000302
O	 -0.698257	 -0.426125	 0.001050
C	 2.990107	 -0.200498	 -0.000684
H	 1.468623	 -1.481519	 -0.865924
H	 1.469683	 -1.481289	 0.866878
H	 3.129736	 0.423364	 -0.875135
H	 3.757882	 -0.966877	 -0.001197
H	 3.130964	 0.423383	 0.873533
C	 -1.384143	 -0.525776	 1.244847
C	 -2.696355	 -1.234543	 0.983964
H	 -1.538760	 0.467884	 1.642738
H	 -0.766979	 -1.072008	 1.945083
H	 -3.300421	 -0.677715	 0.276712
H	 -3.253945	 -1.332155	 1.909823
H	 -2.524527	 -2.226086	 0.580760

	symmetry c1
}
set optking {
	frozen_dihedral = ("
		11 4 2 3
	")
}

ee = optimize('scf')
oeprop('DIPOLE', 'QUADRUPOLE', 'MULLIKEN_CHARGES')
f=open( 'psi4out.xyz', 'w' )
f.write( "17  " )
f.write( str(ee) + "\n" )
f.write( MOL.save_string_xyz() )
f.close()
--------------------------------------------------------------------------

    Molecular point group: c1
  Charge       = 0
  Multiplicity = 1
  Basis Set: 6-31G*
  Basis Set:
  @DF-RHF Final Energy:  -344.89266426303647
    Total Energy =                       -344.8926642630367496
    Molecular point group: c1
  Basis Set: 6-31G*
  Basis Set:
  Basis Set: 6-31G*
  Basis Set:
  @DF-RHF Final Energy:  -344.89335213816167
    Total Energy =                       -344.8933521381615037
  Basis Set: 6-31G*
  Basis Set:
  Basis Set: 6-31G*
  Basis Set:
  @DF-RHF Final Energy:  -344.89266367691062
    Total Energy =                       -344.8926636769108427
  Basis Set: 6-31G*
  Basis Set:
  Basis Set: 6-31G*
  Basis Set:
  @DF-RHF Final Energy:  -344.89365548830756
    Total Energy =                       -344.8936554883077292
  Basis Set: 6-31G*
  Basis Set:
  Basis Set: 6-31G*
  Basis Set:
  @DF-RHF Final Energy:  -344.89366861848464
    Total Energy =                       -344.8936686184842983
  Basis Set: 6-31G*
  Basis Set:
  Charge       = 0
  Multiplicity = 1
  Basis Set: 6-31G*
  Basis Set:

    Orbital Energies (a.u.)
    -----------------------

    Doubly Occupied:

       1A    -20.582480     2A    -20.556176     3A    -11.374126
       4A    -11.294445     5A    -11.241473     6A    -11.224208
       7A    -11.218455     8A     -1.457885     9A     -1.365691
      10A     -1.065940    11A     -1.035842    12A     -0.905291
      13A     -0.861560    14A     -0.769635    15A     -0.700931
      16A     -0.683172    17A     -0.656795    18A     -0.634983
      19A     -0.602965    20A     -0.563531    21A     -0.556410
      22A     -0.529152    23A     -0.525834    24A     -0.520008
      25A     -0.505914    26A     -0.489498    27A     -0.450108
      28A     -0.434487

  @DF-RHF Final Energy:  -344.89366954548262

   => Energetics <=

    Nuclear Repulsion Energy =            314.3547757141886336
    One-Electron Energy =               -1092.8828949204753371
    Two-Electron Energy =                 433.6344496608041368
    DFT Exchange-Correlation Energy =       0.0000000000000000
    Empirical Dispersion Energy =           0.0000000000000000
    PCM Polarization Energy =               0.0000000000000000
    EFP Energy =                            0.0000000000000000
    Total Energy =                       -344.8936695454825099
    Molecular point group: c1
  Basis Set: 6-31G*
  Basis Set:

  -Total Gradient:
     Atom            X                  Y                   Z
    ------   -----------------  -----------------  -----------------
       1        0.000009587308    -0.000008508399    -0.000006543147
       2        0.000795198194    -0.001673232219    -0.004900154279
       3       -0.000094910864     0.000048054346     0.003667440574
       4       -0.002585260861     0.005234997821     0.000525653802
       5        0.000027118371    -0.000003930549    -0.000001385688
       6        0.000008556560    -0.000014123392     0.000001727181
       7       -0.000008199552    -0.000007339360    -0.000006612164
       8       -0.000003428263    -0.000004446940     0.000009645889
       9        0.000021562919     0.000003621589    -0.000000333821
      10       -0.000002462983    -0.000006042195    -0.000009670345
      11        0.001856421853    -0.003595138859     0.000729411856
      12       -0.000015318960     0.000007426778    -0.000019408642
      13        0.000028263890    -0.000011506122    -0.000020220607
      14       -0.000030797322     0.000019432162     0.000037991635
      15       -0.000016327026    -0.000005268916    -0.000006088461
      16        0.000003380219     0.000011473181    -0.000003202407
      17        0.000006616514     0.000004531073     0.000001748625

  **** Optimization is complete! (in 6 steps) ****
    Final optimized geometry and variables:
    Molecular point group: c1

    Geometry (in Angstrom), charge = 0, multiplicity = 1:

    O            0.487244942206     1.569273619365    -0.309263449450
    C            0.375586833236     0.392325105419    -0.323087283896
    C            1.525604159608    -0.584934928181    -0.315064210983
    O           -0.832928286237    -0.212924428708    -0.331699768192
    C            2.894604316318     0.082504072272    -0.340768576688
    H            1.392469274203    -1.252293528824    -1.161807414281
    H            1.408311448285    -1.208629729701     0.567976812098
    H            3.013450119544     0.689062534750    -1.230428388996
    H            3.678771613809    -0.666989924619    -0.331212307680
    H            3.029442023209     0.729251088743     0.517732729334
    C           -1.512597120527    -0.302801359882     0.912137076926
    C           -2.855916758322    -0.953476449364     0.661306443255
    H           -1.630163162038     0.691437022187     1.325721112628
    H           -0.921315409660    -0.894737263847     1.604990425133
    H           -3.438576706723    -0.358599399064    -0.031815337399
    H           -3.406897181027    -1.041623021569     1.592133557769
    H           -2.726813284076    -1.943828750142     0.240371359836

  Mulliken Charges: (a.u.)
   Center  Symbol    Alpha    Beta     Spin     Total
       1     O     4.25546  4.25546  0.00000 -0.51091
       2     C     2.61173  2.61173  0.00000  0.77655
       3     C     3.20929  3.20929  0.00000 -0.41858
       4     O     4.32309  4.32309  0.00000 -0.64619
       5     C     3.23945  3.23945  0.00000 -0.47890
       6     H     0.39874  0.39874  0.00000  0.20252
       7     H     0.40648  0.40648  0.00000  0.18705
       8     H     0.40890  0.40890  0.00000  0.18221
       9     H     0.41786  0.41786  0.00000  0.16429
      10     H     0.41028  0.41028  0.00000  0.17944
      11     C     3.00303  3.00303  0.00000 -0.00606
      12     C     3.24662  3.24662  0.00000 -0.49325
      13     H     0.40904  0.40904  0.00000  0.18191
      14     H     0.42451  0.42451  0.00000  0.15098
      15     H     0.40674  0.40674  0.00000  0.18651
      16     H     0.41745  0.41745  0.00000  0.16510
      17     H     0.41134  0.41134  0.00000  0.17733

   Total alpha = 28.00000, Total beta = 28.00000, Total charge =  0.00000
