  ==> Input File <==

--------------------------------------------------------------------------
set {
	reference rhf
	basis 6-31G*
}

set_num_threads( 1 )
memory 2 gb

molecule MOL {
0 1

O	 0.749854	 1.307668	 -0.000040
C	 0.576249	 0.131685	 -0.000108
C	 -0.766779	 -0.556801	 -0.000461
O	 1.568443	 -0.749345	 -0.000005
C	 -1.945214	 0.412366	 0.000161
H	 -0.796911	 -1.211249	 -0.867467
H	 -0.796854	 -1.212390	 0.865687
C	 -3.286274	 -0.315263	 0.081895
H	 -1.908484	 1.021207	 -0.896815
H	 -1.844586	 1.097692	 0.834892
H	 -3.424802	 -0.985814	 -0.761683
H	 -4.110304	 0.390693	 0.080542
H	 -3.360654	 -0.907553	 0.989713
C	 2.886820	 -0.232538	 0.000322
H	 3.059106	 0.369571	 -0.880203
H	 3.540187	 -1.091012	 0.000050
H	 3.059019	 0.368956	 0.881266

	symmetry c1
}
set optking {
	frozen_dihedral = ("
		1 2 3 6,
		14 4 2 1
	")
}

ee = energy('scf')
oeprop('DIPOLE', 'QUADRUPOLE', 'MULLIKEN_CHARGES')
f=open( 'psi4out.xyz', 'w' )
f.write( "17  " )
f.write( str(ee) + "\n" )
f.write( MOL.save_string_xyz() )
f.close()
--------------------------------------------------------------------------

    Molecular point group: c1

    Geometry (in Angstrom), charge = 0, multiplicity = 1:

       Center              X                  Y                   Z               Mass
    ------------   -----------------  -----------------  -----------------  -----------------
           O          0.749630802383     1.307404289383    -0.012079954618    15.994914619560
           C          0.576025802383     0.131421289383    -0.012147954618    12.000000000000
           C         -0.767002197617    -0.557064710617    -0.012500954618    12.000000000000
           O          1.568219802383    -0.749608710617    -0.012044954618    15.994914619560
           C         -1.945437197617     0.412102289383    -0.011878954618    12.000000000000
           H         -0.797134197617    -1.211512710617    -0.879506954618     1.007825032070
           H         -0.797077197617    -1.212653710617     0.853647045382     1.007825032070
           C         -3.286497197617    -0.315526710617     0.069855045382    12.000000000000
           H         -1.908707197617     1.020943289383    -0.908854954618     1.007825032070
           H         -1.844809197617     1.097428289383     0.822852045382     1.007825032070
           H         -3.425025197617    -0.986077710617    -0.773722954618     1.007825032070
           H         -4.110527197617     0.390429289383     0.068502045382     1.007825032070
           H         -3.360877197617    -0.907816710617     0.977673045382     1.007825032070
           C          2.886596802383    -0.232801710617    -0.011717954618    12.000000000000
           H          3.058882802383     0.369307289383    -0.892242954618     1.007825032070
           H          3.539963802383    -1.091275710617    -0.011989954618     1.007825032070
           H          3.058795802383     0.368692289383     0.869226045382     1.007825032070

  Charge       = 0
  Multiplicity = 1
  Basis Set: 6-31G*
  Basis Set:

    Orbital Energies (a.u.)
    -----------------------

    Doubly Occupied:

       1A    -20.604056     2A    -20.545893     3A    -11.372714
       4A    -11.281142     5A    -11.236064     6A    -11.221950
       7A    -11.214589     8A     -1.469778     9A     -1.363248
      10A     -1.080632    11A     -1.001512    12A     -0.939808
      13A     -0.827284    14A     -0.767384    15A     -0.700436
      16A     -0.683615    17A     -0.672345    18A     -0.637011
      19A     -0.595247    20A     -0.574738    21A     -0.569018
      22A     -0.527424    23A     -0.521948    24A     -0.498649
      25A     -0.487117    26A     -0.478832    27A     -0.456378
      28A     -0.438290

  @DF-RHF Final Energy:  -344.90682235874073

   => Energetics <=

    Nuclear Repulsion Energy =            312.4838033286038694
    One-Electron Energy =               -1089.2468603608617741
    Two-Electron Energy =                 431.8562346735171218
    DFT Exchange-Correlation Energy =       0.0000000000000000
    Empirical Dispersion Energy =           0.0000000000000000
    PCM Polarization Energy =               0.0000000000000000
    EFP Energy =                            0.0000000000000000
    Total Energy =                       -344.9068223587407260

  Mulliken Charges: (a.u.)
   Center  Symbol    Alpha    Beta     Spin     Total
       1     O     4.28582  4.28582  0.00000 -0.57164
       2     C     2.60616  2.60616  0.00000  0.78767
       3     C     3.20605  3.20605  0.00000 -0.41209
       4     O     4.30696  4.30696  0.00000 -0.61393
       5     C     3.15199  3.15199  0.00000 -0.30397
       6     H     0.40080  0.40080  0.00000  0.19839
       7     H     0.40104  0.40104  0.00000  0.19791
       8     C     3.24279  3.24279  0.00000 -0.48558
       9     H     0.41174  0.41174  0.00000  0.17652
      10     H     0.40995  0.40995  0.00000  0.18010
      11     H     0.42144  0.42144  0.00000  0.15713
      12     H     0.41513  0.41513  0.00000  0.16974
      13     H     0.42125  0.42125  0.00000  0.15750
      14     C     3.09248  3.09248  0.00000 -0.18496
      15     H     0.40900  0.40900  0.00000  0.18199
      16     H     0.40837  0.40837  0.00000  0.18326
      17     H     0.40902  0.40902  0.00000  0.18196

   Total alpha = 28.00000, Total beta = 28.00000, Total charge =  0.00000
