  ==> Input File <==

--------------------------------------------------------------------------
set {
	reference rhf
	basis 6-31G*
}

set_num_threads( 1 )
memory 2 gb

molecule MOL {
0 1

O	 1.599059	 0.669487	 0.940852
C	 1.122059	 0.121804	 -0.000188
C	 -0.170150	 -0.657997	 -0.000612
O	 1.680999	 0.126399	 -1.203741
C	 -1.412532	 0.227344	 -0.000452
H	 -0.153702	 -1.313099	 -0.867402
H	 -0.153924	 -1.313811	 0.865644
C	 -2.706999	 -0.587347	 -0.000541
H	 -1.388000	 0.879466	 -0.868000
H	 -1.387972	 0.879138	 0.867341
C	 -3.956778	 0.291888	 0.000910
H	 -2.726114	 -1.239230	 -0.871609
H	 -2.725217	 -1.240844	 0.869333
H	 -3.985213	 0.933254	 -0.875158
H	 -4.860123	 -0.309979	 0.000519
H	 -3.984618	 0.931166	 0.878514
C	 2.904142	 0.826439	 -1.341598
H	 2.773226	 1.871433	 -1.100070
H	 3.193182	 0.714848	 -2.375016
H	 3.658844	 0.404029	 -0.693908

	symmetry c1
}
set optking {
	frozen_dihedral = ("
		9 5 8 12,
		9 5 3 6,
		1 2 4 17
	")
}

ee = energy('scf')
oeprop('DIPOLE', 'QUADRUPOLE', 'MULLIKEN_CHARGES')
f=open( 'psi4out.xyz', 'w' )
f.write( "20  " )
f.write( str(ee) + "\n" )
f.write( MOL.save_string_xyz() )
f.close()
--------------------------------------------------------------------------

    Molecular point group: c1

    Geometry (in Angstrom), charge = 0, multiplicity = 1:

       Center              X                  Y                   Z               Mass
    ------------   -----------------  -----------------  -----------------  -----------------
           O          1.685292810408     0.526474423542     1.152053863530    15.994914619560
           C          1.208292810408    -0.021208576458     0.211013863530    12.000000000000
           C         -0.083916189592    -0.801009576458     0.210589863530    12.000000000000
           O          1.767232810408    -0.016613576458    -0.992539136470    15.994914619560
           C         -1.326298189592     0.084331423542     0.210749863530    12.000000000000
           H         -0.067468189592    -1.456111576458    -0.656200136470     1.007825032070
           H         -0.067690189592    -1.456823576458     1.076845863530     1.007825032070
           C         -2.620765189592    -0.730359576458     0.210660863530    12.000000000000
           H         -1.301766189592     0.736453423542    -0.656798136470     1.007825032070
           H         -1.301738189592     0.736125423542     1.078542863530     1.007825032070
           C         -3.870544189592     0.148875423542     0.212111863530    12.000000000000
           H         -2.639880189592    -1.382242576458    -0.660407136470     1.007825032070
           H         -2.638983189592    -1.383856576458     1.080534863530     1.007825032070
           H         -3.898979189592     0.790241423542    -0.663956136470     1.007825032070
           H         -4.773889189592    -0.452991576458     0.211720863530     1.007825032070
           H         -3.898384189592     0.788153423542     1.089715863530     1.007825032070
           C          2.990375810408     0.683426423542    -1.130396136470    12.000000000000
           H          2.859459810408     1.728420423542    -0.888868136470     1.007825032070
           H          3.279415810408     0.571835423542    -2.163814136470     1.007825032070
           H          3.745077810408     0.261016423542    -0.482706136470     1.007825032070

  Charge       = 0
  Multiplicity = 1
  Basis Set: 6-31G*
  Basis Set:

    Orbital Energies (a.u.)
    -----------------------

    Doubly Occupied:

       1A    -20.604649     2A    -20.543222     3A    -11.371189
       4A    -11.280276     5A    -11.233397     6A    -11.229230
       7A    -11.224454     8A    -11.214091     9A     -1.468869
      10A     -1.361481    11A     -1.092949    12A     -1.025420
      13A     -0.968713    14A     -0.889488    15A     -0.808203
      16A     -0.772514    17A     -0.693719    18A     -0.679867
      19A     -0.673050    20A     -0.646375    21A     -0.599817
      22A     -0.591741    23A     -0.573125    24A     -0.554558
      25A     -0.534216    26A     -0.521888    27A     -0.505980
      28A     -0.483189    29A     -0.480973    30A     -0.474588
      31A     -0.453693    32A     -0.430722

  @DF-RHF Final Energy:  -383.93926665247523

   => Energetics <=

    Nuclear Repulsion Energy =            381.8527652258444505
    One-Electron Energy =               -1279.6127756324497113
    Two-Electron Energy =                 513.8207437541295803
    DFT Exchange-Correlation Energy =       0.0000000000000000
    Empirical Dispersion Energy =           0.0000000000000000
    PCM Polarization Energy =               0.0000000000000000
    EFP Energy =                            0.0000000000000000
    Total Energy =                       -383.9392666524756805

  Mulliken Charges: (a.u.)
   Center  Symbol    Alpha    Beta     Spin     Total
       1     O     4.28528  4.28528  0.00000 -0.57056
       2     C     2.61458  2.61458  0.00000  0.77085
       3     C     3.19906  3.19906  0.00000 -0.39813
       4     O     4.30243  4.30243  0.00000 -0.60486
       5     C     3.16129  3.16129  0.00000 -0.32258
       6     H     0.40238  0.40238  0.00000  0.19525
       7     H     0.40182  0.40182  0.00000  0.19636
       8     C     3.15372  3.15372  0.00000 -0.30744
       9     H     0.41457  0.41457  0.00000  0.17086
      10     H     0.40754  0.40754  0.00000  0.18491
      11     C     3.24037  3.24037  0.00000 -0.48074
      12     H     0.42057  0.42057  0.00000  0.15886
      13     H     0.41973  0.41973  0.00000  0.16055
      14     H     0.42039  0.42039  0.00000  0.15921
      15     H     0.41745  0.41745  0.00000  0.16509
      16     H     0.41928  0.41928  0.00000  0.16143
      17     C     3.09312  3.09312  0.00000 -0.18623
      18     H     0.40903  0.40903  0.00000  0.18194
      19     H     0.40869  0.40869  0.00000  0.18262
      20     H     0.40869  0.40869  0.00000  0.18261

   Total alpha = 32.00000, Total beta = 32.00000, Total charge = -0.00000
