  ==> Input File <==

--------------------------------------------------------------------------
set {
	reference rhf
	basis 6-31G*
}

set_num_threads( 4 )
memory 2 gb

molecule MOL {
0 1

H	 -0.367348	 2.047014	 -0.308205
C	 0.352277	 1.337084	 0.083769
N	 -0.000016	 0.000074	 -0.335546
H	 1.328359	 1.600444	 -0.307950
H	 0.381933	 1.450534	 1.172486
C	 -0.683089	 -0.730468	 0.707521
C	 -0.747455	 0.001204	 -1.572271
H	 -0.867313	 -1.748459	 0.383318
H	 -0.062525	 -0.770182	 1.595658
H	 -1.643572	 -0.283739	 0.984631
H	 -0.173939	 0.495387	 -2.348310
H	 -0.931765	 -1.018342	 -1.891636
H	 -1.713264	 0.510244	 -1.488483

	symmetry c1
}
set optking {
	frozen_dihedral = ("
		6 3 2 1
	")
}

ee = optimize('scf')
oeprop('DIPOLE', 'QUADRUPOLE', 'MULLIKEN_CHARGES')
f=open( 'psi4out.xyz', 'w' )
f.write( "13  " )
f.write( str(ee) + "\n" )
f.write( MOL.save_string_xyz() )
f.close()
--------------------------------------------------------------------------

    Molecular point group: c1
  Charge       = 0
  Multiplicity = 1
  Basis Set: 6-31G*
  Basis Set:
  @DF-RHF Final Energy:  -173.26379033475595
    Total Energy =                       -173.2637903347559813
    Molecular point group: c1
  Basis Set: 6-31G*
  Basis Set:
  Basis Set: 6-31G*
  Basis Set:
  @DF-RHF Final Energy:  -173.26480271790825
    Total Energy =                       -173.2648027179083101
  Basis Set: 6-31G*
  Basis Set:
  Basis Set: 6-31G*
  Basis Set:
  @DF-RHF Final Energy:  -173.26497060162731
    Total Energy =                       -173.2649706016272262
  Basis Set: 6-31G*
  Basis Set:
  Basis Set: 6-31G*
  Basis Set:
  @DF-RHF Final Energy:  -173.26498307733351
    Total Energy =                       -173.2649830773335680
  Basis Set: 6-31G*
  Basis Set:
  Charge       = 0
  Multiplicity = 1
  Basis Set: 6-31G*
  Basis Set:

    Orbital Energies (a.u.)
    -----------------------

    Doubly Occupied:

       1A    -15.539473     2A    -11.235848     3A    -11.235614
       4A    -11.235521     5A     -1.220675     6A     -0.952606
       7A     -0.951179     8A     -0.805064     9A     -0.637097
      10A     -0.630687    11A     -0.628616    12A     -0.548214
      13A     -0.542262    14A     -0.516975    15A     -0.503629
      16A     -0.501414    17A     -0.337249

  @DF-RHF Final Energy:  -173.26498412240500

   => Energetics <=

    Nuclear Repulsion Energy =            138.8316850777758305
    One-Electron Energy =                -508.1490930924109080
    Two-Electron Energy =                 196.0524238922300810
    DFT Exchange-Correlation Energy =       0.0000000000000000
    Empirical Dispersion Energy =           0.0000000000000000
    PCM Polarization Energy =               0.0000000000000000
    EFP Energy =                            0.0000000000000000
    Total Energy =                       -173.2649841224049965
    Molecular point group: c1
  Basis Set: 6-31G*
  Basis Set:

  -Total Gradient:
     Atom            X                  Y                   Z
    ------   -----------------  -----------------  -----------------
       1        0.002655200796     0.000490747673    -0.004326932931
       2       -0.002012358199    -0.001157962781     0.006108061626
       3       -0.004123779415     0.002025519924    -0.002914731842
       4       -0.000013711891    -0.000002298372    -0.000017240675
       5        0.000008098687    -0.000010812785     0.000003886337
       6        0.003473153665    -0.001334644828     0.001178502346
       7        0.000030352851    -0.000000578534    -0.000020244913
       8        0.000001510786     0.000009636195    -0.000002404727
       9       -0.000002997536    -0.000012531774     0.000021837043
      10        0.000003840684    -0.000004574878    -0.000008444524
      11       -0.000015068842    -0.000002645206    -0.000014393282
      12       -0.000011018584    -0.000000764304    -0.000018021874
      13        0.000006776998     0.000000909668     0.000010127416

  **** Optimization is complete! (in 5 steps) ****
    Final optimized geometry and variables:
    Molecular point group: c1

    Geometry (in Angstrom), charge = 0, multiplicity = 1:

    H           -0.046033489742     1.956623756357     0.010928733130
    C            0.652607076476     1.189495704941     0.350375778061
    N            0.251512330195    -0.146038454929    -0.045650194791
    H            1.616814207340     1.434729317097    -0.087468162832
    H            0.750665290393     1.258933273724     1.426051983323
    C           -0.399900710017    -0.906285763412     0.993669636561
    C           -0.442511806513    -0.173659155036    -1.308002883869
    H           -0.561779834947    -1.922721506038     0.652159210377
    H            0.235177450034    -0.949858275243     1.870634381758
    H           -1.369757977292    -0.496932918639     1.296220398749
    H            0.155884131436     0.319817652536    -2.066315471117
    H           -0.597799662443    -1.199238062679    -1.623983378179
    H           -1.417789669361     0.323353761375    -1.273100137959

  Mulliken Charges: (a.u.)
   Center  Symbol    Alpha    Beta     Spin     Total
       1     H     0.43044  0.43044  0.00000  0.13911
       2     C     3.14177  3.14177  0.00000 -0.28354
       3     N     3.77167  3.77167  0.00000 -0.54333
       4     H     0.41680  0.41680  0.00000  0.16640
       5     H     0.41880  0.41880  0.00000  0.16240
       6     C     3.13912  3.13912  0.00000 -0.27825
       7     C     3.14030  3.14030  0.00000 -0.28060
       8     H     0.41826  0.41826  0.00000  0.16349
       9     H     0.41700  0.41700  0.00000  0.16600
      10     H     0.43591  0.43591  0.00000  0.12817
      11     H     0.41698  0.41698  0.00000  0.16605
      12     H     0.41768  0.41768  0.00000  0.16465
      13     H     0.43527  0.43527  0.00000  0.12946

   Total alpha = 17.00000, Total beta = 17.00000, Total charge = -0.00000
