  ==> Input File <==

--------------------------------------------------------------------------
set {
	reference rhf
	basis cc-pvtz
}

set_num_threads( 4 )
memory 2 gb

molecule MOL {
0 1

H	 0.705678	 -1.968183	 -0.899450
C	 -0.021812	 -1.184023	 -1.116938
N	 -0.537714	 -0.645117	 0.000000
O	 -0.295524	 -0.875005	 -2.233319
C	 -1.522613	 0.412524	 0.000000
H	 -0.217502	 -1.000693	 0.866610
H	 -2.150256	 0.356137	 -0.880771
H	 -1.005621	 1.357208	 0.000000
H	 -2.150256	 0.356137	 0.880771

	symmetry c1
}
set optking {
	frozen_dihedral = ("
		6 3 5 7
	")
}

ee = optimize('scf')
oeprop('DIPOLE', 'QUADRUPOLE', 'MULLIKEN_CHARGES')
f=open( 'psi4out.xyz', 'w' )
f.write( "9  " )
f.write( str(ee) + "\n" )
f.write( MOL.save_string_xyz() )
f.close()
--------------------------------------------------------------------------

    Molecular point group: c1
  Charge       = 0
  Multiplicity = 1
  Basis Set: CC-PVTZ
  Basis Set:
  @DF-RHF Final Energy:  -208.04290464745586
    Total Energy =                       -208.0429046474557424
    Molecular point group: c1
  Basis Set: CC-PVTZ
  Basis Set:
  Basis Set: CC-PVTZ
  Basis Set:
  @DF-RHF Final Energy:  -208.04350719782644
    Total Energy =                       -208.0435071978263579
  Basis Set: CC-PVTZ
  Basis Set:
  Basis Set: CC-PVTZ
  Basis Set:
  @DF-RHF Final Energy:  -208.04361229492349
    Total Energy =                       -208.0436122949235198
  Basis Set: CC-PVTZ
  Basis Set:
  Basis Set: CC-PVTZ
  Basis Set:
  @DF-RHF Final Energy:  -208.04352808950856
    Total Energy =                       -208.0435280895085270
  Basis Set: CC-PVTZ
  Basis Set:
  Basis Set: CC-PVTZ
  Basis Set:
  @DF-RHF Final Energy:  -208.04364528456162
    Total Energy =                       -208.0436452845616486
  Basis Set: CC-PVTZ
  Basis Set:
  Basis Set: CC-PVTZ
  Basis Set:
  @DF-RHF Final Energy:  -208.04366412051274
    Total Energy =                       -208.0436641205127444
  Basis Set: CC-PVTZ
  Basis Set:
  Basis Set: CC-PVTZ
  Basis Set:
  @DF-RHF Final Energy:  -208.04367454777724
    Total Energy =                       -208.0436745477772433
  Basis Set: CC-PVTZ
  Basis Set:
  Charge       = 0
  Multiplicity = 1
  Basis Set: CC-PVTZ
  Basis Set:

    Orbital Energies (a.u.)
    -----------------------

    Doubly Occupied:

       1A    -20.516830     2A    -15.584600     3A    -11.336676
       4A    -11.259986     5A     -1.394138     6A     -1.239558
       7A     -0.969859     8A     -0.808686     9A     -0.748867
      10A     -0.646192    11A     -0.629826    12A     -0.596291
      13A     -0.557962    14A     -0.538876    15A     -0.428644
      16A     -0.396666

  @DF-RHF Final Energy:  -208.04367469100086

   => Energetics <=

    Nuclear Repulsion Energy =            122.8487435726398473
    One-Electron Energy =                -526.4775232494571355
    Two-Electron Energy =                 195.5851049858165425
    DFT Exchange-Correlation Energy =       0.0000000000000000
    Empirical Dispersion Energy =           0.0000000000000000
    PCM Polarization Energy =               0.0000000000000000
    EFP Energy =                            0.0000000000000000
    Total Energy =                       -208.0436746910007741
    Molecular point group: c1
  Basis Set: CC-PVTZ
  Basis Set:

  -Total Gradient:
     Atom            X                  Y                   Z
    ------   -----------------  -----------------  -----------------
       1        0.000005431414    -0.000008035005    -0.000008736734
       2        0.000023568161    -0.000028926145     0.000066922966
       3       -0.000048440571    -0.000050499505    -0.000040461961
       4       -0.000022199672     0.000023169470    -0.000008413218
       5       -0.000055455034    -0.000026594991     0.000039045997
       6        0.000061689388     0.000038561967    -0.000010812394
       7        0.000033323494     0.000043401012    -0.000036930266
       8        0.000001067423     0.000003014692     0.000001090012
       9        0.000001015396     0.000005908506    -0.000001704401

  **** Optimization is complete! (in 8 steps) ****
    Final optimized geometry and variables:
    Molecular point group: c1

    Geometry (in Angstrom), charge = 0, multiplicity = 1:

    H            1.301219916585    -1.419840668537    -0.082903168487
    C            0.584145548697    -0.621729962420    -0.284351998016
    N            0.022493414094    -0.136156850804     0.834628092009
    O            0.341528857830    -0.255505040692    -1.390484798937
    C           -0.913385324799     0.965782253171     0.821606380944
    H            0.369605713903    -0.462111999707     1.702234996316
    H           -1.569019807137     0.869308983448    -0.029321160971
    H           -0.410306470408     1.923658461120     0.758061165790
    H           -1.504139932343     0.939274927193     1.726320025192

  Mulliken Charges: (a.u.)
   Center  Symbol    Alpha    Beta     Spin     Total
       1     H     0.46384  0.46384  0.00000  0.07233
       2     C     2.88039  2.88039  0.00000  0.23922
       3     N     3.60624  3.60624  0.00000 -0.21249
       4     O     4.21400  4.21400  0.00000 -0.42799
       5     C     3.07753  3.07753  0.00000 -0.15506
       6     H     0.41049  0.41049  0.00000  0.17903
       7     H     0.43883  0.43883  0.00000  0.12234
       8     H     0.45478  0.45478  0.00000  0.09044
       9     H     0.45390  0.45390  0.00000  0.09219

   Total alpha = 16.00000, Total beta = 16.00000, Total charge =  0.00000
