  ==> Input File <==

--------------------------------------------------------------------------
set {
	reference rhf
	basis 6-31G*
}

set_num_threads( 4 )
memory 2 gb

molecule MOL {
0 1

H	 -2.469332	 1.398840	 -1.870202
C	 -1.741041	 0.750295	 -1.423388
C	 -2.076860	 -0.007332	 -0.404944
H	 -0.746316	 0.739780	 -1.827519
O	 -1.180634	 -0.819263	 0.215062
H	 -3.069309	 -0.016846	 0.009964
C	 0.051604	 -1.018856	 -0.387932
C	 1.043764	 0.054862	 -0.001873
H	 -0.017620	 -1.041351	 -1.469781
H	 0.437898	 -1.966374	 -0.042284
F	 2.212596	 -0.199467	 -0.571921
F	 0.652529	 1.252447	 -0.405055
F	 1.230877	 0.110694	 1.300533

	symmetry c1
}
set optking {
	frozen_dihedral = ("
		6 3 5 7
	")
}

ee = optimize('scf')
oeprop('DIPOLE', 'QUADRUPOLE', 'MULLIKEN_CHARGES')
f=open( 'psi4out.xyz', 'w' )
f.write( "13  " )
f.write( str(ee) + "\n" )
f.write( MOL.save_string_xyz() )
f.close()
--------------------------------------------------------------------------

    Molecular point group: c1
  Charge       = 0
  Multiplicity = 1
  Basis Set: 6-31G*
  Basis Set:
  @DF-RHF Final Energy:  -527.52420784796504
    Total Energy =                       -527.5242078479653856
    Molecular point group: c1
  Basis Set: 6-31G*
  Basis Set:
  Basis Set: 6-31G*
  Basis Set:
  @DF-RHF Final Energy:  -527.53187416651940
    Total Energy =                       -527.5318741665187190
  Basis Set: 6-31G*
  Basis Set:
  Basis Set: 6-31G*
  Basis Set:
  @DF-RHF Final Energy:  -527.53430592787731
    Total Energy =                       -527.5343059278773126
  Basis Set: 6-31G*
  Basis Set:
  Basis Set: 6-31G*
  Basis Set:
  @DF-RHF Final Energy:  -527.53519885363198
    Total Energy =                       -527.5351988536322096
  Basis Set: 6-31G*
  Basis Set:
  @DF-RHF Final Energy:  -527.53549009795461
    Total Energy =                       -527.5354900979548347
  Basis Set: 6-31G*
  Basis Set:
  @DF-RHF Final Energy:  -527.53558862902605
    Total Energy =                       -527.5355886290261651
  Basis Set: 6-31G*
  Basis Set:
  Basis Set: 6-31G*
  Basis Set:
  @DF-RHF Final Energy:  -527.53560407269219
    Total Energy =                       -527.5356040726924221
  Basis Set: 6-31G*
  Basis Set:
  Basis Set: 6-31G*
  Basis Set:
  @DF-RHF Final Energy:  -527.53560570544676
    Total Energy =                       -527.5356057054466419
  Basis Set: 6-31G*
  Basis Set:
  Charge       = 0
  Multiplicity = 1
  Basis Set: 6-31G*
  Basis Set:

    Orbital Energies (a.u.)
    -----------------------

    Doubly Occupied:

       1A    -26.342400     2A    -26.340992     3A    -26.338529
       4A    -20.611681     5A    -11.502002     6A    -11.316168
       7A    -11.303765     8A    -11.220232     9A     -1.739789
      10A     -1.637583    11A     -1.636041    12A     -1.438910
      13A     -1.080333    14A     -1.023663    15A     -0.932386
      16A     -0.837680    17A     -0.829494    18A     -0.823440
      19A     -0.769982    20A     -0.729857    21A     -0.708018
      22A     -0.699011    23A     -0.676608    24A     -0.657871
      25A     -0.655245    26A     -0.640815    27A     -0.629103
      28A     -0.601983    29A     -0.547112    30A     -0.528055
      31A     -0.513206    32A     -0.357483

  @DF-RHF Final Energy:  -527.53560585005926

   => Energetics <=

    Nuclear Repulsion Energy =            418.2983139482847150
    One-Electron Energy =               -1560.3289614067191451
    Two-Electron Energy =                 614.4950416083754590
    DFT Exchange-Correlation Energy =       0.0000000000000000
    Empirical Dispersion Energy =           0.0000000000000000
    PCM Polarization Energy =               0.0000000000000000
    EFP Energy =                            0.0000000000000000
    Total Energy =                       -527.5356058500590279
    Molecular point group: c1
  Basis Set: 6-31G*
  Basis Set:

  -Total Gradient:
     Atom            X                  Y                   Z
    ------   -----------------  -----------------  -----------------
       1       -0.000001328488     0.000001879591    -0.000001127230
       2        0.000018179719     0.000013630597    -0.000009474962
       3       -0.000040939146    -0.000099518012    -0.000073433093
       4       -0.000003794464    -0.000006247257     0.000005348699
       5       -0.000035460064    -0.000133523174    -0.000052464434
       6        0.000045051876     0.000107225965     0.000078789049
       7        0.000026955896     0.000107191904     0.000058348041
       8        0.000008122337    -0.000022499453     0.000016794068
       9       -0.000003972874     0.000003403503    -0.000001755868
      10       -0.000005673811     0.000000043960     0.000000234062
      11       -0.000010152011     0.000003466089     0.000005641829
      12        0.000002113121     0.000025708321    -0.000010775707
      13        0.000000897913    -0.000000762037    -0.000016124451

  **** Optimization is complete! (in 9 steps) ****
    Final optimized geometry and variables:
    Molecular point group: c1

    Geometry (in Angstrom), charge = 0, multiplicity = 1:

    H           -3.020127186229     1.259685497671    -1.797871226285
    C           -2.160007899726     0.741191602629    -1.420637001897
    C           -2.288459780959     0.030019302227    -0.320000134586
    H           -1.241566313126     0.859484141224    -1.961120059075
    O           -1.365364208268    -0.719908720874     0.327972210933
    H           -3.220031264090    -0.027268679328     0.208914158225
    C           -0.129827744575    -0.990704238032    -0.247493865069
    C            0.933352281685    -0.024339047795     0.223350402426
    H           -0.164131650718    -0.978440029486    -1.328018712560
    H            0.168519586878    -1.975435262792     0.082407896583
    F            2.099292388520    -0.374150021297    -0.302410196077
    F            0.688451772999     1.221218968547    -0.139906816867
    F            1.060687100017    -0.041233518614     1.535287500426

  Mulliken Charges: (a.u.)
   Center  Symbol    Alpha    Beta     Spin     Total
       1     H     0.40436  0.40436  0.00000  0.19129
       2     C     3.24194  3.24194  0.00000 -0.48389
       3     C     2.89874  2.89874  0.00000  0.20251
       4     H     0.40576  0.40576  0.00000  0.18847
       5     O     4.30735  4.30735  0.00000 -0.61471
       6     H     0.39703  0.39703  0.00000  0.20594
       7     C     3.05882  3.05882  0.00000 -0.11764
       8     C     2.45771  2.45771  0.00000  1.08458
       9     H     0.40108  0.40108  0.00000  0.19784
      10     H     0.39152  0.39152  0.00000  0.21696
      11     F     4.68351  4.68351  0.00000 -0.36702
      12     F     4.67633  4.67633  0.00000 -0.35266
      13     F     4.67584  4.67584  0.00000 -0.35167

   Total alpha = 32.00000, Total beta = 32.00000, Total charge = -0.00000
