  ==> Input File <==

--------------------------------------------------------------------------
set {
	reference rhf
	basis 6-31G*
}

set_num_threads( 4 )
memory 2 gb

molecule MOL {
0 1

H	 1.027248	 0.543517	 1.312704
C	 0.214414	 -0.167284	 1.205914
N	 -0.528168	 0.128977	 -0.000000
H	 -0.433355	 -0.059974	 2.068420
H	 0.646352	 -1.171460	 1.223957
C	 0.248044	 -0.037491	 -1.209632
H	 -1.347247	 -0.444048	 -0.042194
H	 0.998722	 0.743888	 -1.266824
H	 -0.398417	 0.061950	 -2.074060
H	 0.763621	 -0.999315	 -1.275517

	symmetry c1
}
set optking {
	frozen_dihedral = ("
		2 3 6 8
	")
}

ee = optimize('scf')
oeprop('DIPOLE', 'QUADRUPOLE', 'MULLIKEN_CHARGES')
f=open( 'psi4out.xyz', 'w' )
f.write( "10  " )
f.write( str(ee) + "\n" )
f.write( MOL.save_string_xyz() )
f.close()
--------------------------------------------------------------------------

    Molecular point group: c1
  Charge       = 0
  Multiplicity = 1
  Basis Set: 6-31G*
  Basis Set:
  @DF-RHF Final Energy:  -134.23866368309967
    Total Energy =                       -134.2386636830997588
    Molecular point group: c1
  Basis Set: 6-31G*
  Basis Set:
  Basis Set: 6-31G*
  Basis Set:
  @DF-RHF Final Energy:  -134.23867535588997
    Total Energy =                       -134.2386753558899102
  Basis Set: 6-31G*
  Basis Set:
  Charge       = 0
  Multiplicity = 1
  Basis Set: 6-31G*
  Basis Set:

    Orbital Energies (a.u.)
    -----------------------

    Doubly Occupied:

       1A    -15.538421     2A    -11.236020     3A    -11.236001
       4A     -1.199762     5A     -0.947985     6A     -0.854026
       7A     -0.661834     8A     -0.612970     9A     -0.591557
      10A     -0.540031    11A     -0.509740    12A     -0.506153
      13A     -0.362358

  @DF-RHF Final Energy:  -134.23867622615288

   => Energetics <=

    Nuclear Repulsion Energy =             84.6488653508518780
    One-Electron Energy =                -348.1813680442720056
    Two-Electron Energy =                 129.2938264672671949
    DFT Exchange-Correlation Energy =       0.0000000000000000
    Empirical Dispersion Energy =           0.0000000000000000
    PCM Polarization Energy =               0.0000000000000000
    EFP Energy =                            0.0000000000000000
    Total Energy =                       -134.2386762261529611
    Molecular point group: c1
  Basis Set: 6-31G*
  Basis Set:

  -Total Gradient:
     Atom            X                  Y                   Z
    ------   -----------------  -----------------  -----------------
       1        0.000014682705    -0.000004172806     0.000029632233
       2       -0.000321310359    -0.000824455957    -0.000095129280
       3        0.000258474656     0.001346973998    -0.000081552659
       4        0.000012246927    -0.000003950590     0.000011240984
       5        0.000010430418    -0.000007018983     0.000006458221
       6        0.000746286995    -0.001216144447     0.000773576391
       7        0.000048405626     0.000025175847    -0.000041269016
       8       -0.000793573955     0.000705035375    -0.000580731628
       9        0.000024839442     0.000011055953    -0.000015942466
      10       -0.000000482455    -0.000032498392    -0.000006282781

  **** Optimization is complete! (in 3 steps) ****
    Final optimized geometry and variables:
    Molecular point group: c1

    Geometry (in Angstrom), charge = 0, multiplicity = 1:

    H            1.039533545790     0.588563871009     1.315756679825
    C            0.226463859136    -0.122060621890     1.208518371251
    N           -0.515727900012     0.172718344479     0.001831516321
    H           -0.421348000774    -0.014389041151     2.070943115141
    H            0.658578490557    -1.126044643554     1.226113239548
    C            0.262249971332     0.006113951788    -1.207139503470
    H           -1.329723791321    -0.407551760376    -0.040175042104
    H            1.013340984053     0.787087304806    -1.266920889890
    H           -0.384197738852     0.112080684200    -2.070934773907
    H            0.770488741730    -0.958998453553    -1.276648000350

  Mulliken Charges: (a.u.)
   Center  Symbol    Alpha    Beta     Spin     Total
       1     H     0.41804  0.41804  0.00000  0.16391
       2     C     3.14562  3.14562  0.00000 -0.29123
       3     N     3.83757  3.83757  0.00000 -0.67514
       4     H     0.41668  0.41668  0.00000  0.16665
       5     H     0.43450  0.43450  0.00000  0.13100
       6     C     3.14556  3.14556  0.00000 -0.29113
       7     H     0.33268  0.33268  0.00000  0.33463
       8     H     0.41760  0.41760  0.00000  0.16480
       9     H     0.41739  0.41739  0.00000  0.16523
      10     H     0.43437  0.43437  0.00000  0.13126

   Total alpha = 13.00000, Total beta = 13.00000, Total charge =  0.00000
