  ==> Input File <==

--------------------------------------------------------------------------
set {
	reference rhf
	basis 6-31G*
}

set_num_threads( 4 )
memory 2 gb

molecule MOL {
0 1

H	 4.119831	 -0.547539	 -1.883514
C	 3.459113	 -0.838145	 -1.073113
C	 2.175011	 -0.009973	 -1.086334
H	 3.244427	 -1.897033	 -1.186668
H	 4.003260	 -0.709553	 -0.141655
C	 1.217350	 -0.386724	 0.039429
H	 1.659797	 -0.132316	 -2.033950
H	 2.426980	 1.046070	 -1.004629
N	 0.000003	 0.397874	 -0.023260
H	 0.945135	 -1.434360	 -0.057113
H	 1.727909	 -0.287498	 1.003204
C	 -1.217365	 -0.386708	 0.039277
H	 -0.000031	 1.072115	 0.718656
C	 -2.452633	 0.504241	 -0.042481
H	 -1.215291	 -1.074557	 -0.802042
H	 -1.269739	 -1.003477	 0.942735
C	 -3.758029	 -0.289423	 -0.010781
H	 -2.394220	 1.093569	 -0.952170
H	 -2.440793	 1.210787	 0.785871
H	 -3.816659	 -0.981993	 -0.845726
H	 -4.617837	 0.370165	 -0.069296
H	 -3.847478	 -0.867502	 0.904682

	symmetry c1
}
set optking {
	frozen_dihedral = ("
		10 6 9 12
	")
}

ee = optimize('scf')
oeprop('DIPOLE', 'QUADRUPOLE', 'MULLIKEN_CHARGES')
f=open( 'psi4out.xyz', 'w' )
f.write( "22  " )
f.write( str(ee) + "\n" )
f.write( MOL.save_string_xyz() )
f.close()
--------------------------------------------------------------------------

    Molecular point group: c1
  Charge       = 0
  Multiplicity = 1
  Basis Set: 6-31G*
  Basis Set:
  @DF-RHF Final Energy:  -290.37850229713064
    Total Energy =                       -290.3785022971308081
    Molecular point group: c1
  Basis Set: 6-31G*
  Basis Set:
  Basis Set: 6-31G*
  Basis Set:
  @DF-RHF Final Energy:  -290.37895119892266
    Total Energy =                       -290.3789511989227776
  Basis Set: 6-31G*
  Basis Set:
  Basis Set: 6-31G*
  Basis Set:
  @DF-RHF Final Energy:  -290.37909220064830
    Total Energy =                       -290.3790922006484720
  Basis Set: 6-31G*
  Basis Set:
  Basis Set: 6-31G*
  Basis Set:
  @DF-RHF Final Energy:  -290.37909605299814
    Total Energy =                       -290.3790960529976815
  Basis Set: 6-31G*
  Basis Set:
  Charge       = 0
  Multiplicity = 1
  Basis Set: 6-31G*
  Basis Set:

    Orbital Energies (a.u.)
    -----------------------

    Doubly Occupied:

       1A    -15.530968     2A    -11.238955     3A    -11.238261
       4A    -11.213424     5A    -11.209811     6A    -11.206578
       7A    -11.205969     8A     -1.200901     9A     -1.056875
      10A     -1.024365    11A     -0.927614    12A     -0.869893
      13A     -0.805647    14A     -0.793728    15A     -0.668671
      16A     -0.630700    17A     -0.613791    18A     -0.599629
      19A     -0.579109    20A     -0.559188    21A     -0.537414
      22A     -0.519588    23A     -0.510618    24A     -0.487511
      25A     -0.482771    26A     -0.471026    27A     -0.465315
      28A     -0.451803    29A     -0.351852

  @DF-RHF Final Energy:  -290.37909704442217

   => Energetics <=

    Nuclear Repulsion Energy =            313.5007015739446956
    One-Electron Energy =               -1012.8556465747097945
    Two-Electron Energy =                 408.9758479563429887
    DFT Exchange-Correlation Energy =       0.0000000000000000
    Empirical Dispersion Energy =           0.0000000000000000
    PCM Polarization Energy =               0.0000000000000000
    EFP Energy =                            0.0000000000000000
    Total Energy =                       -290.3790970444221671
    Molecular point group: c1
  Basis Set: 6-31G*
  Basis Set:

  -Total Gradient:
     Atom            X                  Y                   Z
    ------   -----------------  -----------------  -----------------
       1        0.000033015344    -0.000025396406    -0.000010698781
       2        0.000000927325    -0.000003598647    -0.000039199631
       3       -0.000056913066    -0.000016190501     0.000131198972
       4       -0.000005642938     0.000015856509     0.000011622203
       5       -0.000009558287     0.000007196123    -0.000015206789
       6        0.000157155783     0.000109474224    -0.002735303233
       7       -0.000010720740    -0.000003682096     0.000033812112
       8       -0.000006977279     0.000004256450     0.000026436476
       9       -0.000081121173     0.000076640989     0.002232165014
      10       -0.000140061956    -0.000153015897     0.001665198707
      11        0.000070862400     0.000008702025    -0.000009300184
      12        0.000073677273    -0.000051945148    -0.001273105713
      13       -0.000040101605     0.000008874709     0.000003577168
      14       -0.000002971270     0.000013530587    -0.000015232598
      15        0.000044814358     0.000031351062     0.000007191358
      16        0.000007282106     0.000001836847    -0.000015383615
      17       -0.000033730949     0.000011292571     0.000003082428
      18        0.000004977021    -0.000014230319     0.000006090594
      19        0.000010978406    -0.000013852717    -0.000006518302
      20       -0.000003136997     0.000000527863    -0.000002422923
      21       -0.000014298084    -0.000006775562     0.000003451139
      22        0.000001544331    -0.000000852667    -0.000001454400

  **** Optimization is complete! (in 5 steps) ****
    Final optimized geometry and variables:
    Molecular point group: c1

    Geometry (in Angstrom), charge = 0, multiplicity = 1:

    H            4.241115939434    -0.335635224619    -1.568197758997
    C            3.576742480003    -0.648880400429    -0.769085792744
    C            2.273050448386     0.148085782278    -0.789099513413
    H            3.391042054279    -1.712452149698    -0.894054838472
    H            4.107267162588    -0.516439227553     0.170193546935
    C            1.307550266942    -0.265097856527     0.318308312064
    H            1.773088095391     0.026142858627    -1.745571563975
    H            2.486643851650     1.209306819487    -0.689596757172
    N            0.073416446126     0.509129039614     0.280562475760
    H            1.071297586824    -1.321630979899     0.223194637429
    H            1.803503337221    -0.164434642708     1.284440994383
    C           -1.157610308193    -0.251574682909     0.358429036468
    H            0.084081078875     1.222240968581     0.981075701408
    C           -2.373278578020     0.663916795200     0.258530894011
    H           -1.170060824045    -0.952548508208    -0.471280989322
    H           -1.228475019498    -0.850759880579     1.272308409963
    C           -3.695658654706    -0.100618894449     0.302680522856
    H           -2.300394340246     1.235404809754    -0.661518227858
    H           -2.347122574971     1.384779534754     1.074177397469
    H           -3.768332244503    -0.806999062586    -0.519477967523
    H           -4.540858633745     0.576293554651     0.230573053353
    H           -3.798865000103    -0.659570543632     1.228502681083

  Mulliken Charges: (a.u.)
   Center  Symbol    Alpha    Beta     Spin     Total
       1     H     0.41806  0.41806  0.00000  0.16387
       2     C     3.24624  3.24624  0.00000 -0.49248
       3     C     3.14107  3.14107  0.00000 -0.28214
       4     H     0.42275  0.42275  0.00000  0.15449
       5     H     0.42313  0.42313  0.00000  0.15374
       6     C     3.05559  3.05559  0.00000 -0.11118
       7     H     0.41922  0.41922  0.00000  0.16156
       8     H     0.42287  0.42287  0.00000  0.15425
       9     N     3.86225  3.86225  0.00000 -0.72450
      10     H     0.42312  0.42312  0.00000  0.15376
      11     H     0.42942  0.42942  0.00000  0.14116
      12     C     3.04591  3.04591  0.00000 -0.09181
      13     H     0.33241  0.33241  0.00000  0.33519
      14     C     3.15658  3.15658  0.00000 -0.31316
      15     H     0.42162  0.42162  0.00000  0.15677
      16     H     0.43654  0.43654  0.00000  0.12692
      17     C     3.24324  3.24324  0.00000 -0.48649
      18     H     0.41307  0.41307  0.00000  0.17387
      19     H     0.42680  0.42680  0.00000  0.14640
      20     H     0.42076  0.42076  0.00000  0.15849
      21     H     0.41771  0.41771  0.00000  0.16458
      22     H     0.42164  0.42164  0.00000  0.15671

   Total alpha = 29.00000, Total beta = 29.00000, Total charge =  0.00000
