                              Psi4 1.0.54 Driver

  ==> Input File <==

--------------------------------------------------------------------------
set {
	reference rhf
	basis cc-pvtz
}

set_num_threads( 4 )
memory 2 gb

molecule MOL {
0 1

H	 -2.579498	 -0.818514	 1.759833
C	 -2.572620	 -1.330973	 0.800551
O	 -1.326463	 -1.255995	 0.193089
H	 -2.799327	 -2.374663	 0.962424
H	 -3.349945	 -0.897694	 0.173718
C	 -0.902177	 0.037304	 -0.087977
C	 0.498427	 0.004964	 -0.646194
H	 -1.563326	 0.500565	 -0.820262
H	 -0.914897	 0.650421	 0.810553
O	 1.401606	 -0.295166	 0.366636
H	 0.549859	 -0.736958	 -1.440132
H	 0.727889	 0.978056	 -1.080258
C	 2.714315	 -0.441627	 -0.061017
H	 2.765292	 -0.641548	 -1.128869
H	 3.305661	 0.447341	 0.150952
H	 3.143725	 -1.278506	 0.470147

	symmetry c1
}
set optking {
	frozen_dihedral = ("
		7 10 13 14
	")
}

ee,wfn = optimize('scf', return_wfn=True)
oeprop( wfn, 'DIPOLE', 'QUADRUPOLE', 'MULLIKEN_CHARGES')
f=open( 'psi4out.xyz', 'w' )
f.write( "16  " )
f.write( str(ee) + "\n" )
f.write( MOL.save_string_xyz() )
f.close()
--------------------------------------------------------------------------

    Molecular point group: c1
  Charge       = 0
  Multiplicity = 1
  Basis Set: CC-PVTZ
  Basis Set:
  @DF-RHF Final Energy:  -307.09489324328808
    Total Energy =                       -307.0948932432879133
    Molecular point group: c1
  Basis Set: CC-PVTZ
  Basis Set:
  Basis Set: CC-PVTZ
  Basis Set:
  @DF-RHF Final Energy:  -307.09508462730412
    Total Energy =                       -307.0950846273044590
  Basis Set: CC-PVTZ
  Basis Set:
  Basis Set: CC-PVTZ
  Basis Set:
  @DF-RHF Final Energy:  -307.09516184370801
    Total Energy =                       -307.0951618437080697
  Basis Set: CC-PVTZ
  Basis Set:
  Charge       = 0
  Multiplicity = 1
  Basis Set: CC-PVTZ
  Basis Set:

    Orbital Energies (a.u.)
    -----------------------

    Doubly Occupied:

       1A    -20.547502     2A    -20.545048     3A    -11.267805
       4A    -11.266696     5A    -11.261402     6A    -11.261200
       7A     -1.390006     8A     -1.372225     9A     -1.031852
      10A     -0.937288    11A     -0.892186    12A     -0.824142
      13A     -0.685168    14A     -0.681354    15A     -0.659094
      16A     -0.637197    17A     -0.630162    18A     -0.598203
      19A     -0.553633    20A     -0.536961    21A     -0.509500
      22A     -0.479248    23A     -0.464080    24A     -0.421458
      25A     -0.410913

  @DF-RHF Final Energy:  -307.09516271350572

   => Energetics <=

    Nuclear Repulsion Energy =            258.6998017062405779
    One-Electron Energy =                -931.8612800877647260
    Two-Electron Energy =                 366.0663156680182055
    DFT Exchange-Correlation Energy =       0.0000000000000000
    Empirical Dispersion Energy =           0.0000000000000000
    PCM Polarization Energy =               0.0000000000000000
    EFP Energy =                            0.0000000000000000
    Total Energy =                       -307.0951627135059425
    Molecular point group: c1
  Basis Set: CC-PVTZ
  Basis Set:

  -Total Gradient:
     Atom            X                  Y                   Z
    ------   -----------------  -----------------  -----------------
       1       -0.000001937729    -0.000000743054    -0.000000384015
       2       -0.000006106527     0.000004866612     0.000007004165
       3        0.000010426634     0.000000064833     0.000016880545
       4        0.000002138597     0.000000453664    -0.000000807963
       5        0.000004250182     0.000000291416    -0.000001006933
       6       -0.000035720549     0.000013366630    -0.000068061985
       7       -0.000360656198    -0.001828364919    -0.000322451230
       8       -0.000045072485     0.000009360086     0.000001358878
       9        0.000016128858    -0.000027713335    -0.000017988900
      10        0.000591512514     0.003397219736     0.000323658685
      11        0.000002597712    -0.000006730589     0.000031837466
      12        0.000004616736    -0.000022807640     0.000002350719
      13       -0.000298609758    -0.003921383809     0.000475755834
      14        0.000112398193     0.002400722518    -0.000433338750
      15       -0.000024264337    -0.000002226291    -0.000008404817
      16        0.000028298159    -0.000016375859    -0.000006401700

  **** Optimization is complete! (in 4 steps) ****
    Final optimized geometry and variables:
    Molecular point group: c1

    Geometry (in Angstrom), charge = 0, multiplicity = 1:

    H           -2.543011755626    -0.284385707754     1.662599981010
    C           -2.534401479103    -0.797040015725     0.703443056369
    O           -1.291133944805    -0.710178167894     0.091761776169
    H           -2.750501806885    -1.842825620667     0.866343422685
    H           -3.318037071411    -0.371477520360     0.079143535120
    C           -0.880247153858     0.587102300599    -0.190787828517
    C            0.519144035205     0.568325552868    -0.752967464119
    H           -1.547681111918     1.043546612997    -0.921821481201
    H           -0.897001972758     1.200300306229     0.707479545029
    O            1.424610284320     0.267473396563     0.258527275913
    H            0.573351991702    -0.169818964202    -1.549008292359
    H            0.735413226321     1.545956069236    -1.183678663132
    C            2.751411404846     0.117823338780    -0.137900638955
    H            2.835708247409    -0.083700741803    -1.201323870706
    H            3.318022751872     1.021184508306     0.071821627384
    H            3.191064094267    -0.702897854132     0.412418652353

  Mulliken Charges: (a.u.)
   Center  Symbol    Alpha    Beta     Spin     Total
       1     H     0.47018  0.47018  0.00000  0.05964
       2     C     3.03203  3.03203  0.00000 -0.06405
       3     O     4.17030  4.17030  0.00000 -0.34060
       4     H     0.44644  0.44644  0.00000  0.10713
       5     H     0.47374  0.47374  0.00000  0.05252
       6     C     2.96287  2.96287  0.00000  0.07425
       7     C     2.95916  2.95916  0.00000  0.08169
       8     H     0.47622  0.47622  0.00000  0.04756
       9     H     0.47095  0.47095  0.00000  0.05809
      10     O     4.17400  4.17400  0.00000 -0.34799
      11     H     0.46950  0.46950  0.00000  0.06099
      12     H     0.47705  0.47705  0.00000  0.04591
      13     C     3.02805  3.02805  0.00000 -0.05609
      14     H     0.47398  0.47398  0.00000  0.05205
      15     H     0.46446  0.46446  0.00000  0.07107
      16     H     0.45108  0.45108  0.00000  0.09784

   Total alpha = 25.00000, Total beta = 25.00000, Total charge = -0.00000

*** Psi4 exiting successfully. Buy a developer a beer!
