  ==> Input File <==

--------------------------------------------------------------------------
set {
	reference rhf
	basis 6-31G*
}

set_num_threads( 1 )
memory 2 gb

molecule MOL {
0 1

H	 1.573379	 -1.219080	 -0.784133
O	 1.586534	 -0.678666	 -0.000226
C	 0.489431	 0.077273	 0.000046
C	 -0.764129	 -0.759190	 0.000191
O	 0.537743	 1.263962	 0.000257
C	 -2.038368	 0.075731	 -0.000248
H	 -0.717284	 -1.412404	 -0.866059
H	 -0.717458	 -1.411724	 0.866967
H	 -2.086483	 0.712501	 -0.875098
H	 -2.908485	 -0.571682	 -0.000042
H	 -2.086576	 0.713280	 0.874068

	symmetry c1
}
set optking {
	frozen_dihedral = ("
		2 3 4 7
	")
}

ee = energy('scf')
oeprop('DIPOLE', 'QUADRUPOLE', 'MULLIKEN_CHARGES')
f=open( 'psi4out.xyz', 'w' )
f.write( "11  " )
f.write( str(ee) + "\n" )
f.write( MOL.save_string_xyz() )
f.close()
--------------------------------------------------------------------------

    Molecular point group: c1

    Geometry (in Angstrom), charge = 0, multiplicity = 1:

       Center              X                  Y                   Z               Mass
    ------------   -----------------  -----------------  -----------------  -----------------
           H          1.583865655857    -1.203864098637    -0.773461678086     1.007825032070
           O          1.597020655857    -0.663450098637     0.010445321914    15.994914619560
           C          0.499917655857     0.092488901363     0.010717321914    12.000000000000
           C         -0.753642344143    -0.743974098637     0.010862321914    12.000000000000
           O          0.548229655857     1.279177901363     0.010928321914    15.994914619560
           C         -2.027881344143     0.090946901363     0.010423321914    12.000000000000
           H         -0.706797344143    -1.397188098637    -0.855387678086     1.007825032070
           H         -0.706971344143    -1.396508098637     0.877638321914     1.007825032070
           H         -2.075996344143     0.727716901363    -0.864426678086     1.007825032070
           H         -2.897998344143    -0.556466098637     0.010629321914     1.007825032070
           H         -2.076089344143     0.728495901363     0.884739321914     1.007825032070

  Charge       = 0
  Multiplicity = 1
  Basis Set: 6-31G*
  Basis Set:

    Orbital Energies (a.u.)
    -----------------------

    Doubly Occupied:

       1A    -20.604382     2A    -20.559016     3A    -11.381222
       4A    -11.249959     5A    -11.223741     6A     -1.470205
       7A     -1.371864     8A     -1.067662     9A     -0.909482
      10A     -0.819285    11A     -0.716957    12A     -0.675368
      13A     -0.661063    14A     -0.619780    15A     -0.576542
      16A     -0.532280    17A     -0.521422    18A     -0.505364
      19A     -0.485934    20A     -0.445613

  @DF-RHF Final Energy:  -266.82474055896944

   => Energetics <=

    Nuclear Repulsion Energy =            179.9194298651275972
    One-Electron Energy =                -720.6940684322843254
    Two-Electron Energy =                 273.9498980081874038
    DFT Exchange-Correlation Energy =       0.0000000000000000
    Empirical Dispersion Energy =           0.0000000000000000
    PCM Polarization Energy =               0.0000000000000000
    EFP Energy =                            0.0000000000000000
    Total Energy =                       -266.8247405589692676

  Mulliken Charges: (a.u.)
   Center  Symbol    Alpha    Beta     Spin     Total
       1     H     0.26796  0.26796  0.00000  0.46409
       2     O     4.35220  4.35220  0.00000 -0.70440
       3     C     2.62855  2.62855  0.00000  0.74290
       4     C     3.21558  3.21558  0.00000 -0.43116
       5     O     4.25437  4.25437  0.00000 -0.50875
       6     C     3.23935  3.23935  0.00000 -0.47870
       7     H     0.41352  0.41352  0.00000  0.17297
       8     H     0.39544  0.39544  0.00000  0.20913
       9     H     0.40931  0.40931  0.00000  0.18137
      10     H     0.41732  0.41732  0.00000  0.16537
      11     H     0.40641  0.40641  0.00000  0.18719

   Total alpha = 20.00000, Total beta = 20.00000, Total charge =  0.00000
