                              Psi4 1.0.54 Driver

  ==> Input File <==

--------------------------------------------------------------------------
set {
	reference rhf
	basis cc-pvtz
}

set_num_threads( 4 )
memory 2 gb

molecule MOL {
0 1

H	 -3.436473	 1.252944	 -1.023892
O	 -3.458596	 0.315260	 -0.960865
C	 -3.176635	 -0.080824	 0.355601
C	 -1.763371	 0.265266	 0.799691
H	 -3.321825	 -1.153438	 0.379502
H	 -3.895468	 0.357385	 1.043382
C	 -0.673390	 -0.426948	 -0.013392
H	 -1.631049	 1.344913	 0.747560
H	 -1.664587	 -0.001624	 1.849167
C	 0.544588	 0.458719	 -0.262580
H	 -1.086938	 -0.752264	 -0.961580
H	 -0.362188	 -1.328826	 0.508408
C	 1.633817	 -0.241715	 -1.072531
H	 0.224781	 1.361483	 -0.774078
H	 0.959376	 0.779013	 0.690950
C	 2.908960	 0.577305	 -1.280051
H	 1.231494	 -0.528457	 -2.041429
H	 1.898196	 -1.167916	 -0.569664
C	 2.733848	 1.822870	 -2.145528
H	 3.656233	 -0.062322	 -1.739653
H	 3.311631	 0.865020	 -0.312324
H	 2.326570	 1.566508	 -3.118400
H	 3.685801	 2.315851	 -2.306756
H	 2.067871	 2.544626	 -1.688200

	symmetry c1
}
set optking {
	frozen_dihedral = ("
		11 7 4 3
	")
}

ee,wfn = optimize('scf', return_wfn=True)
oeprop( wfn, 'DIPOLE', 'QUADRUPOLE', 'MULLIKEN_CHARGES')
f=open( 'psi4out.xyz', 'w' )
f.write( "24  " )
f.write( str(ee) + "\n" )
f.write( MOL.save_string_xyz() )
f.close()
--------------------------------------------------------------------------

    Molecular point group: c1
  Charge       = 0
  Multiplicity = 1
  Basis Set: CC-PVTZ
  Basis Set:
  @DF-RHF Final Energy:  -349.37706212185202
    Total Energy =                       -349.3770621218524184
    Molecular point group: c1
  Basis Set: CC-PVTZ
  Basis Set:
  Basis Set: CC-PVTZ
  Basis Set:
  @DF-RHF Final Energy:  -349.37724691461142
    Total Energy =                       -349.3772469146112485
  Basis Set: CC-PVTZ
  Basis Set:
  Basis Set: CC-PVTZ
  Basis Set:
  @DF-RHF Final Energy:  -349.37730189335861
    Total Energy =                       -349.3773018933588332
  Basis Set: CC-PVTZ
  Basis Set:
  Basis Set: CC-PVTZ
  Basis Set:
  @DF-RHF Final Energy:  -349.37730314064424
    Total Energy =                       -349.3773031406441874
  Basis Set: CC-PVTZ
  Basis Set:
  Basis Set: CC-PVTZ
  Basis Set:
  @DF-RHF Final Energy:  -349.37730484955068
    Total Energy =                       -349.3773048495501143
  Basis Set: CC-PVTZ
  Basis Set:
  Charge       = 0
  Multiplicity = 1
  Basis Set: CC-PVTZ
  Basis Set:

    Orbital Energies (a.u.)
    -----------------------

    Doubly Occupied:

       1A    -20.546961     2A    -11.265770     3A    -11.215036
       4A    -11.211914     5A    -11.210269     6A    -11.209068
       7A    -11.208480     8A    -11.204976     9A     -1.365035
      10A     -1.088781    11A     -1.048086    12A     -0.986687
      13A     -0.915579    14A     -0.851313    15A     -0.802538
      16A     -0.776735    17A     -0.682214    18A     -0.652196
      19A     -0.626670    20A     -0.621714    21A     -0.598553
      22A     -0.583343    23A     -0.561172    24A     -0.535485
      25A     -0.522300    26A     -0.512852    27A     -0.496135
      28A     -0.472695    29A     -0.466851    30A     -0.457777
      31A     -0.453847    32A     -0.452446    33A     -0.422661

  @DF-RHF Final Energy:  -349.37730487640010

   => Energetics <=

    Nuclear Repulsion Energy =            387.0679012940131543
    One-Electron Energy =               -1240.8381245862296964
    Two-Electron Energy =                 504.3929184158159273
    DFT Exchange-Correlation Energy =       0.0000000000000000
    Empirical Dispersion Energy =           0.0000000000000000
    PCM Polarization Energy =               0.0000000000000000
    EFP Energy =                            0.0000000000000000
    Total Energy =                       -349.3773048764006148
    Molecular point group: c1
  Basis Set: CC-PVTZ
  Basis Set:

  -Total Gradient:
     Atom            X                  Y                   Z
    ------   -----------------  -----------------  -----------------
       1       -0.000003409869     0.000008892193    -0.000015073382
       2        0.000006105543     0.000009419859    -0.000004778626
       3       -0.000029998743     0.002065993600    -0.001637874907
       4       -0.000130906978    -0.003670068898     0.002588340392
       5        0.000014389881     0.000007010291     0.000010983551
       6       -0.000027320382    -0.000008290057     0.000015512067
       7        0.001020568365     0.004813466988    -0.002394982322
       8       -0.000004785934     0.000033688581     0.000004126411
       9        0.000008975640    -0.000021147848    -0.000000140129
      10       -0.000075243133    -0.000041436932     0.000013648752
      11       -0.000834461174    -0.003181717585     0.001412286087
      12        0.000022135606    -0.000015412671     0.000031232174
      13        0.000005644033     0.000015329529    -0.000021303803
      14       -0.000014853412    -0.000022668460     0.000014928971
      15       -0.000006432258     0.000005524403     0.000005359387
      16        0.000010017314    -0.000000959016     0.000012321675
      17       -0.000001755864     0.000004850092    -0.000007761871
      18        0.000007865292    -0.000005984361    -0.000011854069
      19        0.000003540856    -0.000002886628    -0.000010887708
      20        0.000018557882    -0.000005310742     0.000001949113
      21       -0.000002930614     0.000006108345     0.000013864869
      22       -0.000006503410     0.000002470379    -0.000010927014
      23        0.000001902298    -0.000005500434    -0.000004648974
      24        0.000018899066     0.000008629374    -0.000004320647

  **** Optimization is complete! (in 6 steps) ****
    Final optimized geometry and variables:
    Molecular point group: c1

    Geometry (in Angstrom), charge = 0, multiplicity = 1:

    H           -3.245449931813     0.910650217593    -0.387296669012
    O           -3.269037665371    -0.028012818100    -0.341748720697
    C           -2.970800865144    -0.449213145420     0.962598864479
    C           -1.554565574912    -0.094365263116     1.391426501770
    H           -3.107759720049    -1.523494132625     0.964897974089
    H           -3.685383325082    -0.031924140602     1.667572460370
    C           -0.463240671344    -0.765194076737     0.544319315325
    H           -1.451346274457     0.987966645574     1.332586737671
    H           -1.432145601136    -0.347974918802     2.439907766190
    C            0.760355242234     0.114092436521     0.305828538628
    H           -0.886183448832    -1.079672032749    -0.402895898473
    H           -0.148928324576    -1.680658162442     1.039204191121
    C            1.859609545496    -0.593822954699    -0.483079010352
    H            0.447123984572     1.012680527841    -0.216590505657
    H            1.161119657786     0.441415749597     1.263307502175
    C            3.134713881580     0.225973489113    -0.688875139751
    H            1.467549480902    -0.894724783299    -1.451895825463
    H            2.121572795472    -1.512273505970     0.035072968400
    C            2.966550003094     1.456284783186    -1.577333518522
    H            3.889430046384    -0.418765831969    -1.128797654747
    H            3.524970829249     0.530951859887     0.278709049279
    H            2.569091917716     1.182740649162    -2.549531111601
    H            3.919446944169     1.947796263164    -1.737567929816
    H            2.295205533375     2.184907159662    -1.139127189428

  Mulliken Charges: (a.u.)
   Center  Symbol    Alpha    Beta     Spin     Total
       1     H     0.39561  0.39561  0.00000  0.20877
       2     O     4.20258  4.20258  0.00000 -0.40516
       3     C     2.97853  2.97853  0.00000  0.04293
       4     C     3.10248  3.10248  0.00000 -0.20497
       5     H     0.45760  0.45760  0.00000  0.08479
       6     H     0.46019  0.46019  0.00000  0.07962
       7     C     3.09364  3.09364  0.00000 -0.18728
       8     H     0.46100  0.46100  0.00000  0.07801
       9     H     0.44985  0.44985  0.00000  0.10030
      10     C     3.09033  3.09033  0.00000 -0.18066
      11     H     0.44463  0.44463  0.00000  0.11074
      12     H     0.45392  0.45392  0.00000  0.09217
      13     C     3.09549  3.09549  0.00000 -0.19097
      14     H     0.45444  0.45444  0.00000  0.09113
      15     H     0.45490  0.45490  0.00000  0.09019
      16     C     3.09012  3.09012  0.00000 -0.18024
      17     H     0.45254  0.45254  0.00000  0.09492
      18     H     0.45001  0.45001  0.00000  0.09998
      19     C     3.15214  3.15214  0.00000 -0.30428
      20     H     0.44871  0.44871  0.00000  0.10259
      21     H     0.45541  0.45541  0.00000  0.08918
      22     H     0.45443  0.45443  0.00000  0.09115
      23     H     0.44682  0.44682  0.00000  0.10636
      24     H     0.45464  0.45464  0.00000  0.09072

   Total alpha = 33.00000, Total beta = 33.00000, Total charge =  0.00000

*** Psi4 exiting successfully. Buy a developer a beer!
