  ==> Input File <==

--------------------------------------------------------------------------
set {
	reference rhf
	basis 6-31G*
}

set_num_threads( 1 )
memory 2 gb

molecule MOL {
0 1

H	 2.061828	 2.301774	 -1.130269
O	 2.849283	 1.911396	 -1.480399
C	 3.276017	 0.870067	 -0.639218
C	 2.396492	 -0.372296	 -0.726954
H	 4.282247	 0.628708	 -0.956899
H	 3.336750	 1.214292	 0.392577
C	 0.957846	 -0.151050	 -0.253440
H	 2.392384	 -0.719863	 -1.756782
H	 2.857368	 -1.156881	 -0.129135
C	 0.115918	 -1.429151	 -0.302766
H	 0.492850	 0.613722	 -0.869288
H	 0.967391	 0.231156	 0.767426
C	 -1.309753	 -1.282496	 0.241564
H	 0.074003	 -1.790850	 -1.328565
H	 0.625263	 -2.201397	 0.269864
C	 -2.037799	 -0.007733	 -0.193645
H	 -1.890610	 -2.142323	 -0.085726
H	 -1.285946	 -1.330893	 1.329189
C	 -3.489788	 0.042957	 0.286558
H	 -2.017067	 0.064384	 -1.280144
H	 -1.513726	 0.868678	 0.179924
C	 -4.216917	 1.317354	 -0.141063
H	 -4.025645	 -0.823308	 -0.095450
H	 -3.513059	 -0.038752	 1.371301
H	 -4.239342	 1.411634	 -1.223113
H	 -5.243387	 1.322503	 0.212445
H	 -3.726170	 2.201406	 0.256408

	symmetry c1
}
set optking {
	frozen_dihedral = ("
		14 10 7 4,
		10 7 4 8,
		8 4 3 2,
		10 13 16 20,
		20 16 19 22,
		4 3 2 1
	")
}

ee = energy('scf')
oeprop('DIPOLE', 'QUADRUPOLE', 'MULLIKEN_CHARGES')
f=open( 'psi4out.xyz', 'w' )
f.write( "27  " )
f.write( str(ee) + "\n" )
f.write( MOL.save_string_xyz() )
f.close()
--------------------------------------------------------------------------

    Molecular point group: c1

    Geometry (in Angstrom), charge = 0, multiplicity = 1:

       Center              X                  Y                   Z               Mass
    ------------   -----------------  -----------------  -----------------  -----------------
           H          2.189139220612     2.155130628840    -0.757315744454     1.007825032070
           O          2.976594220612     1.764752628840    -1.107445744454    15.994914619560
           C          3.403328220612     0.723423628840    -0.266264744454    12.000000000000
           C          2.523803220612    -0.518939371160    -0.354000744454    12.000000000000
           H          4.409558220612     0.482064628840    -0.583945744454     1.007825032070
           H          3.464061220612     1.067648628840     0.765530255546     1.007825032070
           C          1.085157220612    -0.297693371160     0.119513255546    12.000000000000
           H          2.519695220612    -0.866506371160    -1.383828744454     1.007825032070
           H          2.984679220612    -1.303524371160     0.243818255546     1.007825032070
           C          0.243229220612    -1.575794371160     0.070187255546    12.000000000000
           H          0.620161220612     0.467078628840    -0.496334744454     1.007825032070
           H          1.094702220612     0.084512628840     1.140379255546     1.007825032070
           C         -1.182441779388    -1.429139371160     0.614517255546    12.000000000000
           H          0.201314220612    -1.937493371160    -0.955611744454     1.007825032070
           H          0.752574220612    -2.348040371160     0.642817255546     1.007825032070
           C         -1.910487779388    -0.154376371160     0.179308255546    12.000000000000
           H         -1.763298779388    -2.288966371160     0.287227255546     1.007825032070
           H         -1.158634779388    -1.477536371160     1.702142255546     1.007825032070
           C         -3.362476779388    -0.103686371160     0.659511255546    12.000000000000
           H         -1.889755779388    -0.082259371160    -0.907190744454     1.007825032070
           H         -1.386414779388     0.722034628840     0.552877255546     1.007825032070
           C         -4.089605779388     1.170710628840     0.231890255546    12.000000000000
           H         -3.898333779388    -0.969951371160     0.277503255546     1.007825032070
           H         -3.385747779388    -0.185395371160     1.744254255546     1.007825032070
           H         -4.112030779388     1.264990628840    -0.850159744454     1.007825032070
           H         -5.116075779388     1.175859628840     0.585398255546     1.007825032070
           H         -3.598858779388     2.054762628840     0.629361255546     1.007825032070

  Charge       = 0
  Multiplicity = 1
  Basis Set: 6-31G*
  Basis Set:

    Orbital Energies (a.u.)
    -----------------------

    Doubly Occupied:

       1A    -20.552189     2A    -11.266912     3A    -11.219523
       4A    -11.217136     5A    -11.216251     6A    -11.215637
       7A    -11.214940     8A    -11.214681     9A    -11.209777
      10A     -1.358932    11A     -1.096152    12A     -1.060942
      13A     -1.011579    14A     -0.947497    15A     -0.890247
      16A     -0.819922    17A     -0.806043    18A     -0.771998
      19A     -0.693450    20A     -0.656242    21A     -0.634709
      22A     -0.615179    23A     -0.601440    24A     -0.584286
      25A     -0.578285    26A     -0.553322    27A     -0.539661
      28A     -0.533924    29A     -0.505669    30A     -0.496008
      31A     -0.486833    32A     -0.474487    33A     -0.466468
      34A     -0.457149    35A     -0.452462    36A     -0.442409
      37A     -0.423248

  @DF-RHF Final Energy:  -388.27953582555307

   => Energetics <=

    Nuclear Repulsion Energy =            462.6692920728759759
    One-Electron Energy =               -1443.3265913678426386
    Two-Electron Energy =                 592.3777634694160952
    DFT Exchange-Correlation Energy =       0.0000000000000000
    Empirical Dispersion Energy =           0.0000000000000000
    PCM Polarization Energy =               0.0000000000000000
    EFP Energy =                            0.0000000000000000
    Total Energy =                       -388.2795358255505107

  Mulliken Charges: (a.u.)
   Center  Symbol    Alpha    Beta     Spin     Total
       1     H     0.27992  0.27992  0.00000  0.44016
       2     O     4.37096  4.37096  0.00000 -0.74192
       3     C     2.99732  2.99732  0.00000  0.00536
       4     C     3.16056  3.16056  0.00000 -0.32112
       5     H     0.41446  0.41446  0.00000  0.17108
       6     H     0.43215  0.43215  0.00000  0.13570
       7     C     3.16570  3.16570  0.00000 -0.33139
       8     H     0.41509  0.41509  0.00000  0.16983
       9     H     0.42450  0.42450  0.00000  0.15099
      10     C     3.15147  3.15147  0.00000 -0.30294
      11     H     0.42141  0.42141  0.00000  0.15717
      12     H     0.42550  0.42550  0.00000  0.14901
      13     C     3.15273  3.15273  0.00000 -0.30546
      14     H     0.42132  0.42132  0.00000  0.15735
      15     H     0.42131  0.42131  0.00000  0.15739
      16     C     3.15500  3.15500  0.00000 -0.31001
      17     H     0.42097  0.42097  0.00000  0.15805
      18     H     0.42358  0.42358  0.00000  0.15284
      19     C     3.15080  3.15080  0.00000 -0.30160
      20     H     0.42364  0.42364  0.00000  0.15272
      21     H     0.42327  0.42327  0.00000  0.15346
      22     C     3.23921  3.23921  0.00000 -0.47842
      23     H     0.42281  0.42281  0.00000  0.15439
      24     H     0.42316  0.42316  0.00000  0.15367
      25     H     0.42153  0.42153  0.00000  0.15694
      26     H     0.41904  0.41904  0.00000  0.16193
      27     H     0.42259  0.42259  0.00000  0.15482

   Total alpha = 37.00000, Total beta = 37.00000, Total charge =  0.00000
