  ==> Input File <==

--------------------------------------------------------------------------
set {
	reference rhf
	basis 6-31G*
}

set_num_threads( 1 )
memory 2 gb

molecule MOL {
0 1

H	 -4.236494	 0.538104	 0.039757
O	 -3.517110	 -0.026191	 -0.205115
C	 -2.306886	 0.532354	 0.237577
C	 -1.177863	 -0.397191	 -0.171080
H	 -2.156308	 1.517575	 -0.201710
H	 -2.315015	 0.655684	 1.319734
C	 0.198102	 0.111031	 0.262842
H	 -1.208843	 -0.518759	 -1.250427
H	 -1.368741	 -1.376554	 0.258909
C	 1.331804	 -0.827780	 -0.158768
H	 0.361943	 1.100838	 -0.156218
H	 0.217265	 0.229072	 1.345532
C	 2.723619	 -0.410569	 0.329459
H	 1.342964	 -0.912588	 -1.244120
H	 1.116806	 -1.824343	 0.220779
C	 2.748573	 0.204122	 1.730126
H	 3.132756	 0.310075	 -0.374364
H	 3.387872	 -1.272033	 0.300955
H	 2.083136	 1.061099	 1.791961
H	 2.444509	 -0.506405	 2.491619
H	 3.747955	 0.544147	 1.983843

	symmetry c1
}
set optking {
	frozen_dihedral = ("
		2 3 4 8,
		8 4 7 10,
		4 7 10 14,
		1 2 3 5
	")
}

ee = energy('scf')
oeprop('DIPOLE', 'QUADRUPOLE', 'MULLIKEN_CHARGES')
f=open( 'psi4out.xyz', 'w' )
f.write( "21  " )
f.write( str(ee) + "\n" )
f.write( MOL.save_string_xyz() )
f.close()
--------------------------------------------------------------------------

    Molecular point group: c1

    Geometry (in Angstrom), charge = 0, multiplicity = 1:

       Center              X                  Y                   Z               Mass
    ------------   -----------------  -----------------  -----------------  -----------------
           H         -4.163562530074     0.639303884403    -0.254631626229     1.007825032070
           O         -3.444178530074     0.075008884403    -0.499503626229    15.994914619560
           C         -2.233954530074     0.633553884403    -0.056811626229    12.000000000000
           C         -1.104931530074    -0.295991115597    -0.465468626229    12.000000000000
           H         -2.083376530074     1.618774884403    -0.496098626229     1.007825032070
           H         -2.242083530074     0.756883884403     1.025345373771     1.007825032070
           C          0.271033469926     0.212230884403    -0.031546626229    12.000000000000
           H         -1.135911530074    -0.417559115597    -1.544815626229     1.007825032070
           H         -1.295809530074    -1.275354115597    -0.035479626229     1.007825032070
           C          1.404735469926    -0.726580115597    -0.453156626229    12.000000000000
           H          0.434874469926     1.202037884403    -0.450606626229     1.007825032070
           H          0.290196469926     0.330271884403     1.051143373771     1.007825032070
           C          2.796550469926    -0.309369115597     0.035070373771    12.000000000000
           H          1.415895469926    -0.811388115597    -1.538508626229     1.007825032070
           H          1.189737469926    -1.723143115597    -0.073609626229     1.007825032070
           C          2.821504469926     0.305321884403     1.435737373771    12.000000000000
           H          3.205687469926     0.411274884403    -0.668752626229     1.007825032070
           H          3.460803469926    -1.170833115597     0.006566373771     1.007825032070
           H          2.156067469926     1.162298884403     1.497572373771     1.007825032070
           H          2.517440469926    -0.405205115597     2.197230373771     1.007825032070
           H          3.820886469926     0.645346884403     1.689454373771     1.007825032070

  Charge       = 0
  Multiplicity = 1
  Basis Set: 6-31G*
  Basis Set:

    Orbital Energies (a.u.)
    -----------------------

    Doubly Occupied:

       1A    -20.551743     2A    -11.266904     3A    -11.215248
       4A    -11.214772     5A    -11.213178     6A    -11.210302
       7A    -11.207938     8A     -1.358559     9A     -1.087268
      10A     -1.032393    11A     -0.952510    12A     -0.879915
      13A     -0.809330    14A     -0.772912    15A     -0.692296
      16A     -0.662314    17A     -0.626757    18A     -0.605084
      19A     -0.585717    20A     -0.571060    21A     -0.536981
      22A     -0.522999    23A     -0.505296    24A     -0.486731
      25A     -0.481801    26A     -0.459007    27A     -0.451945
      28A     -0.444008    29A     -0.433835

  @DF-RHF Final Energy:  -310.20837462649700

   => Energetics <=

    Nuclear Repulsion Energy =            314.3521321057599494
    One-Electron Energy =               -1043.4437731565494687
    Two-Electron Energy =                 418.8832664242921169
    DFT Exchange-Correlation Energy =       0.0000000000000000
    Empirical Dispersion Energy =           0.0000000000000000
    PCM Polarization Energy =               0.0000000000000000
    EFP Energy =                            0.0000000000000000
    Total Energy =                       -310.2083746264974593

  Mulliken Charges: (a.u.)
   Center  Symbol    Alpha    Beta     Spin     Total
       1     H     0.28120  0.28120  0.00000  0.43760
       2     O     4.37180  4.37180  0.00000 -0.74360
       3     C     2.98965  2.98965  0.00000  0.02071
       4     C     3.15818  3.15818  0.00000 -0.31637
       5     H     0.43305  0.43305  0.00000  0.13390
       6     H     0.43295  0.43295  0.00000  0.13409
       7     C     3.16572  3.16572  0.00000 -0.33144
       8     H     0.41515  0.41515  0.00000  0.16971
       9     H     0.41477  0.41477  0.00000  0.17045
      10     C     3.15171  3.15171  0.00000 -0.30342
      11     H     0.42387  0.42387  0.00000  0.15225
      12     H     0.41944  0.41944  0.00000  0.16112
      13     C     3.15186  3.15186  0.00000 -0.30371
      14     H     0.42025  0.42025  0.00000  0.15951
      15     H     0.42283  0.42283  0.00000  0.15435
      16     C     3.24476  3.24476  0.00000 -0.48953
      17     H     0.42312  0.42312  0.00000  0.15376
      18     H     0.42006  0.42006  0.00000  0.15987
      19     H     0.41896  0.41896  0.00000  0.16209
      20     H     0.42177  0.42177  0.00000  0.15645
      21     H     0.41889  0.41889  0.00000  0.16222

   Total alpha = 29.00000, Total beta = 29.00000, Total charge =  0.00000
