  ==> Input File <==

--------------------------------------------------------------------------
set {
	reference rhf
	basis 6-31G*
}

set_num_threads( 4 )
memory 2 gb

molecule MOL {
0 1

O	 1.836783	 1.313980	 -0.135545
C	 1.676710	 0.166183	 -0.400227
C	 0.354110	 -0.560823	 -0.392636
O	 2.668272	 -0.643558	 -0.749887
C	 -0.823008	 0.326187	 0.001381
H	 0.212175	 -0.986927	 -1.382082
H	 0.452626	 -1.406985	 0.281919
C	 -2.149452	 -0.435131	 -0.000098
H	 -0.880207	 1.168399	 -0.680965
H	 -0.640122	 0.747019	 0.985130
C	 -3.368779	 0.488503	 -0.000883
H	 -2.193746	 -1.087250	 -0.871175
H	 -2.195311	 -1.087803	 0.870418
C	 -4.693822	 -0.272754	 -0.001129
H	 -3.325798	 1.139422	 -0.871284
H	 -3.326423	 1.139959	 0.869145
H	 -4.781274	 -0.907928	 -0.878124
H	 -5.538651	 0.408946	 -0.001420
H	 -4.781694	 -0.907783	 0.875984
C	 3.968075	 -0.084022	 -0.798754
H	 4.008599	 0.720650	 -1.518746
H	 4.623887	 -0.886766	 -1.097733
H	 4.256245	 0.293167	 0.171911

	symmetry c1
}
set optking {
	frozen_dihedral = ("
		9 5 8 12
	")
}

ee = optimize('scf')
oeprop('DIPOLE', 'QUADRUPOLE', 'MULLIKEN_CHARGES')
f=open( 'psi4out.xyz', 'w' )
f.write( "23  " )
f.write( str(ee) + "\n" )
f.write( MOL.save_string_xyz() )
f.close()
--------------------------------------------------------------------------

    Molecular point group: c1
  Charge       = 0
  Multiplicity = 1
  Basis Set: 6-31G*
  Basis Set:
  @DF-RHF Final Energy:  -422.97534567487412
    Total Energy =                       -422.9753456748745748
    Molecular point group: c1
  Basis Set: 6-31G*
  Basis Set:
  Basis Set: 6-31G*
  Basis Set:
  @DF-RHF Final Energy:  -422.97543010040641
    Total Energy =                       -422.9754301004065837
  Basis Set: 6-31G*
  Basis Set:
  Basis Set: 6-31G*
  Basis Set:
  @DF-RHF Final Energy:  -422.97504977526700
    Total Energy =                       -422.9750497752667115
  Basis Set: 6-31G*
  Basis Set:
  Basis Set: 6-31G*
  Basis Set:
  @DF-RHF Final Energy:  -422.97549112758804
    Total Energy =                       -422.9754911275879294
  Basis Set: 6-31G*
  Basis Set:
  Basis Set: 6-31G*
  Basis Set:
  @DF-RHF Final Energy:  -422.97549134564548
    Total Energy =                       -422.9754913456453096
  Basis Set: 6-31G*
  Basis Set:
  Basis Set: 6-31G*
  Basis Set:
  @DF-RHF Final Energy:  -422.97549723333941
    Total Energy =                       -422.9754972333397518
  Basis Set: 6-31G*
  Basis Set:
  Charge       = 0
  Multiplicity = 1
  Basis Set: 6-31G*
  Basis Set:

    Orbital Energies (a.u.)
    -----------------------

    Doubly Occupied:

       1A    -20.603691     2A    -20.545507     3A    -11.372328
       4A    -11.280889     5A    -11.235816     6A    -11.219075
       7A    -11.217771     8A    -11.216736     9A    -11.209705
      10A     -1.469393    11A     -1.362849    12A     -1.092925
      13A     -1.043829    14A     -0.987002    15A     -0.932153
      16A     -0.843855    17A     -0.795501    18A     -0.767466
      19A     -0.697410    20A     -0.683542    21A     -0.671739
      22A     -0.649599    23A     -0.609952    24A     -0.599440
      25A     -0.573095    26A     -0.558872    27A     -0.556340
      28A     -0.524345    29A     -0.521244    30A     -0.507509
      31A     -0.484446    32A     -0.470272    33A     -0.464793
      34A     -0.461624    35A     -0.455284    36A     -0.435600

  @DF-RHF Final Energy:  -422.97549780136472

   => Energetics <=

    Nuclear Repulsion Energy =            452.0847898580884134
    One-Electron Energy =               -1471.8773873187603840
    Two-Electron Energy =                 596.8170996593072459
    DFT Exchange-Correlation Energy =       0.0000000000000000
    Empirical Dispersion Energy =           0.0000000000000000
    PCM Polarization Energy =               0.0000000000000000
    EFP Energy =                            0.0000000000000000
    Total Energy =                       -422.9754978013646678
    Molecular point group: c1
  Basis Set: 6-31G*
  Basis Set:

  -Total Gradient:
     Atom            X                  Y                   Z
    ------   -----------------  -----------------  -----------------
       1       -0.000005908600    -0.000001815727    -0.000007611179
       2        0.000001378019     0.000007438721     0.000017796315
       3       -0.000016514696     0.000003391338    -0.000019018220
       4       -0.000008452392    -0.000004153023     0.000000183334
       5        0.001451770919    -0.002587499325    -0.002307713807
       6        0.000003596134    -0.000004084022    -0.000009256834
       7       -0.000006959352     0.000010481027    -0.000003441923
       8       -0.001737589164     0.003025918868    -0.001306605529
       9       -0.000927507536     0.001646555998     0.002138770742
      10       -0.000004420961     0.000010316506     0.000024097516
      11        0.000015786962     0.000004013876    -0.000032642643
      12        0.001213293488    -0.002093443225     0.001486141606
      13        0.000007184276    -0.000009710357     0.000013684548
      14        0.000008288597    -0.000007009691     0.000004145161
      15       -0.000003582426     0.000016013729    -0.000002665019
      16        0.000010242701    -0.000019979117    -0.000001857261
      17        0.000007578617     0.000000937541     0.000005597122
      18        0.000003019159     0.000001258064    -0.000006095650
      19       -0.000007876622     0.000000195994     0.000006473243
      20       -0.000002153385     0.000001498484     0.000000165816
      21        0.000000229216     0.000000152074    -0.000000096137
      22       -0.000000904140    -0.000000341723    -0.000000116394
      23       -0.000000498822    -0.000000136009     0.000000065193

  **** Optimization is complete! (in 7 steps) ****
    Final optimized geometry and variables:
    Molecular point group: c1

    Geometry (in Angstrom), charge = 0, multiplicity = 1:

    O            1.859120275933     1.274150668643     0.163794606340
    C            1.699753690298     0.131308858276    -0.121724774169
    C            0.373862084876    -0.588917177780    -0.156018612408
    O            2.695524016977    -0.679368329681    -0.456870757518
    C           -0.808206707334     0.298482901322     0.217214325337
    H            0.255267227041    -1.003950567054    -1.153037390337
    H            0.450286872807    -1.442629132622     0.512145893035
    C           -2.136161436087    -0.464273506707     0.228565833209
    H           -0.866699045454     1.143523752364    -0.461940262604
    H           -0.632746006272     0.731527279136     1.197208586180
    C           -3.358293648488     0.452518447685     0.276972784855
    H           -2.197263667204    -1.117877780493    -0.640522304510
    H           -2.154303624893    -1.129777430892     1.090708275245
    C           -4.678026940857    -0.314498353075     0.347034207465
    H           -3.359385018376     1.095084149957    -0.600548404656
    H           -3.277322017110     1.112675797031     1.137805924233
    H           -4.800391769982    -0.963796050133    -0.515399744259
    H           -5.525524316459     0.363331784785     0.373161055040
    H           -4.724115722076    -0.935994197928     1.236850992701
    C            3.999123890238    -0.126550385537    -0.465388352024
    H            4.062248937416     0.687113673863    -1.173539341470
    H            4.658078032781    -0.929062346191    -0.758159616838
    H            4.264468698660     0.236340065224     0.517167505122

  Mulliken Charges: (a.u.)
   Center  Symbol    Alpha    Beta     Spin     Total
       1     O     4.28599  4.28599  0.00000 -0.57199
       2     C     2.60490  2.60490  0.00000  0.79020
       3     C     3.20842  3.20842  0.00000 -0.41685
       4     O     4.30743  4.30743  0.00000 -0.61486
       5     C     3.15326  3.15326  0.00000 -0.30653
       6     H     0.40043  0.40043  0.00000  0.19915
       7     H     0.40049  0.40049  0.00000  0.19903
       8     C     3.15372  3.15372  0.00000 -0.30744
       9     H     0.41202  0.41202  0.00000  0.17597
      10     H     0.41091  0.41091  0.00000  0.17817
      11     C     3.15186  3.15186  0.00000 -0.30371
      12     H     0.42447  0.42447  0.00000  0.15106
      13     H     0.42313  0.42313  0.00000  0.15374
      14     C     3.23976  3.23976  0.00000 -0.47951
      15     H     0.42147  0.42147  0.00000  0.15705
      16     H     0.42085  0.42085  0.00000  0.15829
      17     H     0.42183  0.42183  0.00000  0.15634
      18     H     0.41847  0.41847  0.00000  0.16306
      19     H     0.42159  0.42159  0.00000  0.15682
      20     C     3.09246  3.09246  0.00000 -0.18492
      21     H     0.40905  0.40905  0.00000  0.18189
      22     H     0.40842  0.40842  0.00000  0.18316
      23     H     0.40907  0.40907  0.00000  0.18186

   Total alpha = 36.00000, Total beta = 36.00000, Total charge = -0.00000
