                              Psi4 1.0.54 Driver

  ==> Input File <==

--------------------------------------------------------------------------
set {
	reference rhf
	basis cc-pvtz
}

set_num_threads( 4 )
memory 2 gb

molecule MOL {
0 1

O	 1.847685	 1.294399	 -0.000190
C	 1.704209	 0.119472	 -0.000093
C	 0.380337	 -0.600947	 -0.000234
O	 2.715427	 -0.733672	 0.000025
C	 -0.824290	 0.329213	 -0.000115
H	 0.371455	 -1.255476	 -0.865660
H	 0.371410	 -1.255787	 0.864952
C	 -0.444755	 1.770652	 -0.326039
H	 -1.308932	 0.286063	 0.968664
H	 -1.553608	 -0.030623	 -0.716986
C	 -1.640379	 2.718770	 -0.331121
H	 0.288721	 2.124593	 0.395063
H	 0.043642	 1.806461	 -1.297339
C	 -1.261049	 4.159510	 -0.656374
H	 -2.128382	 2.684531	 0.638847
H	 -2.372899	 2.367130	 -1.052177
H	 -0.554785	 4.551700	 0.067928
H	 -2.131632	 4.805106	 -0.651460
H	 -0.801596	 4.231856	 -1.636631
C	 4.020999	 -0.192556	 0.000019
H	 4.182809	 0.412891	 -0.879449
H	 4.692590	 -1.035653	 0.000152
H	 4.182726	 0.413087	 0.879368

	symmetry c1
}
set optking {
	frozen_dihedral = ("
		9 5 3 6
	")
}

ee,wfn = optimize('scf', return_wfn=True)
oeprop( wfn, 'DIPOLE', 'QUADRUPOLE', 'MULLIKEN_CHARGES')
f=open( 'psi4out.xyz', 'w' )
f.write( "23  " )
f.write( str(ee) + "\n" )
f.write( MOL.save_string_xyz() )
f.close()
--------------------------------------------------------------------------

    Molecular point group: c1
  Charge       = 0
  Multiplicity = 1
  Basis Set: CC-PVTZ
  Basis Set:
  @DF-RHF Final Energy:  -423.09356165033591
    Total Energy =                       -423.0935616503361416
    Molecular point group: c1
  Basis Set: CC-PVTZ
  Basis Set:
  Basis Set: CC-PVTZ
  Basis Set:
  @DF-RHF Final Energy:  -423.11328615604879
    Total Energy =                       -423.1132861560490710
  Basis Set: CC-PVTZ
  Basis Set:
  Basis Set: CC-PVTZ
  Basis Set:
  @DF-RHF Final Energy:  -423.11728877096022
    Total Energy =                       -423.1172887709598172
  Basis Set: CC-PVTZ
  Basis Set:
  Basis Set: CC-PVTZ
  Basis Set:
  @DF-RHF Final Energy:  -423.11277198071309
    Total Energy =                       -423.1127719807134326
  Basis Set: CC-PVTZ
  Basis Set:
  @DF-RHF Final Energy:  -423.11928163843163
    Total Energy =                       -423.1192816384318576
  @DF-RHF Final Energy:  -423.11999142766695
    Total Energy =                       -423.1199914276669460
  @DF-RHF Final Energy:  -423.12039553836183
    Total Energy =                       -423.1203955383617767
  @DF-RHF Final Energy:  -423.12046891265425
    Total Energy =                       -423.1204689126542462
  @DF-RHF Final Energy:  -423.12115293386853
    Total Energy =                       -423.1211529338686432
  @DF-RHF Final Energy:  -423.12129001523874
    Total Energy =                       -423.1212900152388556
  @DF-RHF Final Energy:  -423.12167163916575
    Total Energy =                       -423.1216716391659247
  @DF-RHF Final Energy:  -423.12183737259625
    Total Energy =                       -423.1218373725962465
  @DF-RHF Final Energy:  -423.12195305809610
    Total Energy =                       -423.1219530580958690
  @DF-RHF Final Energy:  -423.12202106024068
    Total Energy =                       -423.1220210602405132
  @DF-RHF Final Energy:  -423.12216543046856
    Total Energy =                       -423.1221654304683852
  @DF-RHF Final Energy:  -423.12227752099199
    Total Energy =                       -423.1222775209923839
  @DF-RHF Final Energy:  -423.12233227286390
    Total Energy =                       -423.1223322728640142
  @DF-RHF Final Energy:  -423.12239865847579
    Total Energy =                       -423.1223986584755039
  Basis Set: CC-PVTZ
  Basis Set:
  @DF-RHF Final Energy:  -423.12241450790339
    Total Energy =                       -423.1224145079031587
  Basis Set: CC-PVTZ
  Basis Set:
  Basis Set: CC-PVTZ
  Basis Set:
  @DF-RHF Final Energy:  -423.12242610868350
    Total Energy =                       -423.1224261086838396
  Basis Set: CC-PVTZ
  Basis Set:
  Basis Set: CC-PVTZ
  Basis Set:
  @DF-RHF Final Energy:  -423.12242856508658
    Total Energy =                       -423.1224285650865795
  Basis Set: CC-PVTZ
  Basis Set:
  Charge       = 0
  Multiplicity = 1
  Basis Set: CC-PVTZ
  Basis Set:

    Orbital Energies (a.u.)
    -----------------------

    Doubly Occupied:

       1A    -20.597890     2A    -20.531081     3A    -11.363864
       4A    -11.278279     5A    -11.231902     6A    -11.227780
       7A    -11.216305     8A    -11.215418     9A    -11.208142
      10A     -1.471996    11A     -1.364047    12A     -1.093870
      13A     -1.042842    14A     -0.984744    15A     -0.936457
      16A     -0.848260    17A     -0.802160    18A     -0.770153
      19A     -0.692633    20A     -0.680943    21A     -0.675597
      22A     -0.651386    23A     -0.606245    24A     -0.601421
      25A     -0.577865    26A     -0.569518    27A     -0.546865
      28A     -0.532377    29A     -0.526674    30A     -0.509492
      31A     -0.487387    32A     -0.474110    33A     -0.467402
      34A     -0.459114    35A     -0.453697    36A     -0.434784

  @DF-RHF Final Energy:  -423.12242878841272

   => Energetics <=

    Nuclear Repulsion Energy =            471.1271019276597940
    One-Electron Energy =               -1510.2336597492890178
    Two-Electron Energy =                 615.9841290332168455
    DFT Exchange-Correlation Energy =       0.0000000000000000
    Empirical Dispersion Energy =           0.0000000000000000
    PCM Polarization Energy =               0.0000000000000000
    EFP Energy =                            0.0000000000000000
    Total Energy =                       -423.1224287884123214
    Molecular point group: c1
  Basis Set: CC-PVTZ
  Basis Set:

  -Total Gradient:
     Atom            X                  Y                   Z
    ------   -----------------  -----------------  -----------------
       1        0.000010462363    -0.000006357562     0.000017405040
       2       -0.000017857882     0.000011194326    -0.000019695350
       3        0.001660065971     0.002532785590    -0.003358834315
       4        0.000029084056    -0.000008692400    -0.000027416959
       5        0.002586345788     0.003145019450     0.001541476485
       6       -0.001775915879    -0.002596096576     0.002571519298
       7       -0.000005998830    -0.000003950473     0.000011591095
       8        0.000017991753    -0.000004130766    -0.000013089187
       9       -0.002468262013    -0.003079715208    -0.000742435743
      10       -0.000004905283     0.000004287077    -0.000000621447
      11       -0.000020085593    -0.000002400036     0.000002420070
      12        0.000000894723    -0.000002997235     0.000009220880
      13        0.000001819034     0.000000726044    -0.000001875591
      14       -0.000000564039    -0.000000997319    -0.000002365403
      15        0.000002008152     0.000000359522    -0.000001278660
      16       -0.000000853053    -0.000001174527     0.000001521720
      17        0.000001955610     0.000001454676     0.000001146542
      18       -0.000002583050     0.000002640715    -0.000001092412
      19        0.000000999369     0.000001736043    -0.000001699996
      20       -0.000024256328     0.000007480075     0.000016345278
      21        0.000008178758     0.000011191540    -0.000004191406
      22       -0.000005320767    -0.000005846727     0.000001791391
      23        0.000006797133    -0.000006516230     0.000000158665

  **** Optimization is complete! (in 22 steps) ****
    Final optimized geometry and variables:
    Molecular point group: c1

    Geometry (in Angstrom), charge = 0, multiplicity = 1:

    O            1.780198123207    -0.544791505807     1.170111299646
    C            1.149821670368    -1.002095852736     0.277178154198
    C           -0.173310854839    -1.703479448242     0.444168372968
    O            1.539260768024    -0.944312802852    -0.984974630244
    C           -1.394368413487    -0.752506949423     0.567469437142
    H           -0.321506371870    -2.401013725594    -0.366999331150
    H           -0.088410204207    -2.284921672787     1.351757278872
    C           -1.204916270882     0.675298422597     0.060942781493
    H           -1.723362356307    -0.737755791324     1.599499519782
    H           -2.211159533848    -1.206065074846     0.016309189188
    C           -2.479506197224     1.507084257614     0.174483189412
    H           -0.413222154506     1.161256221895     0.622043669543
    H           -0.884074843227     0.653689815448    -0.976896434638
    C           -2.303052366917     2.937825358028    -0.322932316219
    H           -2.805167267451     1.524023746327     1.210820034215
    H           -3.275296012292     1.026039191179    -0.387626243558
    H           -1.537354871717     3.457006945256     0.243499928604
    H           -3.223724426132     3.501998185446    -0.228793520683
    H           -2.009693463410     2.955659768056    -1.367338002378
    C            2.761605010398    -0.287876505385    -1.255545611579
    H            2.716291514865     0.745324528042    -0.944602699538
    H            2.902841690252    -0.350012611687    -2.322372969491
    H            3.576855014818    -0.775014305472    -0.741775040323

  Mulliken Charges: (a.u.)
   Center  Symbol    Alpha    Beta     Spin     Total
       1     O     4.20867  4.20867  0.00000 -0.41734
       2     C     2.79111  2.79111  0.00000  0.41777
       3     C     3.09116  3.09116  0.00000 -0.18233
       4     O     4.15324  4.15324  0.00000 -0.30648
       5     C     3.09561  3.09561  0.00000 -0.19123
       6     H     0.44133  0.44133  0.00000  0.11735
       7     H     0.43784  0.43784  0.00000  0.12433
       8     C     3.09940  3.09940  0.00000 -0.19880
       9     H     0.44741  0.44741  0.00000  0.10518
      10     H     0.45068  0.45068  0.00000  0.09865
      11     C     3.08649  3.08649  0.00000 -0.17297
      12     H     0.44454  0.44454  0.00000  0.11092
      13     H     0.44795  0.44795  0.00000  0.10409
      14     C     3.15024  3.15024  0.00000 -0.30048
      15     H     0.45335  0.45335  0.00000  0.09330
      16     H     0.45445  0.45445  0.00000  0.09111
      17     H     0.45369  0.45369  0.00000  0.09262
      18     H     0.44815  0.44815  0.00000  0.10370
      19     H     0.45546  0.45546  0.00000  0.08908
      20     C     3.04035  3.04035  0.00000 -0.08070
      21     H     0.45361  0.45361  0.00000  0.09279
      22     H     0.44503  0.44503  0.00000  0.10993
      23     H     0.45024  0.45024  0.00000  0.09951

   Total alpha = 36.00000, Total beta = 36.00000, Total charge = -0.00000

*** Psi4 exiting successfully. Buy a developer a beer!
