                              Psi4 1.0.54 Driver

  ==> Input File <==

--------------------------------------------------------------------------
set {
	reference rhf
	basis cc-pvtz
}

set_num_threads( 4 )
memory 2 gb

molecule MOL {
0 1

H	 1.579158	 -1.214729	 0.776205
O	 1.583947	 -0.677544	 -0.001533
C	 0.489979	 0.078084	 0.002623
C	 -0.763662	 -0.754014	 0.000816
O	 0.539051	 1.259395	 -0.000088
C	 -2.038001	 0.074705	 -0.000833
H	 -0.712945	 -1.405886	 -0.864342
H	 -0.715137	 -1.405770	 0.866182
H	 -2.087267	 0.710831	 -0.874232
H	 -2.903419	 -0.576199	 -0.001922
H	 -2.089467	 0.710909	 0.872389

	symmetry c1
}
set optking {
	frozen_dihedral = ("
		1 2 3 5
	")
}

ee,wfn = optimize('scf', return_wfn=True)
oeprop( wfn, 'DIPOLE', 'QUADRUPOLE', 'MULLIKEN_CHARGES')
f=open( 'psi4out.xyz', 'w' )
f.write( "11  " )
f.write( str(ee) + "\n" )
f.write( MOL.save_string_xyz() )
f.close()
--------------------------------------------------------------------------

    Molecular point group: c1
  Charge       = 0
  Multiplicity = 1
  Basis Set: CC-PVTZ
  Basis Set:
  @DF-RHF Final Energy:  -266.93387340143289
    Total Energy =                       -266.9338734014327201
    Molecular point group: c1
  Basis Set: CC-PVTZ
  Basis Set:
  Basis Set: CC-PVTZ
  Basis Set:
  @DF-RHF Final Energy:  -266.93527536774775
    Total Energy =                       -266.9352753677476358
  Basis Set: CC-PVTZ
  Basis Set:
  Basis Set: CC-PVTZ
  Basis Set:
  @DF-RHF Final Energy:  -266.93522610208652
    Total Energy =                       -266.9352261020865171
  Basis Set: CC-PVTZ
  Basis Set:
  Basis Set: CC-PVTZ
  Basis Set:
  @DF-RHF Final Energy:  -266.93538383026157
    Total Energy =                       -266.9353838302615713
  Basis Set: CC-PVTZ
  Basis Set:
  Basis Set: CC-PVTZ
  Basis Set:
  @DF-RHF Final Energy:  -266.93540723117866
    Total Energy =                       -266.9354072311786013
  Basis Set: CC-PVTZ
  Basis Set:
  Charge       = 0
  Multiplicity = 1
  Basis Set: CC-PVTZ
  Basis Set:

    Orbital Energies (a.u.)
    -----------------------

    Doubly Occupied:

       1A    -20.591785     2A    -20.548271     3A    -11.374670
       4A    -11.248994     5A    -11.222329     6A     -1.465950
       7A     -1.373521     8A     -1.067268     9A     -0.909884
      10A     -0.818788    11A     -0.717603    12A     -0.673335
      13A     -0.662613    14A     -0.617739    15A     -0.577269
      16A     -0.532969    17A     -0.523086    18A     -0.507772
      19A     -0.492587    20A     -0.448669

  @DF-RHF Final Energy:  -266.93540765274088

   => Energetics <=

    Nuclear Repulsion Energy =            179.5624748014944032
    One-Electron Energy =                -720.2455634139081440
    Two-Electron Energy =                 273.7476809596728344
    DFT Exchange-Correlation Energy =       0.0000000000000000
    Empirical Dispersion Energy =           0.0000000000000000
    PCM Polarization Energy =               0.0000000000000000
    EFP Energy =                            0.0000000000000000
    Total Energy =                       -266.9354076527408779
    Molecular point group: c1
  Basis Set: CC-PVTZ
  Basis Set:

  -Total Gradient:
     Atom            X                  Y                   Z
    ------   -----------------  -----------------  -----------------
       1        0.002536732324     0.004151237181     0.002831277271
       2       -0.003267136868    -0.005233496017    -0.001393400920
       3        0.000874883943     0.000982161048    -0.006328541512
       4        0.000026363245     0.000018985313    -0.000060764314
       5       -0.000157752079     0.000068651361     0.004899055703
       6       -0.000017554096     0.000001568973     0.000020977830
       7       -0.000000398148     0.000003419707     0.000022099824
       8        0.000004892917     0.000009635916     0.000023138898
       9        0.000002207821    -0.000002046217    -0.000004114435
      10       -0.000006106935     0.000002821139    -0.000004887604
      11        0.000003867879    -0.000002938402    -0.000004840740

  **** Optimization is complete! (in 6 steps) ****
    Final optimized geometry and variables:
    Molecular point group: c1

    Geometry (in Angstrom), charge = 0, multiplicity = 1:

    H            1.688766107831    -1.178850018163     0.799589500717
    O            1.640356337905    -0.627993417174     0.036639413437
    C            0.494563010664     0.091532525773     0.004473819052
    C           -0.759719700126    -0.746296938199    -0.040392747942
    O            0.520358916407     1.264806953383    -0.004874600704
    C           -2.041519482360     0.070666536981    -0.050802242975
    H           -0.684915167647    -1.377697255277    -0.919285924157
    H           -0.737136212363    -1.422754233856     0.810225806183
    H           -2.073564581958     0.726515343607    -0.909978343362
    H           -2.902249173282    -0.585629415482    -0.087462871273
    H           -2.117822044292     0.686475972772     0.835355339326

  Mulliken Charges: (a.u.)
   Center  Symbol    Alpha    Beta     Spin     Total
       1     H     0.38904  0.38904  0.00000  0.22191
       2     O     4.16440  4.16440  0.00000 -0.32881
       3     C     2.80517  2.80517  0.00000  0.38966
       4     C     3.10738  3.10738  0.00000 -0.21477
       5     O     4.16201  4.16201  0.00000 -0.32403
       6     C     3.13941  3.13941  0.00000 -0.27882
       7     H     0.43698  0.43698  0.00000  0.12603
       8     H     0.45242  0.45242  0.00000  0.09516
       9     H     0.44484  0.44484  0.00000  0.11031
      10     H     0.45020  0.45020  0.00000  0.09961
      11     H     0.44813  0.44813  0.00000  0.10375

   Total alpha = 20.00000, Total beta = 20.00000, Total charge =  0.00000

*** Psi4 exiting successfully. Buy a developer a beer!
