                              Psi4 1.0.54 Driver

  ==> Input File <==

--------------------------------------------------------------------------
set {
	reference rhf
	basis cc-pvtz
}

set_num_threads( 4 )
memory 2 gb

molecule MOL {
0 1

O	 -2.071633	 -1.227563	 -0.223463
C	 -1.652164	 -0.152425	 0.058082
C	 -0.327811	 0.006324	 0.778296
C	 -2.402515	 1.108629	 -0.298924
C	 0.843231	 -0.001575	 -0.211665
H	 -0.319484	 0.928173	 1.350354
H	 -0.227804	 -0.823091	 1.466705
C	 2.197693	 0.138030	 0.476937
H	 0.722944	 0.805202	 -0.930230
H	 0.813976	 -0.926978	 -0.776588
C	 2.140012	 -0.174305	 1.968339
H	 2.915633	 -0.521437	 -0.002843
H	 2.567717	 1.149004	 0.333569
H	 1.806301	 -1.191704	 2.143186
H	 1.453258	 0.490769	 2.480602
H	 3.114559	 -0.062553	 2.428961
H	 -3.240910	 0.874416	 -0.936711
H	 -1.747554	 1.818823	 -0.790984
H	 -2.760419	 1.579708	 0.610998

	symmetry c1
}
set optking {
	frozen_dihedral = ("
		11 8 5 9
	")
}

ee,wfn = optimize('scf', return_wfn=True)
oeprop( wfn, 'DIPOLE', 'QUADRUPOLE', 'MULLIKEN_CHARGES')
f=open( 'psi4out.xyz', 'w' )
f.write( "19  " )
f.write( str(ee) + "\n" )
f.write( MOL.save_string_xyz() )
f.close()
--------------------------------------------------------------------------

    Molecular point group: c1
  Charge       = 0
  Multiplicity = 1
  Basis Set: CC-PVTZ
  Basis Set:
  @DF-RHF Final Energy:  -309.16556619535197
    Total Energy =                       -309.1655661953518575
    Molecular point group: c1
  Basis Set: CC-PVTZ
  Basis Set:
  Basis Set: CC-PVTZ
  Basis Set:
  @DF-RHF Final Energy:  -309.16469875411508
    Total Energy =                       -309.1646987541152498
  Basis Set: CC-PVTZ
  Basis Set:
  Basis Set: CC-PVTZ
  Basis Set:
  @DF-RHF Final Energy:  -309.16875231693757
    Total Energy =                       -309.1687523169374572
  Basis Set: CC-PVTZ
  Basis Set:
  Basis Set: CC-PVTZ
  Basis Set:
  @DF-RHF Final Energy:  -309.16879077382401
    Total Energy =                       -309.1687907738240142
  Basis Set: CC-PVTZ
  Basis Set:
  Basis Set: CC-PVTZ
  Basis Set:
  @DF-RHF Final Energy:  -309.16902939952064
    Total Energy =                       -309.1690293995204684
  Basis Set: CC-PVTZ
  Basis Set:
  Basis Set: CC-PVTZ
  Basis Set:
  @DF-RHF Final Energy:  -309.16909289711930
    Total Energy =                       -309.1690928971194694
  Basis Set: CC-PVTZ
  Basis Set:
  Basis Set: CC-PVTZ
  Basis Set:
  @DF-RHF Final Energy:  -309.16909459738190
    Total Energy =                       -309.1690945973816724
  Basis Set: CC-PVTZ
  Basis Set:
  Charge       = 0
  Multiplicity = 1
  Basis Set: CC-PVTZ
  Basis Set:

    Orbital Energies (a.u.)
    -----------------------

    Doubly Occupied:

       1A    -20.536530     2A    -11.319052     3A    -11.229272
       4A    -11.227162     5A    -11.226913     6A    -11.223653
       7A    -11.213773     8A     -1.396723     9A     -1.089628
      10A     -1.027746    11A     -0.981920    12A     -0.903687
      13A     -0.795694    14A     -0.734413    15A     -0.663998
      16A     -0.653314    17A     -0.623946    18A     -0.605276
      19A     -0.586253    20A     -0.575231    21A     -0.551964
      22A     -0.545268    23A     -0.521591    24A     -0.504848
      25A     -0.481508    26A     -0.467111    27A     -0.461081
      28A     -0.399529

  @DF-RHF Final Energy:  -309.16909479866644

   => Energetics <=

    Nuclear Repulsion Energy =            305.5181360822716101
    One-Electron Energy =               -1024.2802935503416393
    Two-Electron Energy =                 409.5930626694036505
    DFT Exchange-Correlation Energy =       0.0000000000000000
    Empirical Dispersion Energy =           0.0000000000000000
    PCM Polarization Energy =               0.0000000000000000
    EFP Energy =                            0.0000000000000000
    Total Energy =                       -309.1690947986663218
    Molecular point group: c1
  Basis Set: CC-PVTZ
  Basis Set:

  -Total Gradient:
     Atom            X                  Y                   Z
    ------   -----------------  -----------------  -----------------
       1       -0.000021166134     0.000040195953     0.000001264436
       2        0.000024604732     0.000003396961    -0.000004249076
       3        0.000006977433    -0.000003972157    -0.000014177234
       4       -0.000012702816    -0.000018088845    -0.000007766788
       5        0.002279823009    -0.001877797701    -0.004469754249
       6        0.000019344412     0.000001959372     0.000000322959
       7        0.000007058243    -0.000015570504    -0.000012344019
       8        0.000698746772    -0.005017436671    -0.000436191311
       9       -0.002177716498     0.002986505903     0.003998134542
      10       -0.000006923735    -0.000011354611     0.000023840265
      11       -0.000781290872     0.003943292398     0.000950758481
      12       -0.000026570480     0.000005477469     0.000005914994
      13        0.000003642270    -0.000001638915     0.000002210795
      14       -0.000011323351    -0.000002596920    -0.000007210634
      15        0.000021806985    -0.000007881944    -0.000015423242
      16       -0.000020023015    -0.000001556288    -0.000009366065
      17       -0.000010322092     0.000011527552    -0.000011833594
      18       -0.000004928039    -0.000020019465     0.000003987737
      19        0.000010963180    -0.000014441583     0.000001882002

  **** Optimization is complete! (in 8 steps) ****
    Final optimized geometry and variables:
    Molecular point group: c1

    Geometry (in Angstrom), charge = 0, multiplicity = 1:

    O           -1.931717217047    -1.140308048213    -0.656417472888
    C           -1.503410412583    -0.079244730268    -0.337009536988
    C           -0.204943256337     0.038718921498     0.436740013257
    C           -2.218812904916     1.202231433486    -0.693424805684
    C            0.990417595086     0.008241173444    -0.530338113945
    H           -0.199316554632     0.957513514979     1.012672726139
    H           -0.161440529974    -0.795587074292     1.122277718204
    C            2.384841192399     0.144729636838     0.125475068480
    H            0.859146989120     0.834146944701    -1.221571429739
    H            0.932042715910    -0.909004115340    -1.101715225607
    C            2.485214557322    -0.178063227486     1.615071336550
    H            3.083692239448    -0.478082460670    -0.420734894114
    H            2.730682546736     1.164571386805    -0.010496245858
    H            2.184859970574    -1.197229999583     1.832197583579
    H            1.873161459979     0.483888006103     2.214599383839
    H            3.510347288878    -0.063594295797     1.947414326513
    H           -3.033470162757     0.997373968370    -1.370871489134
    H           -1.533922777203     1.914425500746    -1.139527428237
    H           -2.607581653870     1.655636108816     0.212850496852

  Mulliken Charges: (a.u.)
   Center  Symbol    Alpha    Beta     Spin     Total
       1     O     4.17735  4.17735  0.00000 -0.35469
       2     C     2.85786  2.85786  0.00000  0.28427
       3     C     3.10259  3.10259  0.00000 -0.20518
       4     C     3.15595  3.15595  0.00000 -0.31191
       5     C     3.10526  3.10526  0.00000 -0.21051
       6     H     0.44865  0.44865  0.00000  0.10269
       7     H     0.43694  0.43694  0.00000  0.12613
       8     C     3.08820  3.08820  0.00000 -0.17640
       9     H     0.44940  0.44940  0.00000  0.10119
      10     H     0.43852  0.43852  0.00000  0.12296
      11     C     3.15682  3.15682  0.00000 -0.31364
      12     H     0.44740  0.44740  0.00000  0.10519
      13     H     0.45280  0.45280  0.00000  0.09441
      14     H     0.45061  0.45061  0.00000  0.09878
      15     H     0.45327  0.45327  0.00000  0.09346
      16     H     0.44316  0.44316  0.00000  0.11367
      17     H     0.43573  0.43573  0.00000  0.12855
      18     H     0.45108  0.45108  0.00000  0.09784
      19     H     0.44841  0.44841  0.00000  0.10318

   Total alpha = 28.00000, Total beta = 28.00000, Total charge =  0.00000

*** Psi4 exiting successfully. Buy a developer a beer!
