  ==> Input File <==

--------------------------------------------------------------------------
set {
	reference rhf
	basis 6-31G*
}

set_num_threads( 1 )
memory 2 gb

molecule MOL {
0 1

O	 1.427822	 2.026891	 -0.330794
C	 0.470462	 2.268979	 -0.992589
C	 -0.827454	 1.498945	 -0.974459
O	 0.418583	 3.278217	 -1.852755
C	 -0.823008	 0.326187	 0.001381
H	 -1.620012	 2.204043	 -0.739083
H	 -1.021171	 1.165224	 -1.990246
C	 -2.149452	 -0.435131	 -0.000098
H	 -0.609255	 0.693053	 1.000334
H	 -0.010593	 -0.347405	 -0.252713
C	 -3.368779	 0.488503	 -0.000883
H	 -2.193746	 -1.087250	 -0.871175
H	 -2.195311	 -1.087803	 0.870418
C	 -4.693822	 -0.272754	 -0.001129
H	 -3.325798	 1.139422	 -0.871284
H	 -3.326423	 1.139959	 0.869145
H	 -4.781274	 -0.907928	 -0.878124
H	 -5.538651	 0.408946	 -0.001420
H	 -4.781694	 -0.907783	 0.875984
C	 1.576016	 4.085929	 -1.966357
H	 1.810614	 4.549227	 -1.018809
H	 1.339620	 4.838528	 -2.702283
H	 2.420700	 3.496024	 -2.291975

	symmetry c1
}
set optking {
	frozen_dihedral = ("
		15 11 8 12,
		1 2 3 6,
		9 5 3 6,
		1 2 4 20
	")
}

ee = energy('scf')
oeprop('DIPOLE', 'QUADRUPOLE', 'MULLIKEN_CHARGES')
f=open( 'psi4out.xyz', 'w' )
f.write( "23  " )
f.write( str(ee) + "\n" )
f.write( MOL.save_string_xyz() )
f.close()
--------------------------------------------------------------------------

    Molecular point group: c1

    Geometry (in Angstrom), charge = 0, multiplicity = 1:

       Center              X                  Y                   Z               Mass
    ------------   -----------------  -----------------  -----------------  -----------------
           O          2.290845650715     0.521898457541     0.362515444888    15.994914619560
           C          1.333485650715     0.763986457541    -0.299279555112    12.000000000000
           C          0.035569650715    -0.006047542459    -0.281149555112    12.000000000000
           O          1.281606650715     1.773224457541    -1.159445555112    15.994914619560
           C          0.040015650715    -1.178805542459     0.694690444888    12.000000000000
           H         -0.756988349285     0.699050457541    -0.045773555112     1.007825032070
           H         -0.158147349285    -0.339768542459    -1.296936555112     1.007825032070
           C         -1.286428349285    -1.940123542459     0.693211444888    12.000000000000
           H          0.253768650715    -0.811939542459     1.693643444888     1.007825032070
           H          0.852430650715    -1.852397542459     0.440596444888     1.007825032070
           C         -2.505755349285    -1.016489542459     0.692426444888    12.000000000000
           H         -1.330722349285    -2.592242542459    -0.177865555112     1.007825032070
           H         -1.332287349285    -2.592795542459     1.563727444888     1.007825032070
           C         -3.830798349285    -1.777746542459     0.692180444888    12.000000000000
           H         -2.462774349285    -0.365570542459    -0.177974555112     1.007825032070
           H         -2.463399349285    -0.365033542459     1.562454444888     1.007825032070
           H         -3.918250349285    -2.412920542459    -0.184814555112     1.007825032070
           H         -4.675627349285    -1.096046542459     0.691889444888     1.007825032070
           H         -3.918670349285    -2.412775542459     1.569293444888     1.007825032070
           C          2.439039650715     2.580936457541    -1.273047555112    12.000000000000
           H          2.673637650715     3.044234457541    -0.325499555112     1.007825032070
           H          2.202643650715     3.333535457541    -2.008973555112     1.007825032070
           H          3.283723650715     1.991031457541    -1.598665555112     1.007825032070

  Charge       = 0
  Multiplicity = 1
  Basis Set: 6-31G*
  Basis Set:

    Orbital Energies (a.u.)
    -----------------------

    Doubly Occupied:

       1A    -20.603302     2A    -20.544802     3A    -11.371584
       4A    -11.280632     5A    -11.234218     6A    -11.219016
       7A    -11.218555     8A    -11.217561     9A    -11.211093
      10A     -1.468893    11A     -1.362264    12A     -1.097301
      13A     -1.039946    14A     -0.987025    15A     -0.932865
      16A     -0.853264    17A     -0.793385    18A     -0.760858
      19A     -0.702114    20A     -0.682354    21A     -0.671487
      22A     -0.642215    23A     -0.617448    24A     -0.600097
      25A     -0.578419    26A     -0.558654    27A     -0.554211
      28A     -0.526895    29A     -0.520302    30A     -0.512275
      31A     -0.491580    32A     -0.467330    33A     -0.463254
      34A     -0.456884    35A     -0.452696    36A     -0.436785

  @DF-RHF Final Energy:  -422.97078838233341

   => Energetics <=

    Nuclear Repulsion Energy =            460.8982538711523489
    One-Electron Energy =               -1489.4748723367681578
    Two-Electron Energy =                 605.6058300832814894
    DFT Exchange-Correlation Energy =       0.0000000000000000
    Empirical Dispersion Energy =           0.0000000000000000
    PCM Polarization Energy =               0.0000000000000000
    EFP Energy =                            0.0000000000000000
    Total Energy =                       -422.9707883823343764

  Mulliken Charges: (a.u.)
   Center  Symbol    Alpha    Beta     Spin     Total
       1     O     4.28614  4.28614  0.00000 -0.57228
       2     C     2.60308  2.60308  0.00000  0.79384
       3     C     3.21598  3.21598  0.00000 -0.43197
       4     O     4.30732  4.30732  0.00000 -0.61464
       5     C     3.15259  3.15259  0.00000 -0.30518
       6     H     0.39678  0.39678  0.00000  0.20644
       7     H     0.40114  0.40114  0.00000  0.19772
       8     C     3.15371  3.15371  0.00000 -0.30742
       9     H     0.41166  0.41166  0.00000  0.17668
      10     H     0.40958  0.40958  0.00000  0.18085
      11     C     3.16055  3.16055  0.00000 -0.32111
      12     H     0.42299  0.42299  0.00000  0.15402
      13     H     0.41803  0.41803  0.00000  0.16394
      14     C     3.23790  3.23790  0.00000 -0.47580
      15     H     0.42001  0.42001  0.00000  0.15998
      16     H     0.42195  0.42195  0.00000  0.15610
      17     H     0.42142  0.42142  0.00000  0.15716
      18     H     0.41899  0.41899  0.00000  0.16201
      19     H     0.42107  0.42107  0.00000  0.15787
      20     C     3.09239  3.09239  0.00000 -0.18477
      21     H     0.40909  0.40909  0.00000  0.18182
      22     H     0.40852  0.40852  0.00000  0.18295
      23     H     0.40912  0.40912  0.00000  0.18176

   Total alpha = 36.00000, Total beta = 36.00000, Total charge =  0.00000
