  ==> Input File <==

--------------------------------------------------------------------------
set {
	reference rhf
	basis 6-31G*
}

set_num_threads( 4 )
memory 2 gb

molecule MOL {
0 1

H	 1.254092	 0.118224	 0.966828
C	 0.850167	 0.441173	 0.000644
C	 -0.623425	 0.760064	 0.000248
O	 1.561503	 0.521588	 -0.947660
C	 -1.518387	 -0.473136	 -0.000101
H	 -0.818289	 1.390622	 -0.866171
H	 -0.818694	 1.390413	 0.866696
H	 -1.333417	 -1.085530	 -0.874338
H	 -2.563510	 -0.183466	 -0.000351
H	 -1.333864	 -1.085676	 0.874123

	symmetry c1
}
set optking {
	frozen_dihedral = ("
		4 2 3 6
	")
}

ee = optimize('scf')
oeprop('DIPOLE', 'QUADRUPOLE', 'MULLIKEN_CHARGES')
f=open( 'psi4out.xyz', 'w' )
f.write( "10  " )
f.write( str(ee) + "\n" )
f.write( MOL.save_string_xyz() )
f.close()
--------------------------------------------------------------------------

    Molecular point group: c1
  Charge       = 0
  Multiplicity = 1
  Basis Set: 6-31G*
  Basis Set:
  @DF-RHF Final Energy:  -191.94905860993964
    Total Energy =                       -191.9490586099395841
    Molecular point group: c1
  Basis Set: 6-31G*
  Basis Set:
  Basis Set: 6-31G*
  Basis Set:
  @DF-RHF Final Energy:  -191.94871883010148
    Total Energy =                       -191.9487188301014271
  Basis Set: 6-31G*
  Basis Set:
  Basis Set: 6-31G*
  Basis Set:
  @DF-RHF Final Energy:  -191.94928137795688
    Total Energy =                       -191.9492813779568792
  Basis Set: 6-31G*
  Basis Set:
  Basis Set: 6-31G*
  Basis Set:
  @DF-RHF Final Energy:  -191.94976974488469
    Total Energy =                       -191.9497697448847191
  Basis Set: 6-31G*
  Basis Set:
  Basis Set: 6-31G*
  Basis Set:
  @DF-RHF Final Energy:  -191.94977303914064
    Total Energy =                       -191.9497730391406094
  Basis Set: 6-31G*
  Basis Set:
  Charge       = 0
  Multiplicity = 1
  Basis Set: 6-31G*
  Basis Set:

    Orbital Energies (a.u.)
    -----------------------

    Doubly Occupied:

       1A    -20.563959     2A    -11.327790     3A    -11.238668
       4A    -11.234105     5A     -1.403834     6A     -1.065764
       7A     -0.904622     8A     -0.791327     9A     -0.678493
      10A     -0.640139    11A     -0.607564    12A     -0.573344
      13A     -0.542628    14A     -0.511182    15A     -0.496738
      16A     -0.412175

  @DF-RHF Final Energy:  -191.94977336342424

   => Energetics <=

    Nuclear Repulsion Energy =            117.7570219598199941
    One-Electron Energy =                -493.4289267604149813
    Two-Electron Energy =                 183.7221314371707308
    DFT Exchange-Correlation Energy =       0.0000000000000000
    Empirical Dispersion Energy =           0.0000000000000000
    PCM Polarization Energy =               0.0000000000000000
    EFP Energy =                            0.0000000000000000
    Total Energy =                       -191.9497733634242422
    Molecular point group: c1
  Basis Set: 6-31G*
  Basis Set:

  -Total Gradient:
     Atom            X                  Y                   Z
    ------   -----------------  -----------------  -----------------
       1        0.000003474438     0.000002035313    -0.000014930358
       2        0.000432443970     0.001800261672     0.000509794193
       3       -0.000401079257    -0.001625295670    -0.000816022617
       4       -0.000271326474    -0.001099668066    -0.000246209568
       5        0.000009950973    -0.000004421925     0.000011381626
       6        0.000226531058     0.000926698215     0.000578322599
       7        0.000001311229    -0.000009419420    -0.000019682483
       8       -0.000001362614     0.000003219468     0.000004350652
       9       -0.000001607151     0.000010754592    -0.000002120282
      10        0.000001663827    -0.000004164180    -0.000004883758

  **** Optimization is complete! (in 6 steps) ****
    Final optimized geometry and variables:
    Molecular point group: c1

    Geometry (in Angstrom), charge = 0, multiplicity = 1:

    H            1.167006480557    -0.202278972462     1.216540173458
    C            0.774718831998     0.140410603460     0.251800187657
    C           -0.689147502873     0.500773093533     0.238341952393
    O            1.480700163932     0.170744599081    -0.703614620095
    C           -1.558001565676    -0.764357042767     0.243581819080
    H           -0.885200673604     1.104354718756    -0.639496686875
    H           -0.911053973466     1.097751497903     1.119452410355
    H           -1.376239627375    -1.360033506838    -0.643975756481
    H           -2.609182568760    -0.500981096864     0.265098263857
    H           -1.353141181294    -1.382049407697     1.112930734655

  Mulliken Charges: (a.u.)
   Center  Symbol    Alpha    Beta     Spin     Total
       1     H     0.43113  0.43113  0.00000  0.13773
       2     C     2.83530  2.83530  0.00000  0.32940
       3     C     3.20286  3.20286  0.00000 -0.40573
       4     O     4.23523  4.23523  0.00000 -0.47045
       5     C     3.25063  3.25063  0.00000 -0.50126
       6     H     0.39900  0.39900  0.00000  0.20201
       7     H     0.41297  0.41297  0.00000  0.17405
       8     H     0.40730  0.40730  0.00000  0.18541
       9     H     0.40930  0.40930  0.00000  0.18140
      10     H     0.41628  0.41628  0.00000  0.16743

   Total alpha = 16.00000, Total beta = 16.00000, Total charge = -0.00000
