  ==> Input File <==

--------------------------------------------------------------------------
set {
	reference rhf
	basis 6-31G*
}

set_num_threads( 1 )
memory 2 gb

molecule MOL {
0 1

O	 0.675698	 0.320887	 -4.773302
C	 0.115212	 0.676541	 -3.781435
C	 0.181765	 -0.151586	 -2.510183
C	 -0.657373	 1.975652	 -3.728536
C	 1.517530	 0.068637	 -1.781915
H	 0.091138	 -1.194917	 -2.792232
H	 -0.645683	 0.093642	 -1.850472
C	 1.631333	 -0.777471	 -0.511575
H	 2.320988	 -0.166771	 -2.470699
H	 1.624169	 1.120755	 -1.522258
C	 2.915987	 -0.544314	 0.291766
H	 1.559036	 -1.830958	 -0.775516
H	 0.778288	 -0.564391	 0.129331
C	 3.373361	 0.914346	 0.347591
H	 3.708709	 -1.142521	 -0.150311
H	 2.780642	 -0.921148	 1.303579
H	 3.506512	 1.320010	 -0.651625
H	 4.322697	 0.999599	 0.867103
H	 2.660624	 1.545032	 0.868198
H	 -1.715045	 1.766317	 -3.591523
H	 -0.516825	 2.527702	 -4.647379
H	 -0.338332	 2.578530	 -2.883222

	symmetry c1
}
set optking {
	frozen_dihedral = ("
		6 3 2 1,
		6 3 5 8,
		3 5 8 12
	")
}

ee = energy('scf')
oeprop('DIPOLE', 'QUADRUPOLE', 'MULLIKEN_CHARGES')
f=open( 'psi4out.xyz', 'w' )
f.write( "22  " )
f.write( str(ee) + "\n" )
f.write( MOL.save_string_xyz() )
f.close()
--------------------------------------------------------------------------

    Molecular point group: c1

    Geometry (in Angstrom), charge = 0, multiplicity = 1:

       Center              X                  Y                   Z               Mass
    ------------   -----------------  -----------------  -----------------  -----------------
           O         -0.551563367587    -0.005595188805    -2.715983862945    15.994914619560
           C         -1.112049367587     0.350058811195    -1.724116862945    12.000000000000
           C         -1.045496367587    -0.478068188805    -0.452864862945    12.000000000000
           C         -1.884634367587     1.649169811195    -1.671217862945    12.000000000000
           C          0.290268632413    -0.257845188805     0.275403137055    12.000000000000
           H         -1.136123367587    -1.521399188805    -0.734913862945     1.007825032070
           H         -1.872944367587    -0.232840188805     0.206846137055     1.007825032070
           C          0.404071632413    -1.103953188805     1.545743137055    12.000000000000
           H          1.093726632413    -0.493253188805    -0.413380862945     1.007825032070
           H          0.396907632413     0.794272811195     0.535060137055     1.007825032070
           C          1.688725632413    -0.870796188805     2.349084137055    12.000000000000
           H          0.331774632413    -2.157440188805     1.281802137055     1.007825032070
           H         -0.448973367587    -0.890873188805     2.186649137055     1.007825032070
           C          2.146099632413     0.587863811195     2.404909137055    12.000000000000
           H          2.481447632413    -1.469003188805     1.907007137055     1.007825032070
           H          1.553380632413    -1.247630188805     3.360897137055     1.007825032070
           H          2.279250632413     0.993527811195     1.405693137055     1.007825032070
           H          3.095435632413     0.673116811195     2.924421137055     1.007825032070
           H          1.433362632413     1.218549811195     2.925516137055     1.007825032070
           H         -2.942306367587     1.439834811195    -1.534204862945     1.007825032070
           H         -1.744086367587     2.201219811195    -2.590060862945     1.007825032070
           H         -1.565593367587     2.252047811195    -0.825903862945     1.007825032070

  Charge       = 0
  Multiplicity = 1
  Basis Set: 6-31G*
  Basis Set:

    Orbital Energies (a.u.)
    -----------------------

    Doubly Occupied:

       1A    -20.547198     2A    -11.324326     3A    -11.229178
       4A    -11.228607     5A    -11.228159     6A    -11.222129
       7A    -11.220496     8A    -11.212678     9A     -1.392959
      10A     -1.096739    11A     -1.044123    12A     -0.998794
      13A     -0.937410    14A     -0.863828    15A     -0.780708
      16A     -0.733222    17A     -0.662517    18A     -0.646685
      19A     -0.629644    20A     -0.618108    21A     -0.597830
      22A     -0.585392    23A     -0.556408    24A     -0.548743
      25A     -0.527064    26A     -0.525399    27A     -0.501881
      28A     -0.484898    29A     -0.467092    30A     -0.464324
      31A     -0.460100    32A     -0.396155

  @DF-RHF Final Energy:  -348.09418177283436

   => Energetics <=

    Nuclear Repulsion Energy =            375.2141725156030247
    One-Electron Energy =               -1215.1509391460883762
    Two-Electron Energy =                 491.8425848576505359
    DFT Exchange-Correlation Energy =       0.0000000000000000
    Empirical Dispersion Energy =           0.0000000000000000
    PCM Polarization Energy =               0.0000000000000000
    EFP Energy =                            0.0000000000000000
    Total Energy =                       -348.0941817728348724

  Mulliken Charges: (a.u.)
   Center  Symbol    Alpha    Beta     Spin     Total
       1     O     4.26256  4.26256  0.00000 -0.52512
       2     C     2.73718  2.73718  0.00000  0.52563
       3     C     3.19881  3.19881  0.00000 -0.39762
       4     C     3.28963  3.28963  0.00000 -0.57925
       5     C     3.16740  3.16740  0.00000 -0.33480
       6     H     0.40155  0.40155  0.00000  0.19689
       7     H     0.41699  0.41699  0.00000  0.16602
       8     C     3.15249  3.15249  0.00000 -0.30498
       9     H     0.40594  0.40594  0.00000  0.18813
      10     H     0.41709  0.41709  0.00000  0.16582
      11     C     3.15250  3.15250  0.00000 -0.30500
      12     H     0.41788  0.41788  0.00000  0.16424
      13     H     0.42386  0.42386  0.00000  0.15227
      14     C     3.24602  3.24602  0.00000 -0.49204
      15     H     0.42044  0.42044  0.00000  0.15912
      16     H     0.41911  0.41911  0.00000  0.16177
      17     H     0.41746  0.41746  0.00000  0.16509
      18     H     0.41700  0.41700  0.00000  0.16599
      19     H     0.42235  0.42235  0.00000  0.15529
      20     H     0.40691  0.40691  0.00000  0.18618
      21     H     0.39711  0.39711  0.00000  0.20578
      22     H     0.40970  0.40970  0.00000  0.18060

   Total alpha = 32.00000, Total beta = 32.00000, Total charge =  0.00000
