                              Psi4 1.0.54 Driver

  ==> Input File <==

--------------------------------------------------------------------------
set {
	reference rhf
	basis cc-pvtz
}

set_num_threads( 4 )
memory 2 gb

molecule MOL {
0 1

O	 1.596958	 0.669129	 0.937755
C	 1.121787	 0.124983	 0.000110
C	 -0.170912	 -0.649867	 -0.000147
O	 1.680427	 0.128213	 -1.199177
C	 -1.413045	 0.229353	 0.001137
H	 -0.152877	 -1.303435	 -0.866175
H	 -0.152278	 -1.305116	 0.864586
C	 -2.702562	 -0.586401	 0.000228
H	 -1.390744	 0.882001	 -0.864365
H	 -1.390549	 0.879837	 0.868264
C	 -3.953810	 0.284959	 -0.000782
H	 -2.717793	 -1.238567	 -0.869075
H	 -2.719108	 -1.238472	 0.869576
H	 -3.983727	 0.924403	 -0.876454
H	 -4.852989	 -0.320147	 -0.001515
H	 -3.985140	 0.924399	 0.874841
C	 2.903525	 0.821424	 -1.343429
H	 2.779743	 1.867133	 -1.103849
H	 3.190054	 0.707697	 -2.376306
H	 3.659556	 0.399215	 -0.698154

	symmetry c1
}
set optking {
	frozen_dihedral = ("
		1 2 3 6
	")
}

ee,wfn = optimize('scf', return_wfn=True)
oeprop( wfn, 'DIPOLE', 'QUADRUPOLE', 'MULLIKEN_CHARGES')
f=open( 'psi4out.xyz', 'w' )
f.write( "20  " )
f.write( str(ee) + "\n" )
f.write( MOL.save_string_xyz() )
f.close()
--------------------------------------------------------------------------

    Molecular point group: c1
  Charge       = 0
  Multiplicity = 1
  Basis Set: CC-PVTZ
  Basis Set:
  @DF-RHF Final Energy:  -384.08114675678479
    Total Energy =                       -384.0811467567846194
    Molecular point group: c1
  Basis Set: CC-PVTZ
  Basis Set:
  Basis Set: CC-PVTZ
  Basis Set:
  @DF-RHF Final Energy:  -384.08177521726486
    Total Energy =                       -384.0817752172645214
  Basis Set: CC-PVTZ
  Basis Set:
  Basis Set: CC-PVTZ
  Basis Set:
  @DF-RHF Final Energy:  -384.08184789504492
    Total Energy =                       -384.0818478950451436
  Basis Set: CC-PVTZ
  Basis Set:
  Basis Set: CC-PVTZ
  Basis Set:
  @DF-RHF Final Energy:  -384.08195956549491
    Total Energy =                       -384.0819595654952536
  Basis Set: CC-PVTZ
  Basis Set:
  Basis Set: CC-PVTZ
  Basis Set:
  @DF-RHF Final Energy:  -384.08198410170337
    Total Energy =                       -384.0819841017035969
  Basis Set: CC-PVTZ
  Basis Set:
  Charge       = 0
  Multiplicity = 1
  Basis Set: CC-PVTZ
  Basis Set:

    Orbital Energies (a.u.)
    -----------------------

    Doubly Occupied:

       1A    -20.598152     2A    -20.531251     3A    -11.363456
       4A    -11.278408     5A    -11.231998     6A    -11.226926
       7A    -11.221771     8A    -11.211922     9A     -1.472108
      10A     -1.364253    11A     -1.093266    12A     -1.025809
      13A     -0.969480    14A     -0.889477    15A     -0.806925
      16A     -0.775239    17A     -0.696905    18A     -0.683228
      19A     -0.676286    20A     -0.648695    21A     -0.599829
      22A     -0.593286    23A     -0.575032    24A     -0.554726
      25A     -0.535458    26A     -0.522847    27A     -0.509318
      28A     -0.482808    29A     -0.479320    30A     -0.476041
      31A     -0.457366    32A     -0.433920

  @DF-RHF Final Energy:  -384.08198497955965

   => Energetics <=

    Nuclear Repulsion Energy =            383.2885139775093535
    One-Electron Energy =               -1282.7699807767496623
    Two-Electron Energy =                 515.3994818196800907
    DFT Exchange-Correlation Energy =       0.0000000000000000
    Empirical Dispersion Energy =           0.0000000000000000
    PCM Polarization Energy =               0.0000000000000000
    EFP Energy =                            0.0000000000000000
    Total Energy =                       -384.0819849795601613
    Molecular point group: c1
  Basis Set: CC-PVTZ
  Basis Set:

  -Total Gradient:
     Atom            X                  Y                   Z
    ------   -----------------  -----------------  -----------------
       1       -0.000113610931     0.000306422122    -0.000219984028
       2        0.000194861429    -0.000390287802     0.000141256343
       3        0.000017436726    -0.000130600067     0.000111818919
       4        0.000065815874    -0.000010428080     0.000096626351
       5        0.000012058620    -0.000027048535     0.000056097991
       6       -0.000157063902     0.000221115332    -0.000183533686
       7        0.000004305041     0.000027355226    -0.000015198306
       8       -0.000003978448    -0.000013110228    -0.000011711635
       9        0.000017175450    -0.000033879533     0.000015983936
      10       -0.000015185042    -0.000003971844     0.000005355438
      11        0.000002290368     0.000009871074     0.000005791651
      12        0.000015210759    -0.000003675923     0.000003974097
      13        0.000005629884     0.000019431505    -0.000011161439
      14       -0.000000605865    -0.000005464722     0.000006326677
      15        0.000003461535     0.000004588075    -0.000001311923
      16       -0.000005083735    -0.000000750656    -0.000006142386
      17       -0.000042961486     0.000037227402    -0.000004020493
      18        0.000019801333     0.000002093001    -0.000005106872
      19        0.000012621072     0.000004721230     0.000017504864
      20       -0.000032178676    -0.000013607578    -0.000002565498

  **** Optimization is complete! (in 6 steps) ****
    Final optimized geometry and variables:
    Molecular point group: c1

    Geometry (in Angstrom), charge = 0, multiplicity = 1:

    O            1.658214970282     0.409295712822     1.182475111798
    C            1.203351220809    -0.091420302736     0.210036502970
    C           -0.086485458438    -0.869420160628     0.180901834459
    O            1.764953167708     0.003668293111    -0.982942224097
    C           -1.293934234743     0.074438341071     0.184086504681
    H           -0.108449121541    -1.502748778438    -0.695211760565
    H           -0.106518814084    -1.493003866620     1.065086876792
    C           -2.621241570116    -0.677416999191     0.186533466921
    H           -1.246333564368     0.720072802496    -0.688186496081
    H           -1.235271537516     0.717787085095     1.055039016372
    C           -3.828702022790     0.253733285455     0.189339901489
    H           -2.668494668813    -1.327766163991    -0.682390173981
    H           -2.663107691159    -1.325820445087     1.057055710547
    H           -3.832323513313     0.892518398504    -0.687433234500
    H           -4.755401299418    -0.308042125891     0.192925761125
    H           -3.826235640235     0.894450015038     1.064504522053
    C            2.959964040334     0.752966661010    -1.077390464926
    H            2.792911155409     1.776280596486    -0.775651001384
    H            3.255290624020     0.713112189254    -2.113265282699
    H            3.728684197113     0.322644411768    -0.453084059934

  Mulliken Charges: (a.u.)
   Center  Symbol    Alpha    Beta     Spin     Total
       1     O     4.20546  4.20546  0.00000 -0.41093
       2     C     2.80789  2.80789  0.00000  0.38422
       3     C     3.07750  3.07750  0.00000 -0.15499
       4     O     4.14807  4.14807  0.00000 -0.29615
       5     C     3.09620  3.09620  0.00000 -0.19241
       6     H     0.44263  0.44263  0.00000  0.11475
       7     H     0.44130  0.44130  0.00000  0.11739
       8     C     3.08875  3.08875  0.00000 -0.17750
       9     H     0.45003  0.45003  0.00000  0.09994
      10     H     0.44183  0.44183  0.00000  0.11633
      11     C     3.14935  3.14935  0.00000 -0.29870
      12     H     0.45368  0.45368  0.00000  0.09263
      13     H     0.45257  0.45257  0.00000  0.09487
      14     H     0.45454  0.45454  0.00000  0.09091
      15     H     0.44754  0.44754  0.00000  0.10493
      16     H     0.45321  0.45321  0.00000  0.09358
      17     C     3.03621  3.03621  0.00000 -0.07243
      18     H     0.45431  0.45431  0.00000  0.09137
      19     H     0.44544  0.44544  0.00000  0.10911
      20     H     0.45348  0.45348  0.00000  0.09305

   Total alpha = 32.00000, Total beta = 32.00000, Total charge = -0.00000

*** Psi4 exiting successfully. Buy a developer a beer!
