  ==> Input File <==

--------------------------------------------------------------------------
set {
	reference rhf
	basis 6-31G*
}

set_num_threads( 1 )
memory 2 gb

molecule MOL {
0 1

H	 -3.135461	 -1.215070	 0.001379
O	 -2.310168	 -0.871793	 -0.309793
C	 -2.026376	 0.340750	 0.341611
C	 -0.673256	 0.843270	 -0.132153
H	 -2.792215	 1.080697	 0.115987
H	 -2.013526	 0.200402	 1.421792
C	 0.486613	 -0.083066	 0.235839
H	 -0.715586	 0.970948	 -1.210718
H	 -0.508072	 1.829858	 0.297090
C	 0.136429	 -1.058404	 1.360962
H	 1.342591	 0.517143	 0.526640
H	 0.788708	 -0.646824	 -0.646066
C	 1.293627	 -1.988054	 1.724715
H	 -0.164702	 -0.496630	 2.242692
H	 -0.726530	 -1.654235	 1.069879
H	 2.160888	 -1.422621	 2.053402
H	 1.017465	 -2.666470	 2.526232
H	 1.596366	 -2.589485	 0.871989

	symmetry c1
}
set optking {
	frozen_dihedral = ("
		14 10 7 11,
		2 3 4 8,
		1 2 3 4
	")
}

ee = energy('scf')
oeprop('DIPOLE', 'QUADRUPOLE', 'MULLIKEN_CHARGES')
f=open( 'psi4out.xyz', 'w' )
f.write( "18  " )
f.write( str(ee) + "\n" )
f.write( MOL.save_string_xyz() )
f.close()
--------------------------------------------------------------------------

    Molecular point group: c1

    Geometry (in Angstrom), charge = 0, multiplicity = 1:

       Center              X                  Y                   Z               Mass
    ------------   -----------------  -----------------  -----------------  -----------------
           H         -2.573287251330    -0.722041890360    -0.529442237544     1.007825032070
           O         -1.747994251330    -0.378764890360    -0.840614237544    15.994914619560
           C         -1.464202251330     0.833778109640    -0.189210237544    12.000000000000
           C         -0.111082251330     1.336298109640    -0.662974237544    12.000000000000
           H         -2.230041251330     1.573725109640    -0.414834237544     1.007825032070
           H         -1.451352251330     0.693430109640     0.890970762456     1.007825032070
           C          1.048786748670     0.409962109640    -0.294982237544    12.000000000000
           H         -0.153412251330     1.463976109640    -1.741539237544     1.007825032070
           H          0.054101748670     2.322886109640    -0.233731237544     1.007825032070
           C          0.698602748670    -0.565375890360     0.830140762456    12.000000000000
           H          1.904764748670     1.010171109640    -0.004181237544     1.007825032070
           H          1.350881748670    -0.153795890360    -1.176887237544     1.007825032070
           C          1.855800748670    -1.495025890360     1.193893762456    12.000000000000
           H          0.397471748670    -0.003601890360     1.711870762456     1.007825032070
           H         -0.164356251330    -1.161206890360     0.539057762456     1.007825032070
           H          2.723061748670    -0.929592890360     1.522580762456     1.007825032070
           H          1.579638748670    -2.173441890360     1.995410762456     1.007825032070
           H          2.158539748670    -2.096456890360     0.341167762456     1.007825032070

  Charge       = 0
  Multiplicity = 1
  Basis Set: 6-31G*
  Basis Set:

    Orbital Energies (a.u.)
    -----------------------

    Doubly Occupied:

       1A    -20.555342     2A    -11.267255     3A    -11.211327
       4A    -11.206263     5A    -11.202647     6A    -11.200733
       7A     -1.363030     8A     -1.075430     9A     -1.002971
      10A     -0.911453    11A     -0.835518    12A     -0.762418
      13A     -0.708090    14A     -0.646742    15A     -0.625066
      16A     -0.582863    17A     -0.561024    18A     -0.553977
      19A     -0.535826    20A     -0.494947    21A     -0.489808
      22A     -0.466357    23A     -0.452289    24A     -0.442361
      25A     -0.425007

  @DF-RHF Final Energy:  -271.16862825899034

   => Energetics <=

    Nuclear Repulsion Energy =            259.0721488128035617
    One-Electron Energy =                -881.3240184613371184
    Two-Electron Energy =                 351.0832413895436730
    DFT Exchange-Correlation Energy =       0.0000000000000000
    Empirical Dispersion Energy =           0.0000000000000000
    PCM Polarization Energy =               0.0000000000000000
    EFP Energy =                            0.0000000000000000
    Total Energy =                       -271.1686282589898838

  Mulliken Charges: (a.u.)
   Center  Symbol    Alpha    Beta     Spin     Total
       1     H     0.28062  0.28062  0.00000  0.43875
       2     O     4.36830  4.36830  0.00000 -0.73661
       3     C     3.00840  3.00840  0.00000 -0.01681
       4     C     3.16118  3.16118  0.00000 -0.32235
       5     H     0.42564  0.42564  0.00000  0.14872
       6     H     0.42781  0.42781  0.00000  0.14438
       7     C     3.14940  3.14940  0.00000 -0.29881
       8     H     0.41252  0.41252  0.00000  0.17497
       9     H     0.42225  0.42225  0.00000  0.15549
      10     C     3.16747  3.16747  0.00000 -0.33495
      11     H     0.42300  0.42300  0.00000  0.15401
      12     H     0.41748  0.41748  0.00000  0.16504
      13     C     3.23676  3.23676  0.00000 -0.47352
      14     H     0.42845  0.42845  0.00000  0.14310
      15     H     0.40197  0.40197  0.00000  0.19606
      16     H     0.42484  0.42484  0.00000  0.15032
      17     H     0.42219  0.42219  0.00000  0.15562
      18     H     0.42171  0.42171  0.00000  0.15658

   Total alpha = 25.00000, Total beta = 25.00000, Total charge =  0.00000
