  ==> Input File <==

--------------------------------------------------------------------------
set {
	reference rhf
	basis 6-31G*
}

set_num_threads( 4 )
memory 2 gb

molecule MOL {
0 1

O	 -2.042549	 -1.228399	 -0.269030
C	 -1.653912	 -0.146171	 0.050137
C	 -0.332303	 0.024011	 0.778412
C	 -2.438579	 1.106236	 -0.272369
C	 0.845713	 -0.001731	 -0.208243
H	 -0.323783	 0.953829	 1.340327
H	 -0.235459	 -0.796807	 1.480410
C	 2.200309	 0.136118	 0.488247
H	 0.733710	 0.800019	 -0.936072
H	 0.811185	 -0.933796	 -0.764304
C	 3.103773	 1.174100	 -0.176248
H	 2.045166	 0.405528	 1.530732
H	 2.700396	 -0.829524	 0.492193
H	 2.644982	 2.158704	 -0.165316
H	 3.303379	 0.913995	 -1.211595
H	 4.057573	 1.248190	 0.336395
H	 -3.277823	 0.863061	 -0.908988
H	 -1.806773	 1.843019	 -0.759671
H	 -2.802853	 1.554979	 0.648059

	symmetry c1
}
set optking {
	frozen_dihedral = ("
		11 8 5 9
	")
}

ee = optimize('scf')
oeprop('DIPOLE', 'QUADRUPOLE', 'MULLIKEN_CHARGES')
f=open( 'psi4out.xyz', 'w' )
f.write( "19  " )
f.write( str(ee) + "\n" )
f.write( MOL.save_string_xyz() )
f.close()
--------------------------------------------------------------------------

    Molecular point group: c1
  Charge       = 0
  Multiplicity = 1
  Basis Set: 6-31G*
  Basis Set:
  @DF-RHF Final Energy:  -309.05970955441808
    Total Energy =                       -309.0597095544183048
    Molecular point group: c1
  Basis Set: 6-31G*
  Basis Set:
  Basis Set: 6-31G*
  Basis Set:
  @DF-RHF Final Energy:  -309.05991146188558
    Total Energy =                       -309.0599114618855765
  Basis Set: 6-31G*
  Basis Set:
  Basis Set: 6-31G*
  Basis Set:
  @DF-RHF Final Energy:  -309.05966953976980
    Total Energy =                       -309.0596695397700842
  Basis Set: 6-31G*
  Basis Set:
  Basis Set: 6-31G*
  Basis Set:
  @DF-RHF Final Energy:  -309.05896778245915
    Total Energy =                       -309.0589677824591490
  Basis Set: 6-31G*
  Basis Set:
  @DF-RHF Final Energy:  -309.05979644026434
    Total Energy =                       -309.0597964402641082
  Basis Set: 6-31G*
  Basis Set:
  @DF-RHF Final Energy:  -309.05980034795988
    Total Energy =                       -309.0598003479601061
  Basis Set: 6-31G*
  Basis Set:
  Basis Set: 6-31G*
  Basis Set:
  @DF-RHF Final Energy:  -309.06003073555343
    Total Energy =                       -309.0600307355535392
  Basis Set: 6-31G*
  Basis Set:
  Basis Set: 6-31G*
  Basis Set:
  @DF-RHF Final Energy:  -309.06003540387150
    Total Energy =                       -309.0600354038713817
  Basis Set: 6-31G*
  Basis Set:
  Charge       = 0
  Multiplicity = 1
  Basis Set: 6-31G*
  Basis Set:

    Orbital Energies (a.u.)
    -----------------------

    Doubly Occupied:

       1A    -20.547694     2A    -11.324541     3A    -11.230299
       4A    -11.229726     5A    -11.228323     6A    -11.224549
       7A    -11.216126     8A     -1.393346     9A     -1.089196
      10A     -1.028838    11A     -0.984099    12A     -0.890204
      13A     -0.807302    14A     -0.734534    15A     -0.661341
      16A     -0.643036    17A     -0.620856    18A     -0.612544
      19A     -0.588646    20A     -0.570507    21A     -0.556261
      22A     -0.533886    23A     -0.513770    24A     -0.502778
      25A     -0.482406    26A     -0.469654    27A     -0.466351
      28A     -0.396689

  @DF-RHF Final Energy:  -309.06003558041368

   => Energetics <=

    Nuclear Repulsion Energy =            301.4631395507193474
    One-Electron Energy =               -1015.9513492533617409
    Two-Electron Energy =                 405.4281741222284268
    DFT Exchange-Correlation Energy =       0.0000000000000000
    Empirical Dispersion Energy =           0.0000000000000000
    PCM Polarization Energy =               0.0000000000000000
    EFP Energy =                            0.0000000000000000
    Total Energy =                       -309.0600355804139667
    Molecular point group: c1
  Basis Set: 6-31G*
  Basis Set:

  -Total Gradient:
     Atom            X                  Y                   Z
    ------   -----------------  -----------------  -----------------
       1       -0.000030117676    -0.000018331963    -0.000006126593
       2        0.000032819951    -0.000004460714    -0.000021862311
       3        0.000035130682     0.000000757474    -0.000028890308
       4        0.000004219257     0.000000332830     0.000014128077
       5       -0.001727111191     0.002738492427     0.003019716786
       6        0.000039167869     0.000000531633    -0.000008643363
       7       -0.000007737362    -0.000010881650    -0.000015796692
       8        0.001289097638    -0.002478142065    -0.002224913284
       9        0.001128228744    -0.001639195827    -0.002010902586
      10       -0.000005410324    -0.000014957022     0.000042371484
      11       -0.000786992828     0.001462800127     0.001243600163
      12        0.000012714962     0.000002021701     0.000004732290
      13        0.000020520137    -0.000017263607    -0.000024741470
      14       -0.000021283403    -0.000018670524    -0.000023618767
      15        0.000010832082    -0.000026310682     0.000027236580
      16        0.000001037201     0.000027549451     0.000016922741
      17        0.000004792635    -0.000005741888     0.000001741186
      18       -0.000001504341     0.000002131509    -0.000001710191
      19        0.000001595977    -0.000000661206    -0.000003243743

  **** Optimization is complete! (in 9 steps) ****
    Final optimized geometry and variables:
    Molecular point group: c1

    Geometry (in Angstrom), charge = 0, multiplicity = 1:

    O           -1.999676898281    -1.396052902523    -0.319847373463
    C           -1.621001168939    -0.311072175244     0.002092123566
    C           -0.301152609897    -0.130229236569     0.730909209842
    C           -2.417143284771     0.934912497561    -0.317166833658
    C            0.877825770234    -0.141707386161    -0.253856152209
    H           -0.300187173073     0.798255495972     1.295191545260
    H           -0.195153543452    -0.951900812355     1.430776585294
    C            2.251093779921    -0.019429027054     0.440704454524
    H            0.763017553894     0.656161555631    -0.984294588476
    H            0.832567856046    -1.064369797683    -0.823057363038
    C            3.174868529038     1.002842425778    -0.221439898556
    H            2.109597775453     0.269179207230     1.479327165545
    H            2.736466469159    -0.990228400925     0.464948158055
    H            2.732372999974     1.994757502433    -0.202169776644
    H            3.366926081945     0.747256557902    -1.259734078885
    H            4.131682072796     1.055620588628     0.288493759126
    H           -3.253986593498     0.685624357208    -0.954583208658
    H           -1.792073500274     1.678770165562    -0.802425866225
    H           -2.785764466718     1.377854306073     0.604343654070

  Mulliken Charges: (a.u.)
   Center  Symbol    Alpha    Beta     Spin     Total
       1     O     4.26195  4.26195  0.00000 -0.52390
       2     C     2.73790  2.73790  0.00000  0.52420
       3     C     3.20151  3.20151  0.00000 -0.40301
       4     C     3.28955  3.28955  0.00000 -0.57909
       5     C     3.16574  3.16574  0.00000 -0.33147
       6     H     0.41669  0.41669  0.00000  0.16663
       7     H     0.40042  0.40042  0.00000  0.19915
       8     C     3.15414  3.15414  0.00000 -0.30828
       9     H     0.41850  0.41850  0.00000  0.16300
      10     H     0.40413  0.40413  0.00000  0.19175
      11     C     3.24098  3.24098  0.00000 -0.48197
      12     H     0.41977  0.41977  0.00000  0.16045
      13     H     0.41535  0.41535  0.00000  0.16929
      14     H     0.42208  0.42208  0.00000  0.15585
      15     H     0.41959  0.41959  0.00000  0.16082
      16     H     0.41820  0.41820  0.00000  0.16360
      17     H     0.39699  0.39699  0.00000  0.20603
      18     H     0.40976  0.40976  0.00000  0.18049
      19     H     0.40676  0.40676  0.00000  0.18647

   Total alpha = 28.00000, Total beta = 28.00000, Total charge = -0.00000
