  ==> Input File <==

--------------------------------------------------------------------------
set {
	reference rhf
	basis 6-31G*
}

set_num_threads( 4 )
memory 2 gb

molecule MOL {
0 1

H	 -3.271026	 1.560337	 0.562941
C	 -3.286853	 0.805362	 -0.232914
C	 -2.318538	 1.049487	 -1.362241
O	 -4.030956	 -0.118462	 -0.165021
C	 -0.883717	 1.280005	 -0.867865
H	 -2.374187	 0.211777	 -2.047699
H	 -2.661894	 1.937465	 -1.891634
C	 -0.252658	 0.041456	 -0.226725
H	 -0.276906	 1.599088	 -1.710036
H	 -0.874436	 2.105859	 -0.158192
C	 1.180775	 0.282413	 0.250794
H	 -0.263709	 -0.775809	 -0.944920
H	 -0.859805	 -0.288840	 0.613998
C	 2.148627	 -0.814315	 -0.201312
H	 1.516199	 1.249228	 -0.115937
H	 1.192670	 0.346017	 1.338083
C	 3.580890	 -0.659131	 0.322722
H	 2.166869	 -0.852443	 -1.289387
H	 1.762857	 -1.776509	 0.128956
C	 4.324889	 0.564933	 -0.213704
H	 4.142010	 -1.551473	 0.056605
H	 3.564836	 -0.624694	 1.410140
H	 4.342616	 0.565491	 -1.300421
H	 3.866655	 1.493402	 0.110242
H	 5.353900	 0.572371	 0.132816

	symmetry c1
}
set optking {
	frozen_dihedral = ("
		12 8 11 14
	")
}

ee = optimize('scf')
oeprop('DIPOLE', 'QUADRUPOLE', 'MULLIKEN_CHARGES')
f=open( 'psi4out.xyz', 'w' )
f.write( "25  " )
f.write( str(ee) + "\n" )
f.write( MOL.save_string_xyz() )
f.close()
--------------------------------------------------------------------------

    Molecular point group: c1
  Charge       = 0
  Multiplicity = 1
  Basis Set: 6-31G*
  Basis Set:
  @DF-RHF Final Energy:  -387.11698330279506
    Total Energy =                       -387.1169833027944378
    Molecular point group: c1
  Basis Set: 6-31G*
  Basis Set:
  Basis Set: 6-31G*
  Basis Set:
  @DF-RHF Final Energy:  -387.11698548579460
    Total Energy =                       -387.1169854857940891
  Basis Set: 6-31G*
  Basis Set:
  Basis Set: 6-31G*
  Basis Set:
  @DF-RHF Final Energy:  -387.11714668552816
    Total Energy =                       -387.1171466855279277
  Basis Set: 6-31G*
  Basis Set:
  Basis Set: 6-31G*
  Basis Set:
  @DF-RHF Final Energy:  -387.11726179086105
    Total Energy =                       -387.1172617908609936
  Basis Set: 6-31G*
  Basis Set:
  Basis Set: 6-31G*
  Basis Set:
  @DF-RHF Final Energy:  -387.11727566338601
    Total Energy =                       -387.1172756633857261
  Basis Set: 6-31G*
  Basis Set:
  Charge       = 0
  Multiplicity = 1
  Basis Set: 6-31G*
  Basis Set:

    Orbital Energies (a.u.)
    -----------------------

    Doubly Occupied:

       1A    -20.562037     2A    -11.326237     3A    -11.235721
       4A    -11.234604     5A    -11.223614     6A    -11.219586
       7A    -11.218225     8A    -11.217614     9A    -11.211182
      10A     -1.401991    11A     -1.102696    12A     -1.069809
      13A     -1.011891    14A     -0.942578    15A     -0.875948
      16A     -0.822142    17A     -0.788282    18A     -0.781872
      19A     -0.665503    20A     -0.653258    21A     -0.634927
      22A     -0.623939    23A     -0.606792    24A     -0.596335
      25A     -0.565431    26A     -0.561862    27A     -0.526641
      28A     -0.524243    29A     -0.517133    30A     -0.498507
      31A     -0.488258    32A     -0.477810    33A     -0.460935
      34A     -0.457817    35A     -0.441354    36A     -0.409608

  @DF-RHF Final Energy:  -387.11727614672623

   => Energetics <=

    Nuclear Repulsion Energy =            439.2067342732761972
    One-Electron Energy =               -1394.7352562463920549
    Two-Electron Energy =                 568.4112458263895178
    DFT Exchange-Correlation Energy =       0.0000000000000000
    Empirical Dispersion Energy =           0.0000000000000000
    PCM Polarization Energy =               0.0000000000000000
    EFP Energy =                            0.0000000000000000
    Total Energy =                       -387.1172761467263399
    Molecular point group: c1
  Basis Set: 6-31G*
  Basis Set:

  -Total Gradient:
     Atom            X                  Y                   Z
    ------   -----------------  -----------------  -----------------
       1        0.000004021826    -0.000000753838     0.000000745631
       2       -0.000000000376     0.000016412306     0.000008392339
       3        0.000018130250    -0.000004786114     0.000003081251
       4        0.000008041665    -0.000001384433    -0.000006240800
       5       -0.000024822294    -0.000001859061     0.000017335406
       6       -0.000001080425    -0.000004747903     0.000002463303
       7        0.000001113751    -0.000002273944    -0.000006274099
       8        0.000685018403     0.002627377802    -0.003223353622
       9       -0.000013665768    -0.000007307214    -0.000000104640
      10        0.000006725778     0.000008913119     0.000002728315
      11       -0.000686337425    -0.001865584628     0.002842065571
      12       -0.000401094231    -0.001799870281     0.002054535900
      13       -0.000012103773    -0.000013885835    -0.000013168388
      14        0.000396006089     0.001024497823    -0.001671154135
      15        0.000012965296    -0.000004473497    -0.000010974284
      16        0.000016549446     0.000017608971     0.000005535711
      17       -0.000003658565     0.000004598483     0.000003081685
      18       -0.000000176565     0.000005939344    -0.000001533315
      19       -0.000008067241     0.000004682906    -0.000004284670
      20        0.000000789776     0.000001745646     0.000005536996
      21       -0.000002832907    -0.000002743756    -0.000006176612
      22        0.000004062674    -0.000001572311    -0.000003671499
      23        0.000002534380    -0.000005312415     0.000001772162
      24       -0.000002645582     0.000001411788    -0.000004577518
      25        0.000000525827     0.000003367042     0.000004239311

  **** Optimization is complete! (in 6 steps) ****
    Final optimized geometry and variables:
    Molecular point group: c1

    Geometry (in Angstrom), charge = 0, multiplicity = 1:

    H           -3.318845483065     1.306215610086     0.873415964862
    C           -3.345692169642     0.541613570387     0.086995515324
    C           -2.397020133613     0.775041792184    -1.061250283529
    O           -4.090206142275    -0.380156223953     0.175800464658
    C           -0.954100025726     1.009556934220    -0.594294887379
    H           -2.464505353232    -0.069314450265    -1.737621328746
    H           -2.749505215376     1.657909701867    -1.593065277836
    C           -0.307139651168    -0.225979490463     0.035629203773
    H           -0.361938559905     1.329488466334    -1.446857844826
    H           -0.932670178458     1.835298630390     0.115208133655
    C            1.138368907207     0.015334682357     0.520522999339
    H           -0.327208975854    -1.046917943099    -0.677102232491
    H           -0.915051854190    -0.567105488650     0.870587007270
    C            2.109661638368    -1.085266804737     0.082677402910
    H            1.488571211820     0.969968630186     0.137108256235
    H            1.155911362025     0.104499934385     1.603794614282
    C            3.535212337707    -0.936040037811     0.624893382153
    H            2.139369436445    -1.119318100542    -1.005351439511
    H            1.716273923099    -2.047344814607     0.404914848231
    C            4.287476278749     0.292200872316     0.108944434186
    H            4.098629647588    -1.826860893900     0.358537434823
    H            3.505074820390    -0.910952406844     1.712313429597
    H            4.321019290912     0.301483112634    -0.977310420273
    H            3.825773938878     1.218727500549     0.433876018805
    H            5.311341525140     0.296046565134     0.469808079728

  Mulliken Charges: (a.u.)
   Center  Symbol    Alpha    Beta     Spin     Total
       1     H     0.43255  0.43255  0.00000  0.13489
       2     C     2.83085  2.83085  0.00000  0.33829
       3     C     3.20885  3.20885  0.00000 -0.41771
       4     O     4.23778  4.23778  0.00000 -0.47557
       5     C     3.16852  3.16852  0.00000 -0.33704
       6     H     0.39959  0.39959  0.00000  0.20082
       7     H     0.40656  0.40656  0.00000  0.18687
       8     C     3.15772  3.15772  0.00000 -0.31544
       9     H     0.41265  0.41265  0.00000  0.17470
      10     H     0.41902  0.41902  0.00000  0.16196
      11     C     3.15741  3.15741  0.00000 -0.31483
      12     H     0.41550  0.41550  0.00000  0.16900
      13     H     0.41620  0.41620  0.00000  0.16759
      14     C     3.15480  3.15480  0.00000 -0.30959
      15     H     0.41953  0.41953  0.00000  0.16094
      16     H     0.41953  0.41953  0.00000  0.16095
      17     C     3.15338  3.15338  0.00000 -0.30677
      18     H     0.42390  0.42390  0.00000  0.15220
      19     H     0.42006  0.42006  0.00000  0.15987
      20     C     3.24151  3.24151  0.00000 -0.48303
      21     H     0.42005  0.42005  0.00000  0.15990
      22     H     0.42273  0.42273  0.00000  0.15454
      23     H     0.42231  0.42231  0.00000  0.15537
      24     H     0.42051  0.42051  0.00000  0.15898
      25     H     0.41845  0.41845  0.00000  0.16309

   Total alpha = 36.00000, Total beta = 36.00000, Total charge =  0.00000
