  ==> Input File <==

--------------------------------------------------------------------------
set {
	reference rhf
	basis 6-31G*
}

set_num_threads( 4 )
memory 2 gb

molecule MOL {
0 1

H	 -3.420663	 1.227371	 -1.044276
O	 -3.452007	 0.283848	 -0.965577
C	 -3.181085	 -0.079926	 0.364119
C	 -1.765924	 0.277073	 0.805136
H	 -3.327791	 -1.152017	 0.410903
H	 -3.905698	 0.375695	 1.036898
C	 -0.677594	 -0.417312	 -0.014550
H	 -1.637766	 1.358238	 0.744969
H	 -1.659588	 0.017670	 1.857098
C	 0.738335	 -0.034840	 0.421385
H	 -0.814977	 -0.178223	 -1.064632
H	 -0.802730	 -1.495410	 0.071702
C	 1.822265	 -0.738362	 -0.399735
H	 0.853533	 1.043532	 0.342250
H	 0.871597	 -0.279636	 1.474438
C	 2.998490	 -1.280041	 0.420773
H	 2.199435	 -0.054336	 -1.158383
H	 1.367443	 -1.566806	 -0.938840
C	 3.853180	 -0.204406	 1.093766
H	 3.634053	 -1.869007	 -0.236090
H	 2.623556	 -1.968139	 1.175855
H	 4.231893	 0.506070	 0.363739
H	 4.707712	 -0.648726	 1.594958
H	 3.293808	 0.352523	 1.838143

	symmetry c1
}
set optking {
	frozen_dihedral = ("
		17 13 10 7
	")
}

ee = optimize('scf')
oeprop('DIPOLE', 'QUADRUPOLE', 'MULLIKEN_CHARGES')
f=open( 'psi4out.xyz', 'w' )
f.write( "24  " )
f.write( str(ee) + "\n" )
f.write( MOL.save_string_xyz() )
f.close()
--------------------------------------------------------------------------

    Molecular point group: c1
  Charge       = 0
  Multiplicity = 1
  Basis Set: 6-31G*
  Basis Set:
  @DF-RHF Final Energy:  -349.24363667607446
    Total Energy =                       -349.2436366760745159
    Molecular point group: c1
  Basis Set: 6-31G*
  Basis Set:
  Basis Set: 6-31G*
  Basis Set:
  @DF-RHF Final Energy:  -349.24393640115369
    Total Energy =                       -349.2439364011538601
  Basis Set: 6-31G*
  Basis Set:
  Basis Set: 6-31G*
  Basis Set:
  @DF-RHF Final Energy:  -349.24402921111522
    Total Energy =                       -349.2440292111149915
  Basis Set: 6-31G*
  Basis Set:
  Basis Set: 6-31G*
  Basis Set:
  @DF-RHF Final Energy:  -349.24401990467129
    Total Energy =                       -349.2440199046712337
  Basis Set: 6-31G*
  Basis Set:
  Basis Set: 6-31G*
  Basis Set:
  @DF-RHF Final Energy:  -349.24403279103376
    Total Energy =                       -349.2440327910338169
  Basis Set: 6-31G*
  Basis Set:
  Basis Set: 6-31G*
  Basis Set:
  @DF-RHF Final Energy:  -349.24403708097429
    Total Energy =                       -349.2440370809737828
  Basis Set: 6-31G*
  Basis Set:
  Charge       = 0
  Multiplicity = 1
  Basis Set: 6-31G*
  Basis Set:

    Orbital Energies (a.u.)
    -----------------------

    Doubly Occupied:

       1A    -20.553548     2A    -11.267772     3A    -11.217376
       4A    -11.213799     5A    -11.212639     6A    -11.211548
       7A    -11.211304     8A    -11.207208     9A     -1.360172
      10A     -1.087644    11A     -1.048419    12A     -0.984246
      13A     -0.914396    14A     -0.850702    15A     -0.802296
      16A     -0.775332    17A     -0.679699    18A     -0.650975
      19A     -0.626920    20A     -0.618373    21A     -0.594474
      22A     -0.589230    23A     -0.551567    24A     -0.545387
      25A     -0.516290    26A     -0.503461    27A     -0.501775
      28A     -0.474785    29A     -0.467736    30A     -0.459739
      31A     -0.452191    32A     -0.449450    33A     -0.419034

  @DF-RHF Final Energy:  -349.24403732543965

   => Energetics <=

    Nuclear Repulsion Energy =            384.4703164882768078
    One-Electron Energy =               -1235.3897319070401863
    Two-Electron Energy =                 501.6753780933238431
    DFT Exchange-Correlation Energy =       0.0000000000000000
    Empirical Dispersion Energy =           0.0000000000000000
    PCM Polarization Energy =               0.0000000000000000
    EFP Energy =                            0.0000000000000000
    Total Energy =                       -349.2440373254395354
    Molecular point group: c1
  Basis Set: 6-31G*
  Basis Set:

  -Total Gradient:
     Atom            X                  Y                   Z
    ------   -----------------  -----------------  -----------------
       1        0.000000082748    -0.000001561398     0.000005156188
       2       -0.000000100707    -0.000009109969    -0.000002833281
       3       -0.000006084418     0.000010624053     0.000011236878
       4       -0.000005324737    -0.000021580990     0.000015637316
       5       -0.000000880440     0.000002088033    -0.000008213474
       6       -0.000002957133    -0.000004169665     0.000002808701
       7        0.000000949025    -0.002025785802     0.001664383859
       8       -0.000001508785    -0.000007377236    -0.000008516057
       9       -0.000001580531     0.000007760927     0.000005159651
      10        0.000621408636     0.003096815756    -0.001782810996
      11        0.000006229690     0.000018898505     0.000004476363
      12        0.000001155807    -0.000000878461    -0.000012964142
      13       -0.003138915837    -0.002196267247    -0.002195891838
      14       -0.000008411281     0.000005088459    -0.000006473807
      15       -0.000006776537     0.000017669856    -0.000004302753
      16        0.000011502124     0.000007901441    -0.000049255809
      17        0.002529688072     0.001106233148     0.002372484431
      18        0.000006277401    -0.000014939256    -0.000014939263
      19       -0.000009716217     0.000009549684     0.000011088960
      20       -0.000006868195    -0.000004024588    -0.000007553512
      21       -0.000001538443     0.000006743726     0.000003662682
      22        0.000016664945    -0.000004924454     0.000000255079
      23       -0.000010091724    -0.000005648154     0.000006409345
      24        0.000006796542     0.000006893631    -0.000009004522

  **** Optimization is complete! (in 7 steps) ****
    Final optimized geometry and variables:
    Molecular point group: c1

    Geometry (in Angstrom), charge = 0, multiplicity = 1:

    H           -3.397678327637     1.496001950981    -1.243311400391
    O           -3.439412661813     0.553224344038    -1.160994400562
    C           -3.169220541594     0.191422901461     0.169346930916
    C           -1.749782228622     0.536359835544     0.606446183172
    H           -3.325814101542    -0.879018081754     0.219789274109
    H           -3.888149514740     0.655804521611     0.842163121814
    C           -0.669596093567    -0.167696038031    -0.214983884975
    H           -1.612117507853     1.616276589161     0.545304906574
    H           -1.643149030315     0.276807218292     1.658492096863
    C            0.751417567185     0.187374522996     0.229534197330
    H           -0.801838293842     0.078055425342    -1.264525499294
    H           -0.806387633709    -1.244696875446    -0.134852038336
    C            1.841858504700    -0.507996243251    -0.611300453119
    H            0.885118941460     1.265745762700     0.200693235467
    H            0.861754181804    -0.098612335535     1.274167702076
    C            3.027688033012    -1.029716420554     0.209263409498
    H            2.230987716236     0.187064147610    -1.352077733971
    H            1.406121528118    -1.339376656452    -1.158561406858
    C            3.844258245922     0.073343818872     0.884203329562
    H            3.682240485016    -1.601761427255    -0.444051963242
    H            2.664843593522    -1.725671065908     0.963122405525
    H            4.246576138983     0.764296660873     0.148131922524
    H            4.680581326759    -0.343507995332     1.437043019061
    H            3.244593629668     0.648616604874     1.582740864179

  Mulliken Charges: (a.u.)
   Center  Symbol    Alpha    Beta     Spin     Total
       1     H     0.28338  0.28338  0.00000  0.43324
       2     O     4.36827  4.36827  0.00000 -0.73654
       3     C     2.99607  2.99607  0.00000  0.00787
       4     C     3.16969  3.16969  0.00000 -0.33938
       5     H     0.41637  0.41637  0.00000  0.16725
       6     H     0.42817  0.42817  0.00000  0.14365
       7     C     3.15354  3.15354  0.00000 -0.30708
       8     H     0.42817  0.42817  0.00000  0.14365
       9     H     0.42244  0.42244  0.00000  0.15512
      10     C     3.15473  3.15473  0.00000 -0.30946
      11     H     0.41193  0.41193  0.00000  0.17613
      12     H     0.42330  0.42330  0.00000  0.15340
      13     C     3.15481  3.15481  0.00000 -0.30962
      14     H     0.42195  0.42195  0.00000  0.15611
      15     H     0.42375  0.42375  0.00000  0.15250
      16     C     3.15354  3.15354  0.00000 -0.30709
      17     H     0.42241  0.42241  0.00000  0.15518
      18     H     0.41852  0.41852  0.00000  0.16296
      19     C     3.24084  3.24084  0.00000 -0.48168
      20     H     0.42187  0.42187  0.00000  0.15625
      21     H     0.42405  0.42405  0.00000  0.15190
      22     H     0.42254  0.42254  0.00000  0.15492
      23     H     0.41965  0.41965  0.00000  0.16070
      24     H     0.41999  0.41999  0.00000  0.16001

   Total alpha = 33.00000, Total beta = 33.00000, Total charge =  0.00000
