  ==> Input File <==

--------------------------------------------------------------------------
set {
	reference rhf
	basis cc-pvtz
}

set_num_threads( 4 )
memory 2 gb

molecule MOL {
0 1

H	 -2.161400	 -0.233804	 1.020358
O	 -2.041679	 -0.058866	 0.103463
C	 -0.959304	 0.780994	 -0.094939
C	 0.354905	 0.037902	 -0.006215
H	 -0.985899	 1.279578	 -1.057596
H	 -0.969809	 1.529522	 0.682889
F	 0.412060	 -0.931028	 -0.902708
F	 1.359641	 0.856111	 -0.239961
F	 0.545380	 -0.506387	 1.171682

	symmetry c1
}
set optking {
	frozen_dihedral = ("
		1 2 3 5
	")
}

ee = optimize('scf')
oeprop('DIPOLE', 'QUADRUPOLE', 'MULLIKEN_CHARGES')
f=open( 'psi4out.xyz', 'w' )
f.write( "9  " )
f.write( str(ee) + "\n" )
f.write( MOL.save_string_xyz() )
f.close()
--------------------------------------------------------------------------

    Molecular point group: c1
  Charge       = 0
  Multiplicity = 1
  Basis Set: CC-PVTZ
  Basis Set:
  @DF-RHF Final Energy:  -450.84515901434315
    Total Energy =                       -450.8451590143432668
    Molecular point group: c1
  Basis Set: CC-PVTZ
  Basis Set:
  Basis Set: CC-PVTZ
  Basis Set:
  @DF-RHF Final Energy:  -450.84668553972153
    Total Energy =                       -450.8466855397215340
  Basis Set: CC-PVTZ
  Basis Set:
  Basis Set: CC-PVTZ
  Basis Set:
  @DF-RHF Final Energy:  -450.84698086825279
    Total Energy =                       -450.8469808682527287
  Basis Set: CC-PVTZ
  Basis Set:
  Basis Set: CC-PVTZ
  Basis Set:
  @DF-RHF Final Energy:  -450.84699116782627
    Total Energy =                       -450.8469911678265589
  Basis Set: CC-PVTZ
  Basis Set:
  Charge       = 0
  Multiplicity = 1
  Basis Set: CC-PVTZ
  Basis Set:

    Orbital Energies (a.u.)
    -----------------------

    Doubly Occupied:

       1A    -26.337634     2A    -26.337249     3A    -26.333743
       4A    -20.583883     5A    -11.491772     6A    -11.310120
       7A     -1.745823     8A     -1.642786     9A     -1.640922
      10A     -1.407357    11A     -1.050086    12A     -0.928309
      13A     -0.836083    14A     -0.834548    15A     -0.807134
      16A     -0.735247    17A     -0.716944    18A     -0.704689
      19A     -0.670379    20A     -0.663516    21A     -0.647251
      22A     -0.633699    23A     -0.613464    24A     -0.535393
      25A     -0.484761

  @DF-RHF Final Energy:  -450.84699273382319

   => Energetics <=

    Nuclear Repulsion Energy =            277.5653752122120750
    One-Electron Energy =               -1177.4391486231934323
    Two-Electron Energy =                 449.0267806771581718
    DFT Exchange-Correlation Energy =       0.0000000000000000
    Empirical Dispersion Energy =           0.0000000000000000
    PCM Polarization Energy =               0.0000000000000000
    EFP Energy =                            0.0000000000000000
    Total Energy =                       -450.8469927338231855
    Molecular point group: c1
  Basis Set: CC-PVTZ
  Basis Set:

  -Total Gradient:
     Atom            X                  Y                   Z
    ------   -----------------  -----------------  -----------------
       1       -0.000797718314     0.001094064611     0.000049041598
       2        0.000928011388    -0.001070605003     0.000019508911
       3        0.000488380113    -0.000919077462    -0.000519774293
       4       -0.000083245779     0.000021241698     0.000173551812
       5       -0.000613736161     0.000881596786     0.000440544505
       6       -0.000001865338    -0.000038468701     0.000008056940
       7        0.000047336637     0.000049895368     0.000082005041
       8        0.000099237768     0.000004311314    -0.000112647691
       9       -0.000066400314    -0.000022958611    -0.000140286820

  **** Optimization is complete! (in 5 steps) ****
    Final optimized geometry and variables:
    Molecular point group: c1

    Geometry (in Angstrom), charge = 0, multiplicity = 1:

    H           -2.169736354653    -0.229981317266     1.010835557213
    O           -2.038655020486    -0.067009809987     0.094186237510
    C           -0.959218071555     0.777664128380    -0.102486029893
    C            0.353709149115     0.030389222778    -0.035950852410
    H           -1.046831426804     1.219593348099    -1.083886010388
    H           -0.913669152179     1.577078355957     0.628315116534
    F            0.445220939772    -0.903688169845    -0.951806158012
    F            1.360540249052     0.863024230420    -0.208315269366
    F            0.512158675891    -0.549469805694     1.138810801318

  Mulliken Charges: (a.u.)
   Center  Symbol    Alpha    Beta     Spin     Total
       1     H     0.38626  0.38626  0.00000  0.22749
       2     O     4.19223  4.19223  0.00000 -0.38446
       3     C     2.99390  2.99390  0.00000  0.01221
       4     C     2.68188  2.68188  0.00000  0.63624
       5     H     0.44730  0.44730  0.00000  0.10539
       6     H     0.46123  0.46123  0.00000  0.07753
       7     F     4.60761  4.60761  0.00000 -0.21522
       8     F     4.61325  4.61325  0.00000 -0.22649
       9     F     4.61635  4.61635  0.00000 -0.23270

   Total alpha = 25.00000, Total beta = 25.00000, Total charge = -0.00000
