  ==> Input File <==

--------------------------------------------------------------------------
set {
	reference rhf
	basis 6-31G*
}

set_num_threads( 4 )
memory 2 gb

molecule MOL {
0 1

O	 0.749854	 1.307668	 -0.000040
C	 0.576249	 0.131685	 -0.000108
C	 -0.766779	 -0.556801	 -0.000461
O	 1.568443	 -0.749345	 -0.000005
C	 -1.945214	 0.412366	 0.000161
H	 -0.796911	 -1.211249	 -0.867467
H	 -0.796854	 -1.212390	 0.865687
C	 -2.882479	 0.176534	 -1.183260
H	 -1.571462	 1.430439	 -0.020811
H	 -2.492067	 0.310342	 0.931352
H	 -2.364631	 0.304152	 -2.129833
H	 -3.712447	 0.875258	 -1.164814
H	 -3.296306	 -0.827926	 -1.166501
C	 2.886820	 -0.232538	 0.000322
H	 3.059106	 0.369571	 -0.880203
H	 3.540187	 -1.091012	 0.000050
H	 3.059019	 0.368956	 0.881266

	symmetry c1
}
set optking {
	frozen_dihedral = ("
		9 5 3 6
	")
}

ee = optimize('scf')
oeprop('DIPOLE', 'QUADRUPOLE', 'MULLIKEN_CHARGES')
f=open( 'psi4out.xyz', 'w' )
f.write( "17  " )
f.write( str(ee) + "\n" )
f.write( MOL.save_string_xyz() )
f.close()
--------------------------------------------------------------------------

    Molecular point group: c1
  Charge       = 0
  Multiplicity = 1
  Basis Set: 6-31G*
  Basis Set:
  @DF-RHF Final Energy:  -344.90170127139345
    Total Energy =                       -344.9017012713936765
    Molecular point group: c1
  Basis Set: 6-31G*
  Basis Set:
  Basis Set: 6-31G*
  Basis Set:
  @DF-RHF Final Energy:  -344.90199187417261
    Total Energy =                       -344.9019918741727793
  Basis Set: 6-31G*
  Basis Set:
  Basis Set: 6-31G*
  Basis Set:
  @DF-RHF Final Energy:  -344.90191417186873
    Total Energy =                       -344.9019141718687251
  Basis Set: 6-31G*
  Basis Set:
  Basis Set: 6-31G*
  Basis Set:
  @DF-RHF Final Energy:  -344.90210565821445
    Total Energy =                       -344.9021056582143956
  Basis Set: 6-31G*
  Basis Set:
  Basis Set: 6-31G*
  Basis Set:
  @DF-RHF Final Energy:  -344.90210666978498
    Total Energy =                       -344.9021066697847573
  Basis Set: 6-31G*
  Basis Set:
  Charge       = 0
  Multiplicity = 1
  Basis Set: 6-31G*
  Basis Set:

    Orbital Energies (a.u.)
    -----------------------

    Doubly Occupied:

       1A    -20.604263     2A    -20.546652     3A    -11.373601
       4A    -11.281318     5A    -11.235851     6A    -11.219944
       7A    -11.213173     8A     -1.470329     9A     -1.363680
      10A     -1.077142    11A     -1.001423    12A     -0.938941
      13A     -0.828437    14A     -0.766785    15A     -0.702150
      16A     -0.681937    17A     -0.672841    18A     -0.627356
      19A     -0.602360    20A     -0.570963    21A     -0.570158
      22A     -0.531448    23A     -0.524405    24A     -0.488778
      25A     -0.485814    26A     -0.474421    27A     -0.457866
      28A     -0.440220

  @DF-RHF Final Energy:  -344.90210732178002

   => Energetics <=

    Nuclear Repulsion Energy =            313.2768345440022131
    One-Electron Energy =               -1090.8533691167949655
    Two-Electron Energy =                 432.6744272510128440
    DFT Exchange-Correlation Energy =       0.0000000000000000
    Empirical Dispersion Energy =           0.0000000000000000
    PCM Polarization Energy =               0.0000000000000000
    EFP Energy =                            0.0000000000000000
    Total Energy =                       -344.9021073217799085
    Molecular point group: c1
  Basis Set: 6-31G*
  Basis Set:

  -Total Gradient:
     Atom            X                  Y                   Z
    ------   -----------------  -----------------  -----------------
       1        0.000027448338    -0.000069974441     0.000019025281
       2       -0.000092057526     0.000022962924     0.000007176053
       3        0.000265938840     0.000404659799    -0.000262751460
       4        0.000025801061     0.000047450973    -0.000018157716
       5       -0.000058449469    -0.000121823184    -0.000517671266
       6       -0.000249473495    -0.000324413945     0.000258463498
       7        0.000005720784     0.000002366366     0.000032243835
       8        0.000013246321    -0.000002511220     0.000016068169
       9        0.000023599665     0.000019438911     0.000455259967
      10       -0.000004166266     0.000009377932    -0.000019282268
      11       -0.000003595329     0.000001745438     0.000013562740
      12       -0.000005587372     0.000004081659     0.000009362672
      13        0.000020549981     0.000007141664     0.000001930891
      14        0.000024965514    -0.000008348328     0.000004236368
      15       -0.000000271013    -0.000000079419    -0.000002788744
      16        0.000005907487     0.000007082052    -0.000000032372
      17        0.000000422477     0.000000842816     0.000003354352

  **** Optimization is complete! (in 6 steps) ****
    Final optimized geometry and variables:
    Molecular point group: c1

    Geometry (in Angstrom), charge = 0, multiplicity = 1:

    O            0.716860700889     1.242171889496     0.156077000696
    C            0.526995665959     0.068929039801     0.170696739685
    C           -0.819496860033    -0.618686580297     0.169121819667
    O            1.509820614619    -0.822572343339     0.187618304692
    C           -2.025820883890     0.335664787169     0.169555110112
    H           -0.830861082091    -1.274790072540    -0.696495826325
    H           -0.830581746713    -1.282434009164     1.027738882078
    C           -2.974998363821     0.099951596341    -1.005419601770
    H           -1.669274673484     1.357153784942     0.150461938675
    H           -2.574102096080     0.220068159372     1.099145348708
    H           -2.467653149625     0.253913073642    -1.953526385108
    H           -3.817355139780     0.783101498346    -0.966421202625
    H           -3.369339629889    -0.912471671609    -1.000503933273
    C            2.833945958823    -0.320552978473     0.187222205676
    H            3.017501381513     0.266554394081    -0.701077499001
    H            3.477532373456    -1.186276948800     0.202840046869
    H            3.008436060437     0.291661099066     1.060255926400

  Mulliken Charges: (a.u.)
   Center  Symbol    Alpha    Beta     Spin     Total
       1     O     4.28462  4.28462  0.00000 -0.56925
       2     C     2.61391  2.61391  0.00000  0.77218
       3     C     3.20896  3.20896  0.00000 -0.41791
       4     O     4.30489  4.30489  0.00000 -0.60978
       5     C     3.16193  3.16193  0.00000 -0.32387
       6     H     0.39781  0.39781  0.00000  0.20438
       7     H     0.39730  0.39730  0.00000  0.20541
       8     C     3.24267  3.24267  0.00000 -0.48534
       9     H     0.39308  0.39308  0.00000  0.21383
      10     H     0.41800  0.41800  0.00000  0.16399
      11     H     0.41932  0.41932  0.00000  0.16135
      12     H     0.41693  0.41693  0.00000  0.16614
      13     H     0.42216  0.42216  0.00000  0.15567
      14     C     3.09204  3.09204  0.00000 -0.18407
      15     H     0.40903  0.40903  0.00000  0.18193
      16     H     0.40841  0.40841  0.00000  0.18317
      17     H     0.40893  0.40893  0.00000  0.18214

   Total alpha = 28.00000, Total beta = 28.00000, Total charge =  0.00000
