                              Psi4 1.0.54 Driver

  ==> Input File <==

--------------------------------------------------------------------------
set {
	reference rhf
	basis cc-pvtz
}

set_num_threads( 4 )
memory 2 gb

molecule MOL {
0 1

H	 2.213991	 -0.565065	 0.532288
C	 1.885886	 -0.423235	 -0.505925
C	 0.608379	 0.352270	 -0.671348
O	 2.524400	 -0.871284	 -1.394286
C	 -0.554654	 -0.292621	 0.086567
H	 0.392169	 0.435628	 -1.728297
H	 0.782399	 1.353103	 -0.281569
C	 -1.846385	 0.513195	 -0.016346
H	 -0.721843	 -1.293557	 -0.300878
H	 -0.286292	 -0.408336	 1.133593
C	 -3.089953	 -0.365049	 -0.098564
H	 -1.798267	 1.154820	 -0.891143
H	 -1.925398	 1.173265	 0.842889
H	 -3.055079	 -1.012299	 -0.968245
H	 -3.988403	 0.236438	 -0.170014
H	 -3.183055	 -0.995885	 0.779079

	symmetry c1
}
set optking {
	frozen_dihedral = ("
		9 5 8 12
	")
}

ee,wfn = optimize('scf', return_wfn=True)
oeprop( wfn, 'DIPOLE', 'QUADRUPOLE', 'MULLIKEN_CHARGES')
f=open( 'psi4out.xyz', 'w' )
f.write( "16  " )
f.write( str(ee) + "\n" )
f.write( MOL.save_string_xyz() )
f.close()
--------------------------------------------------------------------------

    Molecular point group: c1
  Charge       = 0
  Multiplicity = 1
  Basis Set: CC-PVTZ
  Basis Set:
  @DF-RHF Final Energy:  -270.11535319005782
    Total Energy =                       -270.1153531900574762
    Molecular point group: c1
  Basis Set: CC-PVTZ
  Basis Set:
  Basis Set: CC-PVTZ
  Basis Set:
  @DF-RHF Final Energy:  -270.11563852552996
    Total Energy =                       -270.1156385255303007
  Basis Set: CC-PVTZ
  Basis Set:
  Basis Set: CC-PVTZ
  Basis Set:
  @DF-RHF Final Energy:  -270.11547011473061
    Total Energy =                       -270.1154701147310107
  Basis Set: CC-PVTZ
  Basis Set:
  Basis Set: CC-PVTZ
  Basis Set:
  @DF-RHF Final Energy:  -270.11572666440139
    Total Energy =                       -270.1157266644014499
  Basis Set: CC-PVTZ
  Basis Set:
  Basis Set: CC-PVTZ
  Basis Set:
  @DF-RHF Final Energy:  -270.11572684901932
    Total Energy =                       -270.1157268490194383
  Basis Set: CC-PVTZ
  Basis Set:
  Basis Set: CC-PVTZ
  Basis Set:
  @DF-RHF Final Energy:  -270.11573022449187
    Total Energy =                       -270.1157302244918696
  Basis Set: CC-PVTZ
  Basis Set:
  Charge       = 0
  Multiplicity = 1
  Basis Set: CC-PVTZ
  Basis Set:

    Orbital Energies (a.u.)
    -----------------------

    Doubly Occupied:

       1A    -20.552240     2A    -11.321339     3A    -11.234909
       4A    -11.234058     5A    -11.227265     6A    -11.216885
       7A     -1.406971     8A     -1.096333     9A     -1.020143
      10A     -0.906803    11A     -0.813582    12A     -0.794812
      13A     -0.678197    14A     -0.651150    15A     -0.629696
      16A     -0.602799    17A     -0.588104    18A     -0.553550
      19A     -0.522748    20A     -0.518314    21A     -0.488936
      22A     -0.482052    23A     -0.474620    24A     -0.411493

  @DF-RHF Final Energy:  -270.11573067519794

   => Energetics <=

    Nuclear Repulsion Energy =            229.3571291088747728
    One-Electron Energy =                -820.0917183323639392
    Two-Electron Energy =                 320.6188585482912572
    DFT Exchange-Correlation Energy =       0.0000000000000000
    Empirical Dispersion Energy =           0.0000000000000000
    PCM Polarization Energy =               0.0000000000000000
    EFP Energy =                            0.0000000000000000
    Total Energy =                       -270.1157306751978808
    Molecular point group: c1
  Basis Set: CC-PVTZ
  Basis Set:

  -Total Gradient:
     Atom            X                  Y                   Z
    ------   -----------------  -----------------  -----------------
       1       -0.000000331929    -0.000001852301     0.000000363330
       2       -0.000016364261     0.000013622115     0.000025111621
       3        0.000003823153    -0.000009621888     0.000003089142
       4        0.000009517553    -0.000005728001    -0.000020436224
       5        0.001864893251     0.002536813867    -0.004463831573
       6       -0.000006117068    -0.000000607804    -0.000002237159
       7        0.000003566397     0.000004912667     0.000000881081
       8       -0.002549505449    -0.004330465023    -0.002107852275
       9       -0.001155323011    -0.001431543997     0.004069229263
      10        0.000005393459     0.000008314862     0.000003472073
      11        0.000000849321     0.000000609411    -0.000001816675
      12        0.001840425525     0.003208163577     0.002486378765
      13       -0.000003321327     0.000002123863     0.000009076356
      14        0.000000621466     0.000002151482    -0.000003239844
      15       -0.000002619072     0.000003590693     0.000001781409
      16        0.000004491992    -0.000000483523     0.000000030710

  **** Optimization is complete! (in 7 steps) ****
    Final optimized geometry and variables:
    Molecular point group: c1

    Geometry (in Angstrom), charge = 0, multiplicity = 1:

    H            2.277088689278    -0.345941690940     1.014500206942
    C            1.981000328469    -0.211766030862    -0.034249974285
    C            0.695718885505     0.539844217102    -0.243938509271
    O            2.656434959438    -0.649086103256    -0.900396304055
    C           -0.481657213864    -0.127444799136     0.467955942288
    H            0.515489985894     0.624358357852    -1.307431744646
    H            0.835506969780     1.542245869433     0.156281606403
    C           -1.783001575988     0.684070365933     0.383410805865
    H           -0.641154469516    -1.126259667985     0.073577432837
    H           -0.227865083777    -0.276824041628     1.514255909157
    C           -3.037428671582    -0.179483038494     0.354143273877
    H           -1.752496321292     1.338580353133    -0.482022654339
    H           -1.831592938461     1.354365722194     1.236740221384
    H           -3.053882900675    -0.814216004821    -0.525059322468
    H           -3.932638659286     0.430975209913     0.341184268710
    H           -3.088195851468    -0.822758850553     1.226458129560

  Mulliken Charges: (a.u.)
   Center  Symbol    Alpha    Beta     Spin     Total
       1     H     0.46546  0.46546  0.00000  0.06908
       2     C     2.90908  2.90908  0.00000  0.18185
       3     C     3.07843  3.07843  0.00000 -0.15686
       4     O     4.16363  4.16363  0.00000 -0.32725
       5     C     3.10440  3.10440  0.00000 -0.20881
       6     H     0.44229  0.44229  0.00000  0.11542
       7     H     0.44909  0.44909  0.00000  0.10181
       8     C     3.08584  3.08584  0.00000 -0.17169
       9     H     0.44586  0.44586  0.00000  0.10829
      10     H     0.45069  0.45069  0.00000  0.09861
      11     C     3.14718  3.14718  0.00000 -0.29436
      12     H     0.45193  0.45193  0.00000  0.09614
      13     H     0.45195  0.45195  0.00000  0.09609
      14     H     0.45304  0.45304  0.00000  0.09393
      15     H     0.44761  0.44761  0.00000  0.10478
      16     H     0.45352  0.45352  0.00000  0.09296

   Total alpha = 24.00000, Total beta = 24.00000, Total charge =  0.00000

*** Psi4 exiting successfully. Buy a developer a beer!
