  ==> Input File <==

--------------------------------------------------------------------------
set {
	reference rhf
	basis 6-31G*
}

set_num_threads( 4 )
memory 2 gb

molecule MOL {
0 1

H	 -2.098997	 -0.674324	 -0.616650
O	 -2.035884	 -0.060112	 0.102722
C	 -0.955155	 0.788182	 -0.092531
C	 0.353668	 0.040312	 -0.004810
H	 -0.985057	 1.290372	 -1.054184
H	 -0.974469	 1.533190	 0.688632
F	 1.340968	 0.763790	 -0.520941
F	 0.658564	 -0.212399	 1.257875
F	 0.323703	 -1.106818	 -0.651916

	symmetry c1
}
set optking {
	frozen_dihedral = ("
		7 4 3 5
	")
}

ee = optimize('scf')
oeprop('DIPOLE', 'QUADRUPOLE', 'MULLIKEN_CHARGES')
f=open( 'psi4out.xyz', 'w' )
f.write( "9  " )
f.write( str(ee) + "\n" )
f.write( MOL.save_string_xyz() )
f.close()
--------------------------------------------------------------------------

    Molecular point group: c1
  Charge       = 0
  Multiplicity = 1
  Basis Set: 6-31G*
  Basis Set:
  @DF-RHF Final Energy:  -450.66140825121369
    Total Energy =                       -450.6614082512138566
    Molecular point group: c1
  Basis Set: 6-31G*
  Basis Set:
  Basis Set: 6-31G*
  Basis Set:
  @DF-RHF Final Energy:  -450.66187388054180
    Total Energy =                       -450.6618738805419184
  Basis Set: 6-31G*
  Basis Set:
  Basis Set: 6-31G*
  Basis Set:
  @DF-RHF Final Energy:  -450.66201364406174
    Total Energy =                       -450.6620136440617443
  Basis Set: 6-31G*
  Basis Set:
  Basis Set: 6-31G*
  Basis Set:
  @DF-RHF Final Energy:  -450.66202582719620
    Total Energy =                       -450.6620258271966009
  Basis Set: 6-31G*
  Basis Set:
  Charge       = 0
  Multiplicity = 1
  Basis Set: 6-31G*
  Basis Set:

    Orbital Energies (a.u.)
    -----------------------

    Doubly Occupied:

       1A    -26.343745     2A    -26.343570     3A    -26.340999
       4A    -20.590548     5A    -11.501139     6A    -11.309584
       7A     -1.740885     8A     -1.638981     9A     -1.638092
      10A     -1.402969    11A     -1.047766    12A     -0.924187
      13A     -0.831068    14A     -0.828991    15A     -0.807982
      16A     -0.725463    17A     -0.711928    18A     -0.698277
      19A     -0.664435    20A     -0.660358    21A     -0.643273
      22A     -0.628440    23A     -0.616009    24A     -0.529809
      25A     -0.480508

  @DF-RHF Final Energy:  -450.66202691785264

   => Energetics <=

    Nuclear Repulsion Energy =            276.9938019589342844
    One-Electron Energy =               -1176.0136441865538472
    Two-Electron Energy =                 448.3578153097672612
    DFT Exchange-Correlation Energy =       0.0000000000000000
    Empirical Dispersion Energy =           0.0000000000000000
    PCM Polarization Energy =               0.0000000000000000
    EFP Energy =                            0.0000000000000000
    Total Energy =                       -450.6620269178523586
    Molecular point group: c1
  Basis Set: 6-31G*
  Basis Set:

  -Total Gradient:
     Atom            X                  Y                   Z
    ------   -----------------  -----------------  -----------------
       1       -0.000017372566    -0.000008989408    -0.000005388994
       2        0.000025960067     0.000049100982    -0.000011924417
       3       -0.001961407731    -0.003945772689    -0.002481330846
       4        0.000966827837     0.002189854471     0.003832810917
       5        0.001490839917     0.002828635060     0.001377774267
       6        0.000012926149    -0.000022734169     0.000005473538
       7       -0.000371104874    -0.001104457287    -0.002713303222
       8       -0.000082470782    -0.000029534620    -0.000042725567
       9       -0.000064198013     0.000043897662     0.000038614321

  **** Optimization is complete! (in 5 steps) ****
    Final optimized geometry and variables:
    Molecular point group: c1

    Geometry (in Angstrom), charge = 0, multiplicity = 1:

    H           -2.079977923713    -0.711645644052    -0.584089836161
    O           -2.042736380463    -0.051845610999     0.095609001141
    C           -0.958302719235     0.784426491592    -0.116142600210
    C            0.355107445839     0.041731971367    -0.001218020938
    H           -0.974915748613     1.282762406928    -1.080142038482
    H           -0.979147543042     1.546106220250     0.649593168451
    F            1.343021248501     0.766831921179    -0.501633019623
    F            0.662269274392    -0.265634916112     1.242321414099
    F            0.309501119081    -1.091690091395    -0.693229251745

  Mulliken Charges: (a.u.)
   Center  Symbol    Alpha    Beta     Spin     Total
       1     H     0.27190  0.27190  0.00000  0.45621
       2     O     4.36123  4.36123  0.00000 -0.72246
       3     C     3.05647  3.05647  0.00000 -0.11293
       4     C     2.46179  2.46179  0.00000  1.07642
       5     H     0.40915  0.40915  0.00000  0.18170
       6     H     0.39539  0.39539  0.00000  0.20922
       7     F     4.68210  4.68210  0.00000 -0.36419
       8     F     4.67498  4.67498  0.00000 -0.34996
       9     F     4.68700  4.68700  0.00000 -0.37400

   Total alpha = 25.00000, Total beta = 25.00000, Total charge =  0.00000
