  ==> Input File <==

--------------------------------------------------------------------------
set {
	reference rhf
	basis 6-31G*
}

set_num_threads( 4 )
memory 2 gb

molecule MOL {
0 1

H	 -1.034935	 -0.632002	 0.000000
C	 -0.790252	 0.431209	 0.000000
N	 0.538815	 0.649616	 0.000000
O	 -1.637133	 1.275011	 -0.000000
C	 1.521968	 -0.411503	 0.000000
H	 0.852804	 1.592852	 0.000000
H	 2.150599	 -0.357004	 -0.881901
H	 0.999455	 -1.354525	 0.000000
H	 2.150599	 -0.357004	 0.881901

	symmetry c1
}
set optking {
	frozen_dihedral = ("
		1 2 3 6
	")
}

ee = optimize('scf')
oeprop('DIPOLE', 'QUADRUPOLE', 'MULLIKEN_CHARGES')
f=open( 'psi4out.xyz', 'w' )
f.write( "9  " )
f.write( str(ee) + "\n" )
f.write( MOL.save_string_xyz() )
f.close()
--------------------------------------------------------------------------

    Molecular point group: c1
  Charge       = 0
  Multiplicity = 1
  Basis Set: 6-31G*
  Basis Set:
  @DF-RHF Final Energy:  -207.95894615645733
    Total Energy =                       -207.9589461564573867
    Molecular point group: c1
  Basis Set: 6-31G*
  Basis Set:
  Basis Set: 6-31G*
  Basis Set:
  @DF-RHF Final Energy:  -207.95927552875409
    Total Energy =                       -207.9592755287541195
  Basis Set: 6-31G*
  Basis Set:
  Charge       = 0
  Multiplicity = 1
  Basis Set: 6-31G*
  Basis Set:

    Orbital Energies (a.u.)
    -----------------------

    Doubly Occupied:

       1A    -20.524441     2A    -15.590429     3A    -11.344707
       4A    -11.277089     5A     -1.388772     6A     -1.240171
       7A     -0.967136     8A     -0.846605     9A     -0.691651
      10A     -0.674849    11A     -0.634505    12A     -0.592898
      13A     -0.571708    14A     -0.543572    15A     -0.423466
      16A     -0.389014

  @DF-RHF Final Energy:  -207.95929884860240

   => Energetics <=

    Nuclear Repulsion Energy =            120.3619868230951795
    One-Electron Energy =                -521.2405422074018588
    Two-Electron Energy =                 192.9192565357042497
    DFT Exchange-Correlation Energy =       0.0000000000000000
    Empirical Dispersion Energy =           0.0000000000000000
    PCM Polarization Energy =               0.0000000000000000
    EFP Energy =                            0.0000000000000000
    Total Energy =                       -207.9592988486024012
    Molecular point group: c1
  Basis Set: 6-31G*
  Basis Set:

  -Total Gradient:
     Atom            X                  Y                   Z
    ------   -----------------  -----------------  -----------------
       1        0.000008474194    -0.000035623188     0.000000000595
       2       -0.000231927918     0.000018268033    -0.000000002103
       3       -0.000307068168    -0.000146984820     0.000000000580
       4        0.000341957359    -0.000082312199     0.000000000869
       5        0.000352608826     0.000086780899     0.000000000474
       6        0.000155999631     0.000067244324    -0.000000000138
       7       -0.000100602977     0.000053226870    -0.000044767262
       8       -0.000118837938    -0.000013826777    -0.000000000061
       9       -0.000100603008     0.000053226857     0.000044767045

  **** Optimization is complete! (in 3 steps) ****
    Final optimized geometry and variables:
    Molecular point group: c1

    Geometry (in Angstrom), charge = 0, multiplicity = 1:

    H           -0.997466614890    -1.111224704223    -0.000000000273
    C           -0.723796652944    -0.054712551637    -0.000000003306
    N            0.608968851042     0.142264594404    -0.000000002612
    O           -1.543061496314     0.814637464125     0.000000005223
    C            1.608224945853    -0.898149819387    -0.000000000206
    H            0.902738108518     1.095037923851    -0.000000005011
    H            2.237162419145    -0.840242489807    -0.881377996941
    H            1.117946706049    -1.863321056963    -0.000000002659
    H            2.237162414252    -0.840242490867     0.881378000088

  Mulliken Charges: (a.u.)
   Center  Symbol    Alpha    Beta     Spin     Total
       1     H     0.43116  0.43116  0.00000  0.13767
       2     C     2.73926  2.73926  0.00000  0.52147
       3     N     3.87121  3.87121  0.00000 -0.74243
       4     O     4.28480  4.28480  0.00000 -0.56960
       5     C     3.14063  3.14063  0.00000 -0.28126
       6     H     0.30439  0.30439  0.00000  0.39121
       7     H     0.40974  0.40974  0.00000  0.18052
       8     H     0.40905  0.40905  0.00000  0.18191
       9     H     0.40974  0.40974  0.00000  0.18052

   Total alpha = 16.00000, Total beta = 16.00000, Total charge = -0.00000
