  ==> Input File <==

--------------------------------------------------------------------------
set {
	reference rhf
	basis 6-31G*
}

set_num_threads( 1 )
memory 2 gb

molecule MOL {
0 1

H	 -2.646374	 -0.642757	 1.268656
C	 -2.083525	 -0.384536	 0.393091
O	 -0.807605	 -0.127164	 0.768327
F	 -2.118945	 -1.383102	 -0.486752
F	 -2.621877	 0.670592	 -0.209486
C	 0.084052	 0.273579	 -0.209957
C	 0.880980	 -0.958995	 -0.617174
Cl	 1.161972	 1.540268	 0.398979
H	 -0.412232	 0.659301	 -1.083281
F	 1.746765	 -0.655371	 -1.560767
F	 0.049928	 -1.861409	 -1.099295
F	 1.526384	 -1.487172	 0.393991

	symmetry c1
}
set optking {
	frozen_dihedral = ("
		10 7 6 9,
		6 3 2 4
	")
}

ee = energy('scf')
oeprop('DIPOLE', 'QUADRUPOLE', 'MULLIKEN_CHARGES')
f=open( 'psi4out.xyz', 'w' )
f.write( "12  " )
f.write( str(ee) + "\n" )
f.write( MOL.save_string_xyz() )
f.close()
--------------------------------------------------------------------------

    Molecular point group: c1

    Geometry (in Angstrom), charge = 0, multiplicity = 1:

       Center              X                  Y                   Z               Mass
    ------------   -----------------  -----------------  -----------------  -----------------
           H         -2.560903707664    -0.367711200821     1.459227068493     1.007825032070
           C         -1.998054707664    -0.109490200821     0.583662068493    12.000000000000
           O         -0.722134707664     0.147881799179     0.958898068493    15.994914619560
           F         -2.033474707664    -1.108056200821    -0.296180931507    18.998403224000
           F         -2.536406707664     0.945637799179    -0.018914931507    18.998403224000
           C          0.169522292336     0.548624799179    -0.019385931507    12.000000000000
           C          0.966450292336    -0.683949200821    -0.426602931507    12.000000000000
          CL          1.247442292336     1.815313799179     0.589550068493    34.968852682000
           H         -0.326761707664     0.934346799179    -0.892709931507     1.007825032070
           F          1.832235292336    -0.380325200821    -1.370195931507    18.998403224000
           F          0.135398292336    -1.586363200821    -0.908723931507    18.998403224000
           F          1.611854292336    -1.212126200821     0.584562068493    18.998403224000

  Charge       = 0
  Multiplicity = 1
  Basis Set: 6-31G*
  Basis Set:

    Orbital Energies (a.u.)
    -----------------------

    Doubly Occupied:

       1A   -104.848973     2A    -26.356572     3A    -26.355232
       4A    -26.352374     5A    -26.347963     6A    -26.338499
       7A    -20.648010     8A    -11.522509     9A    -11.488445
      10A    -11.400091    11A    -10.583297    12A     -8.052679
      13A     -8.049109    14A     -8.049012    15A     -1.758165
      16A     -1.716382    17A     -1.654808    18A     -1.653520
      19A     -1.635393    20A     -1.485471    21A     -1.181606
      22A     -1.047678    23A     -0.989241    24A     -0.915399
      25A     -0.853477    26A     -0.852236    27A     -0.840918
      28A     -0.832556    29A     -0.810533    30A     -0.788787
      31A     -0.728266    32A     -0.721026    33A     -0.706576
      34A     -0.697275    35A     -0.672431    36A     -0.667744
      37A     -0.656733    38A     -0.649209    39A     -0.645016
      40A     -0.637392    41A     -0.592684    42A     -0.574487
      43A     -0.526801    44A     -0.481581    45A     -0.470350

  @DF-RHF Final Energy: -1146.30560894060272

   => Energetics <=

    Nuclear Repulsion Energy =            747.6851538762517748
    One-Electron Energy =               -3078.3085728408946125
    Two-Electron Energy =                1184.3178100240374988
    DFT Exchange-Correlation Energy =       0.0000000000000000
    Empirical Dispersion Energy =           0.0000000000000000
    PCM Polarization Energy =               0.0000000000000000
    EFP Energy =                            0.0000000000000000
    Total Energy =                      -1146.3056089406054525

  Mulliken Charges: (a.u.)
   Center  Symbol    Alpha    Beta     Spin     Total
       1     H     0.40116  0.40116  0.00000  0.19769
       2     C     2.56360  2.56360  0.00000  0.87281
       3     O     4.29880  4.29880  0.00000 -0.59759
       4     F     4.68427  4.68427  0.00000 -0.36854
       5     F     4.68695  4.68695  0.00000 -0.37389
       6     C     3.05584  3.05584  0.00000 -0.11168
       7     C     2.43430  2.43430  0.00000  1.13141
       8    CL     8.49177  8.49177  0.00000  0.01646
       9     H     0.36608  0.36608  0.00000  0.26784
      10     F     4.67462  4.67462  0.00000 -0.34925
      11     F     4.67395  4.67395  0.00000 -0.34790
      12     F     4.66868  4.66868  0.00000 -0.33735

   Total alpha = 45.00000, Total beta = 45.00000, Total charge = -0.00000
