  ==> Input File <==

--------------------------------------------------------------------------
set {
	reference rhf
	basis cc-pvtz
}

set_num_threads( 4 )
memory 2 gb

molecule MOL {
0 1

H	 2.694871	 -0.086373	 -0.856660
O	 1.852086	 -0.512846	 -0.896286
C	 1.050374	 0.054877	 0.000135
C	 -0.318151	 -0.570512	 0.000144
O	 1.410268	 0.942227	 0.693716
C	 -1.454884	 0.441630	 -0.000560
H	 -0.371613	 -1.223646	 -0.864985
H	 -0.371920	 -1.222758	 0.865929
C	 -2.822577	 -0.232186	 0.000063
H	 -1.359760	 1.084704	 -0.867077
H	 -1.359641	 1.085996	 0.864983
H	 -2.954352	 -0.858985	 -0.875745
H	 -3.615886	 0.505352	 0.000019
H	 -2.953878	 -0.858359	 0.876394

	symmetry c1
}
set optking {
	frozen_dihedral = ("
		2 3 4 7
	")
}

ee = optimize('scf')
oeprop('DIPOLE', 'QUADRUPOLE', 'MULLIKEN_CHARGES')
f=open( 'psi4out.xyz', 'w' )
f.write( "14  " )
f.write( str(ee) + "\n" )
f.write( MOL.save_string_xyz() )
f.close()
--------------------------------------------------------------------------

    Molecular point group: c1
  Charge       = 0
  Multiplicity = 1
  Basis Set: CC-PVTZ
  Basis Set:
  @DF-RHF Final Energy:  -305.99919860440389
    Total Energy =                       -305.9991986044037162
    Molecular point group: c1
  Basis Set: CC-PVTZ
  Basis Set:
  Basis Set: CC-PVTZ
  Basis Set:
  @DF-RHF Final Energy:  -305.99964381260656
    Total Energy =                       -305.9996438126066778
  Basis Set: CC-PVTZ
  Basis Set:
  Basis Set: CC-PVTZ
  Basis Set:
  @DF-RHF Final Energy:  -305.99956026869859
    Total Energy =                       -305.9995602686985308
  Basis Set: CC-PVTZ
  Basis Set:
  Basis Set: CC-PVTZ
  Basis Set:
  @DF-RHF Final Energy:  -305.99966978448299
    Total Energy =                       -305.9996697844828191
  Basis Set: CC-PVTZ
  Basis Set:
  Basis Set: CC-PVTZ
  Basis Set:
  @DF-RHF Final Energy:  -305.99967551797096
    Total Energy =                       -305.9996755179711272
  Basis Set: CC-PVTZ
  Basis Set:
  Charge       = 0
  Multiplicity = 1
  Basis Set: CC-PVTZ
  Basis Set:

    Orbital Energies (a.u.)
    -----------------------

    Doubly Occupied:

       1A    -20.606518     2A    -20.538651     3A    -11.373947
       4A    -11.238882     5A    -11.228244     6A    -11.216826
       7A     -1.478618     8A     -1.368845     9A     -1.085099
      10A     -0.980423    11A     -0.858052    12A     -0.800103
      13A     -0.706084    14A     -0.691162    15A     -0.658155
      16A     -0.626406    17A     -0.596607    18A     -0.573505
      19A     -0.549547    20A     -0.511379    21A     -0.494815
      22A     -0.487340    23A     -0.476833    24A     -0.445147

  @DF-RHF Final Energy:  -305.99967564183544

   => Energetics <=

    Nuclear Repulsion Energy =            240.4174922708737085
    One-Electron Energy =                -893.6519618131568450
    Two-Electron Energy =                 347.2347939004476416
    DFT Exchange-Correlation Energy =       0.0000000000000000
    Empirical Dispersion Energy =           0.0000000000000000
    PCM Polarization Energy =               0.0000000000000000
    EFP Energy =                            0.0000000000000000
    Total Energy =                       -305.9996756418354948
    Molecular point group: c1
  Basis Set: CC-PVTZ
  Basis Set:

  -Total Gradient:
     Atom            X                  Y                   Z
    ------   -----------------  -----------------  -----------------
       1       -0.000015984808     0.000002225433     0.000010110415
       2       -0.000231355900     0.000478402134    -0.000565855209
       3        0.000374472640    -0.000807632779     0.000885741817
       4       -0.000480278082     0.001061523935    -0.000849328195
       5       -0.000002061952    -0.000001778557     0.000004455573
       6        0.000021035031    -0.000002231848    -0.000004820008
       7        0.000320697665    -0.000733984872     0.000504014864
       8        0.000001920244     0.000001081131    -0.000005190579
       9        0.000009352107    -0.000008432972     0.000014176999
      10        0.000004177189    -0.000008685798     0.000005024762
      11       -0.000011904736     0.000013315809     0.000002918164
      12        0.000006021111     0.000004835612    -0.000000801060
      13        0.000005370882     0.000005049128     0.000002351985
      14       -0.000001461394    -0.000003686359    -0.000002799530

  **** Optimization is complete! (in 6 steps) ****
    Final optimized geometry and variables:
    Molecular point group: c1

    Geometry (in Angstrom), charge = 0, multiplicity = 1:

    H            2.734645706233    -0.070254311199    -0.747092115460
    O            1.898070847632    -0.501816935248    -0.839270891501
    C            1.054668201842     0.030190399026     0.038123596249
    C           -0.308960850471    -0.609674632282     0.004565533078
    O            1.373677819914     0.908185973507     0.764249899712
    C           -1.438648163998     0.418261268554     0.026475331367
    H           -0.378776208772    -1.261923009145    -0.854775418899
    H           -0.368786161941    -1.238321717690     0.888241273634
    C           -2.812830252905    -0.239644744195     0.068076587488
    H           -1.364202264625     1.050194972594    -0.852851270847
    H           -1.307939016489     1.064885716819     0.884094508161
    H           -2.972615201422    -0.876733237302    -0.795269879085
    H           -3.597463687375     0.507146746463     0.077504637442
    H           -2.927273287494    -0.851303557793     0.956680197052

  Mulliken Charges: (a.u.)
   Center  Symbol    Alpha    Beta     Spin     Total
       1     H     0.38069  0.38069  0.00000  0.23862
       2     O     4.15751  4.15751  0.00000 -0.31503
       3     C     2.80940  2.80940  0.00000  0.38120
       4     C     3.09278  3.09278  0.00000 -0.18556
       5     O     4.19708  4.19708  0.00000 -0.39416
       6     C     3.08646  3.08646  0.00000 -0.17292
       7     H     0.43739  0.43739  0.00000  0.12521
       8     H     0.44425  0.44425  0.00000  0.11151
       9     C     3.14989  3.14989  0.00000 -0.29978
      10     H     0.45085  0.45085  0.00000  0.09831
      11     H     0.43927  0.43927  0.00000  0.12146
      12     H     0.45500  0.45500  0.00000  0.08999
      13     H     0.44544  0.44544  0.00000  0.10912
      14     H     0.45399  0.45399  0.00000  0.09203

   Total alpha = 24.00000, Total beta = 24.00000, Total charge =  0.00000
