                              Psi4 1.0.54 Driver

  ==> Input File <==

--------------------------------------------------------------------------
set {
	reference rhf
	basis cc-pvtz
}

set_num_threads( 4 )
memory 2 gb

molecule MOL {
0 1

H	 2.462485	 -2.216993	 0.000000
O	 2.777472	 -1.330706	 0.000000
C	 1.763288	 -0.447523	 0.000000
C	 0.484400	 -0.941357	 0.213760
C	 1.956679	 0.902365	 -0.201894
H	 0.356383	 -1.994349	 0.368604
C	 -0.592207	 -0.084530	 0.224493
H	 2.931766	 1.310475	 -0.369075
C	 0.853619	 1.732864	 -0.184597
H	 -1.576892	 -0.475167	 0.390462
C	 -0.423251	 1.275338	 0.024101
N	 1.066921	 3.168421	 -0.400188
H	 -1.249379	 1.952244	 0.029754
O	 2.180209	 3.537198	 -0.578143
O	 0.115233	 3.873200	 -0.383702

	symmetry c1
}
set optking {
	frozen_dihedral = ("
		4 3 2 1
	")
}

ee,wfn = optimize('scf', return_wfn=True)
oeprop( wfn, 'DIPOLE', 'QUADRUPOLE', 'MULLIKEN_CHARGES')
f=open( 'psi4out.xyz', 'w' )
f.write( "15  " )
f.write( str(ee) + "\n" )
f.write( MOL.save_string_xyz() )
f.close()
--------------------------------------------------------------------------

    Molecular point group: c1
  Charge       = 0
  Multiplicity = 1
  Basis Set: CC-PVTZ
  Basis Set:
  @DF-RHF Final Energy:  -509.21589330394403
    Total Energy =                       -509.2158933039434032
    Molecular point group: c1
  Basis Set: CC-PVTZ
  Basis Set:
  Basis Set: CC-PVTZ
  Basis Set:
  @DF-RHF Final Energy:  -509.21798067700774
    Total Energy =                       -509.2179806770077448
  Basis Set: CC-PVTZ
  Basis Set:
  Basis Set: CC-PVTZ
  Basis Set:
  @DF-RHF Final Energy:  -509.21631740482042
    Total Energy =                       -509.2163174048204155
  Basis Set: CC-PVTZ
  Basis Set:
  Basis Set: CC-PVTZ
  Basis Set:
  @DF-RHF Final Energy:  -509.21813682049947
    Total Energy =                       -509.2181368204994669
  Basis Set: CC-PVTZ
  Basis Set:
  Basis Set: CC-PVTZ
  Basis Set:
  @DF-RHF Final Energy:  -509.21819706168412
    Total Energy =                       -509.2181970616836679
  Basis Set: CC-PVTZ
  Basis Set:
  Basis Set: CC-PVTZ
  Basis Set:
  @DF-RHF Final Energy:  -509.21820938742115
    Total Energy =                       -509.2182093874215525
  Basis Set: CC-PVTZ
  Basis Set:
  Charge       = 0
  Multiplicity = 1
  Basis Set: CC-PVTZ
  Basis Set:

    Orbital Energies (a.u.)
    -----------------------

    Doubly Occupied:

       1A    -20.608209     2A    -20.592277     3A    -20.592065
       4A    -15.847920     5A    -11.327654     6A    -11.307569
       7A    -11.264702     8A    -11.261381     9A    -11.258953
      10A    -11.257248    11A     -1.641885    12A     -1.440834
      13A     -1.424336    14A     -1.201839    15A     -1.094400
      16A     -1.049320    17A     -0.964921    18A     -0.866298
      19A     -0.851486    20A     -0.800435    21A     -0.741065
      22A     -0.738003    23A     -0.721808    24A     -0.712500
      25A     -0.682381    26A     -0.636687    27A     -0.623076
      28A     -0.598666    29A     -0.566948    30A     -0.539721
      31A     -0.519735    32A     -0.492210    33A     -0.491695
      34A     -0.457401    35A     -0.381299    36A     -0.345475

  @DF-RHF Final Energy:  -509.21821126028635

   => Energetics <=

    Nuclear Repulsion Energy =            504.6215579984250326
    One-Electron Energy =               -1695.8747310090757310
    Two-Electron Energy =                 682.0349617503643458
    DFT Exchange-Correlation Energy =       0.0000000000000000
    Empirical Dispersion Energy =           0.0000000000000000
    PCM Polarization Energy =               0.0000000000000000
    EFP Energy =                            0.0000000000000000
    Total Energy =                       -509.2182112602863526
    Molecular point group: c1
  Basis Set: CC-PVTZ
  Basis Set:

  -Total Gradient:
     Atom            X                  Y                   Z
    ------   -----------------  -----------------  -----------------
       1        0.000003680819     0.000008127466    -0.000826637709
       2        0.000001337746     0.000121754799     0.001368133854
       3       -0.000004956652    -0.000177233026    -0.001163787421
       4       -0.000035596615     0.000133175483     0.000616058103
       5        0.000043267325    -0.000053772912     0.000004834859
       6       -0.000005108797    -0.000000753788    -0.000000706696
       7        0.000030222034    -0.000128839799     0.000017346920
       8        0.000001778796    -0.000033859563     0.000002758939
       9       -0.000119034854     0.000042046330     0.000003662967
      10       -0.000011820108     0.000016404754    -0.000002053331
      11        0.000097968827     0.000075459894    -0.000021662457
      12        0.000106498593     0.000126650067    -0.000024953596
      13       -0.000009416034    -0.000024512665     0.000004344382
      14       -0.000123772944    -0.000070083749     0.000022195231
      15        0.000024951868    -0.000034563288     0.000000465955

  **** Optimization is complete! (in 7 steps) ****
    Final optimized geometry and variables:
    Molecular point group: c1

    Geometry (in Angstrom), charge = 0, multiplicity = 1:

    H            1.516038604314    -3.392675236606     0.135515135188
    O            1.758031430274    -2.484060377446     0.129532787721
    C            0.674683487249    -1.686387846109     0.138661214307
    C           -0.604803093417    -2.164136064285     0.356557956216
    C            0.883043131273    -0.333988865019    -0.062461223136
    H           -0.763630705847    -3.214233176452     0.519620059567
    C           -1.678392403351    -1.293959631168     0.366324898460
    H            1.868673545851     0.042738421228    -0.228907620546
    C           -0.207151883399     0.502869798990    -0.041641083590
    H           -2.666053771253    -1.676220263652     0.534126013366
    C           -1.494985338206     0.057765173616     0.167524075232
    N            0.016413038741     1.938485346026    -0.255723277750
    H           -2.312844201663     0.744368492380     0.174048237211
    O            1.130327048550     2.300985905281    -0.432709688521
    O           -0.932880286876     2.647856233220    -0.238367510548

  Mulliken Charges: (a.u.)
   Center  Symbol    Alpha    Beta     Spin     Total
       1     H     0.38604  0.38604  0.00000  0.22791
       2     O     4.16716  4.16716  0.00000 -0.33431
       3     C     2.84901  2.84901  0.00000  0.30197
       4     C     3.12084  3.12084  0.00000 -0.24169
       5     C     3.10790  3.10790  0.00000 -0.21579
       6     H     0.42824  0.42824  0.00000  0.14352
       7     C     3.06277  3.06277  0.00000 -0.12554
       8     H     0.39432  0.39432  0.00000  0.21135
       9     C     2.96887  2.96887  0.00000  0.06225
      10     H     0.41599  0.41599  0.00000  0.16801
      11     C     3.09744  3.09744  0.00000 -0.19488
      12     N     3.25118  3.25118  0.00000  0.49764
      13     H     0.39951  0.39951  0.00000  0.20098
      14     O     4.17460  4.17460  0.00000 -0.34920
      15     O     4.17612  4.17612  0.00000 -0.35224

   Total alpha = 36.00000, Total beta = 36.00000, Total charge = -0.00000

*** Psi4 exiting successfully. Buy a developer a beer!
