  ==> Input File <==

--------------------------------------------------------------------------
set {
	reference rhf
	basis 6-31G*
}

set_num_threads( 4 )
memory 2 gb

molecule MOL {
0 1

H	 -2.646374	 -0.642757	 1.268656
C	 -2.083525	 -0.384536	 0.393091
O	 -0.807605	 -0.127164	 0.768327
F	 -2.118945	 -1.383102	 -0.486752
F	 -2.621877	 0.670592	 -0.209486
C	 -0.092698	 0.798887	 0.030746
C	 1.273233	 0.185633	 -0.249096
Cl	 0.077198	 2.320192	 0.921802
H	 -0.562316	 1.022933	 -0.911080
F	 2.009599	 1.010228	 -0.963203
F	 1.106825	 -0.921457	 -0.944868
F	 1.918155	 -0.109701	 0.853096

	symmetry c1
}
set optking {
	frozen_dihedral = ("
		6 3 2 4
	")
}

ee = optimize('scf')
oeprop('DIPOLE', 'QUADRUPOLE', 'MULLIKEN_CHARGES')
f=open( 'psi4out.xyz', 'w' )
f.write( "12  " )
f.write( str(ee) + "\n" )
f.write( MOL.save_string_xyz() )
f.close()
--------------------------------------------------------------------------

    Molecular point group: c1
  Charge       = 0
  Multiplicity = 1
  Basis Set: 6-31G*
  Basis Set:
  @DF-RHF Final Energy: -1146.31124206087861
    Total Energy =                      -1146.3112420608786124
    Molecular point group: c1
  Basis Set: 6-31G*
  Basis Set:
  Basis Set: 6-31G*
  Basis Set:
  @DF-RHF Final Energy: -1146.31133360362946
    Total Energy =                      -1146.3113336036290093
  Basis Set: 6-31G*
  Basis Set:
  Basis Set: 6-31G*
  Basis Set:
  @DF-RHF Final Energy: -1146.31188523123069
    Total Energy =                      -1146.3118852312300078
  Basis Set: 6-31G*
  Basis Set:
  Basis Set: 6-31G*
  Basis Set:
  @DF-RHF Final Energy: -1146.31193465275237
    Total Energy =                      -1146.3119346527516882
  Basis Set: 6-31G*
  Basis Set:
  Basis Set: 6-31G*
  Basis Set:
  @DF-RHF Final Energy: -1146.31196961401156
    Total Energy =                      -1146.3119696140115593
  Basis Set: 6-31G*
  Basis Set:
  Basis Set: 6-31G*
  Basis Set:
  @DF-RHF Final Energy: -1146.31197762059514
    Total Energy =                      -1146.3119776205953713
  Basis Set: 6-31G*
  Basis Set:
  Basis Set: 6-31G*
  Basis Set:
  @DF-RHF Final Energy: -1146.31198062999624
    Total Energy =                      -1146.3119806299955599
  Basis Set: 6-31G*
  Basis Set:
  Charge       = 0
  Multiplicity = 1
  Basis Set: 6-31G*
  Basis Set:

    Orbital Energies (a.u.)
    -----------------------

    Doubly Occupied:

       1A   -104.843629     2A    -26.359645     3A    -26.357935
       4A    -26.357244     5A    -26.354068     6A    -26.341433
       7A    -20.648165     8A    -11.527469     9A    -11.490490
      10A    -11.401901    11A    -10.578415    12A     -8.047758
      13A     -8.044256    14A     -8.044145    15A     -1.760722
      16A     -1.719302    17A     -1.657198    18A     -1.655679
      19A     -1.640572    20A     -1.484442    21A     -1.178926
      22A     -1.053602    23A     -0.986380    24A     -0.919051
      25A     -0.859164    26A     -0.850693    27A     -0.844318
      28A     -0.828458    29A     -0.811677    30A     -0.791995
      31A     -0.726963    32A     -0.725672    33A     -0.703204
      34A     -0.701090    35A     -0.679480    36A     -0.674223
      37A     -0.660422    38A     -0.657428    39A     -0.650798
      40A     -0.632865    41A     -0.597134    42A     -0.579128
      43A     -0.518125    44A     -0.477752    45A     -0.469482

  @DF-RHF Final Energy: -1146.31198288943688

   => Energetics <=

    Nuclear Repulsion Energy =            735.5066980110183295
    One-Electron Energy =               -3053.8523627599070096
    Two-Electron Energy =                1172.0336818594525994
    DFT Exchange-Correlation Energy =       0.0000000000000000
    Empirical Dispersion Energy =           0.0000000000000000
    PCM Polarization Energy =               0.0000000000000000
    EFP Energy =                            0.0000000000000000
    Total Energy =                      -1146.3119828894361945
    Molecular point group: c1
  Basis Set: 6-31G*
  Basis Set:

  -Total Gradient:
     Atom            X                  Y                   Z
    ------   -----------------  -----------------  -----------------
       1        0.000010277647    -0.000020418207    -0.000007324797
       2       -0.000346902915     0.003841530691    -0.001784526898
       3        0.001227052533    -0.003891474108    -0.002501527990
       4       -0.000098212581    -0.002022599302     0.002183385099
       5       -0.000010273927    -0.000006031376    -0.000029742335
       6       -0.000801596966     0.001965273019     0.002078365749
       7        0.000021797429     0.000069585047     0.000005704760
       8        0.000014747197     0.000075305060     0.000031693445
       9        0.000004370305     0.000024288181     0.000009491295
      10       -0.000006124353     0.000018301334     0.000007153116
      11       -0.000013376620    -0.000028020820     0.000014526240
      12       -0.000001757730    -0.000025739479    -0.000007197691

  **** Optimization is complete! (in 8 steps) ****
    Final optimized geometry and variables:
    Molecular point group: c1

    Geometry (in Angstrom), charge = 0, multiplicity = 1:

    H           -2.488990110447    -1.101010906909     1.232644077313
    C           -1.996617382601    -0.779929258441     0.335209938149
    O           -0.679007910872    -0.582795929744     0.608730463227
    F           -2.129949089964    -1.713285827310    -0.599790777913
    F           -2.563761583131     0.327992061083    -0.128315501769
    C            0.033511039695     0.359191476940    -0.102269812038
    C            1.429244641549    -0.215110069467    -0.310703752605
    CL           0.120392346851     1.897199442589     0.779105247425
    H           -0.395825733576     0.563931215973    -1.067226766533
    F            2.174971787409     0.629514924806    -0.990934140684
    F            1.331120578561    -1.327534873091    -1.010035395974
    F            2.027921629878    -0.487937118258     0.822886324083

  Mulliken Charges: (a.u.)
   Center  Symbol    Alpha    Beta     Spin     Total
       1     H     0.40508  0.40508  0.00000  0.18985
       2     C     2.56432  2.56432  0.00000  0.87136
       3     O     4.30349  4.30349  0.00000 -0.60697
       4     F     4.68061  4.68061  0.00000 -0.36121
       5     F     4.68274  4.68274  0.00000 -0.36548
       6     C     3.04060  3.04060  0.00000 -0.08121
       7     C     2.43293  2.43293  0.00000  1.13414
       8    CL     8.50434  8.50434  0.00000 -0.00869
       9     H     0.36779  0.36779  0.00000  0.26442
      10     F     4.67429  4.67429  0.00000 -0.34859
      11     F     4.67558  4.67558  0.00000 -0.35116
      12     F     4.66823  4.66823  0.00000 -0.33646

   Total alpha = 45.00000, Total beta = 45.00000, Total charge = -0.00000
