                              Psi4 1.0.54 Driver

  ==> Input File <==

--------------------------------------------------------------------------
set {
	reference rhf
	basis cc-pvtz
}

set_num_threads( 4 )
memory 2 gb

molecule MOL {
0 1

H	 -1.644067	 -2.687411	 2.038720
O	 -1.578695	 -2.211530	 1.224483
C	 -0.486169	 -1.454166	 1.265975
C	 -0.310616	 -0.658853	 0.000791
O	 0.231143	 -1.435824	 2.205707
C	 0.926581	 0.227233	 0.000178
H	 -1.214711	 -0.074588	 -0.136952
H	 -0.289249	 -1.367269	 -0.821041
C	 2.220156	 -0.582071	 -0.000088
H	 0.899945	 0.878221	 -0.866390
H	 0.900542	 0.878581	 0.866486
C	 3.466689	 0.296012	 -0.000457
H	 2.239073	 -1.234095	 -0.869382
H	 2.239505	 -1.233985	 0.869270
H	 3.493549	 0.935857	 -0.875887
H	 4.368821	 -0.304526	 -0.001199
H	 3.494559	 0.935166	 0.875458

	symmetry c1
}
set optking {
	frozen_dihedral = ("
		7 4 6 10
	")
}

ee,wfn = optimize('scf', return_wfn=True)
oeprop( wfn, 'DIPOLE', 'QUADRUPOLE', 'MULLIKEN_CHARGES')
f=open( 'psi4out.xyz', 'w' )
f.write( "17  " )
f.write( str(ee) + "\n" )
f.write( MOL.save_string_xyz() )
f.close()
--------------------------------------------------------------------------

    Molecular point group: c1
  Charge       = 0
  Multiplicity = 1
  Basis Set: CC-PVTZ
  Basis Set:
  @DF-RHF Final Energy:  -345.04713719984738
    Total Energy =                       -345.0471371998472705
    Molecular point group: c1
  Basis Set: CC-PVTZ
  Basis Set:
  Basis Set: CC-PVTZ
  Basis Set:
  @DF-RHF Final Energy:  -345.04796234065975
    Total Energy =                       -345.0479623406595806
  Basis Set: CC-PVTZ
  Basis Set:
  Basis Set: CC-PVTZ
  Basis Set:
  @DF-RHF Final Energy:  -345.04767917711291
    Total Energy =                       -345.0476791771130820
  Basis Set: CC-PVTZ
  Basis Set:
  Basis Set: CC-PVTZ
  Basis Set:
  @DF-RHF Final Energy:  -345.04811519089628
    Total Energy =                       -345.0481151908966240
  Basis Set: CC-PVTZ
  Basis Set:
  Basis Set: CC-PVTZ
  Basis Set:
  @DF-RHF Final Energy:  -345.04825363635410
    Total Energy =                       -345.0482536363540476
  Basis Set: CC-PVTZ
  Basis Set:
  Basis Set: CC-PVTZ
  Basis Set:
  @DF-RHF Final Energy:  -345.04827740629599
    Total Energy =                       -345.0482774062958242
  Basis Set: CC-PVTZ
  Basis Set:
  Basis Set: CC-PVTZ
  Basis Set:
  @DF-RHF Final Energy:  -345.04828134285503
    Total Energy =                       -345.0482813428551481
  Basis Set: CC-PVTZ
  Basis Set:
  Charge       = 0
  Multiplicity = 1
  Basis Set: CC-PVTZ
  Basis Set:

    Orbital Energies (a.u.)
    -----------------------

    Doubly Occupied:

       1A    -20.605124     2A    -20.540997     3A    -11.374525
       4A    -11.239811     5A    -11.222003     6A    -11.214749
       7A    -11.207245     8A     -1.478659     9A     -1.369857
      10A     -1.090894    11A     -1.017027    12A     -0.913428
      13A     -0.828928    14A     -0.785439    15A     -0.706127
      16A     -0.695457    17A     -0.659251    18A     -0.629607
      19A     -0.589253    20A     -0.584002    21A     -0.579398
      22A     -0.531637    23A     -0.519740    24A     -0.489251
      25A     -0.479267    26A     -0.471618    27A     -0.467627
      28A     -0.444614

  @DF-RHF Final Energy:  -345.04828156213466

   => Energetics <=

    Nuclear Repulsion Energy =            311.1306516300953717
    One-Electron Energy =               -1086.8868030583928430
    Two-Electron Energy =                 430.7078698661632643
    DFT Exchange-Correlation Energy =       0.0000000000000000
    Empirical Dispersion Energy =           0.0000000000000000
    PCM Polarization Energy =               0.0000000000000000
    EFP Energy =                            0.0000000000000000
    Total Energy =                       -345.0482815621342070
    Molecular point group: c1
  Basis Set: CC-PVTZ
  Basis Set:

  -Total Gradient:
     Atom            X                  Y                   Z
    ------   -----------------  -----------------  -----------------
       1        0.000021249028     0.000020512496    -0.000007719554
       2       -0.000012016837     0.000006097106    -0.000031974414
       3        0.000021132145    -0.000014082756     0.000074520511
       4        0.000153738241    -0.000207737708    -0.000870595389
       5       -0.000014934659     0.000007470724    -0.000056047691
       6       -0.000407905858     0.000561913125     0.000587505019
       7       -0.000076975873     0.000078902479     0.000647852651
       8       -0.000006829302     0.000002263141     0.000001736037
       9        0.000006366788    -0.000000082931    -0.000000838591
      10        0.000308380812    -0.000463724705    -0.000336465763
      11        0.000001429485     0.000006195052    -0.000000890200
      12        0.000003358082    -0.000006562186     0.000006776590
      13        0.000001198363     0.000001234714    -0.000008289420
      14       -0.000004471307     0.000003824811    -0.000007876818
      15        0.000002362448    -0.000002838081     0.000000804230
      16        0.000003150285     0.000001406001     0.000003969268
      17        0.000000768154     0.000005208720    -0.000002466467

  **** Optimization is complete! (in 8 steps) ****
    Final optimized geometry and variables:
    Molecular point group: c1

    Geometry (in Angstrom), charge = 0, multiplicity = 1:

    H           -2.230135346766    -1.895574731848     1.289538641096
    O           -2.087586669134    -1.488092612384     0.448380425854
    C           -1.147947176723    -0.557784756530     0.586253882413
    C           -0.898172218497     0.180062146421    -0.703276144758
    O           -0.619856101602    -0.347413635990     1.623452202553
    C            0.360103906837     1.040170927523    -0.701317566144
    H           -1.780325835888     0.794297799957    -0.858623395462
    H           -0.888816519489    -0.543074171310    -1.509934649900
    C            1.659680854930     0.237744177675    -0.707650450392
    H            0.333378490727     1.671115280483    -1.584490530212
    H            0.341300950974     1.697904261370     0.159361598204
    C            2.897313409020     1.128324841548    -0.723327792369
    H            1.673308547712    -0.412187473350    -1.579221378248
    H            1.692351704003    -0.405755833223     0.163521252106
    H            2.909528720158     1.770014498450    -1.598386399727
    H            3.804784082164     0.536021325946    -0.735218095828
    H            2.929454285607     1.764846790018     0.154210582755

  Mulliken Charges: (a.u.)
   Center  Symbol    Alpha    Beta     Spin     Total
       1     H     0.38207  0.38207  0.00000  0.23586
       2     O     4.15940  4.15940  0.00000 -0.31879
       3     C     2.80349  2.80349  0.00000  0.39301
       4     C     3.11746  3.11746  0.00000 -0.23493
       5     O     4.19388  4.19388  0.00000 -0.38776
       6     C     3.08897  3.08897  0.00000 -0.17793
       7     H     0.43175  0.43175  0.00000  0.13650
       8     H     0.43585  0.43585  0.00000  0.12830
       9     C     3.08647  3.08647  0.00000 -0.17294
      10     H     0.44668  0.44668  0.00000  0.10664
      11     H     0.44528  0.44528  0.00000  0.10943
      12     C     3.15083  3.15083  0.00000 -0.30167
      13     H     0.45670  0.45670  0.00000  0.08660
      14     H     0.44450  0.44450  0.00000  0.11099
      15     H     0.45660  0.45660  0.00000  0.08681
      16     H     0.44794  0.44794  0.00000  0.10413
      17     H     0.45213  0.45213  0.00000  0.09573

   Total alpha = 28.00000, Total beta = 28.00000, Total charge =  0.00000

*** Psi4 exiting successfully. Buy a developer a beer!
