  ==> Input File <==

--------------------------------------------------------------------------
set {
	reference rhf
	basis cc-pvtz
}

set_num_threads( 4 )
memory 2 gb

molecule MOL {
0 1

O	 1.067959	 1.538514	 0.448044
C	 0.689657	 0.806633	 1.297925
C	 -0.592463	 0.015098	 1.264729
O	 1.362780	 0.584583	 2.415054
C	 -1.413045	 0.229353	 0.001137
H	 -0.327546	 -1.029836	 1.388880
H	 -1.158151	 0.283501	 2.150967
C	 -2.702562	 -0.586401	 0.000228
H	 -0.813272	 -0.030849	 -0.863795
H	 -1.645235	 1.283515	 -0.100714
C	 -3.953810	 0.284959	 -0.000782
H	 -2.717793	 -1.238567	 -0.869075
H	 -2.719108	 -1.238472	 0.869576
H	 -3.983727	 0.924403	 -0.876454
H	 -4.852989	 -0.320147	 -0.001515
H	 -3.985140	 0.924399	 0.874841
C	 2.590237	 1.265531	 2.579301
H	 3.281873	 0.999765	 1.793657
H	 2.977049	 0.955122	 3.536323
H	 2.437784	 2.334572	 2.567769

	symmetry c1
}
set optking {
	frozen_dihedral = ("
		9 5 8 12
	")
}

ee = optimize('scf')
oeprop('DIPOLE', 'QUADRUPOLE', 'MULLIKEN_CHARGES')
f=open( 'psi4out.xyz', 'w' )
f.write( "20  " )
f.write( str(ee) + "\n" )
f.write( MOL.save_string_xyz() )
f.close()
--------------------------------------------------------------------------

    Molecular point group: c1
  Charge       = 0
  Multiplicity = 1
  Basis Set: CC-PVTZ
  Basis Set:
  @DF-RHF Final Energy:  -384.07718002564627
    Total Energy =                       -384.0771800256462711
    Molecular point group: c1
  Basis Set: CC-PVTZ
  Basis Set:
  Basis Set: CC-PVTZ
  Basis Set:
  @DF-RHF Final Energy:  -384.07744685129740
    Total Energy =                       -384.0774468512975091
  Basis Set: CC-PVTZ
  Basis Set:
  Basis Set: CC-PVTZ
  Basis Set:
  @DF-RHF Final Energy:  -384.07750756722493
    Total Energy =                       -384.0775075672248704
  Basis Set: CC-PVTZ
  Basis Set:
  Basis Set: CC-PVTZ
  Basis Set:
  @DF-RHF Final Energy:  -384.07728108974487
    Total Energy =                       -384.0772810897451564
  Basis Set: CC-PVTZ
  Basis Set:
  Basis Set: CC-PVTZ
  Basis Set:
  @DF-RHF Final Energy:  -384.07751821163066
    Total Energy =                       -384.0775182116304904
  Basis Set: CC-PVTZ
  Basis Set:
  Charge       = 0
  Multiplicity = 1
  Basis Set: CC-PVTZ
  Basis Set:

    Orbital Energies (a.u.)
    -----------------------

    Doubly Occupied:

       1A    -20.596403     2A    -20.534328     3A    -11.364553
       4A    -11.278570     5A    -11.234553     6A    -11.218118
       7A    -11.217028     8A    -11.209980     9A     -1.472306
      10A     -1.365899    11A     -1.087802    12A     -1.024487
      13A     -0.969772    14A     -0.887662    15A     -0.804915
      16A     -0.769374    17A     -0.702069    18A     -0.685880
      19A     -0.676396    20A     -0.635144    21A     -0.606417
      22A     -0.597439    23A     -0.576036    24A     -0.545483
      25A     -0.527975    26A     -0.523805    27A     -0.514215
      28A     -0.475848    29A     -0.474295    30A     -0.466203
      31A     -0.458090    32A     -0.439448

  @DF-RHF Final Energy:  -384.07751850655899

   => Energetics <=

    Nuclear Repulsion Energy =            382.6871380192504262
    One-Electron Energy =               -1281.6483242497756692
    Two-Electron Energy =                 514.8836677239660276
    DFT Exchange-Correlation Energy =       0.0000000000000000
    Empirical Dispersion Energy =           0.0000000000000000
    PCM Polarization Energy =               0.0000000000000000
    EFP Energy =                            0.0000000000000000
    Total Energy =                       -384.0775185065592723
    Molecular point group: c1
  Basis Set: CC-PVTZ
  Basis Set:

  -Total Gradient:
     Atom            X                  Y                   Z
    ------   -----------------  -----------------  -----------------
       1        0.000029744502    -0.000001407149     0.000027090420
       2       -0.000023750681    -0.000019376919    -0.000015392439
       3       -0.000012896981     0.000019283549     0.000006326932
       4        0.000015939327     0.000030908619    -0.000019281647
       5        0.000528558629    -0.000927655514     0.000681444885
       6       -0.000008589275    -0.000007198080    -0.000004559899
       7       -0.000001804392    -0.000008704745    -0.000009345822
       8       -0.000537139489     0.000920634023    -0.000688008453
       9       -0.000379909338     0.000630827768    -0.000455738146
      10        0.000009622731    -0.000009381019     0.000005806166
      11       -0.000015048898     0.000004324260     0.000002168599
      12        0.000363323974    -0.000624460265     0.000462562401
      13       -0.000004246361     0.000009799315    -0.000003611727
      14        0.000013751503     0.000000251296     0.000003124755
      15       -0.000003158401    -0.000009428055    -0.000003820344
      16        0.000007423524    -0.000008841284    -0.000001459057
      17        0.000010935924    -0.000005565223     0.000011641422
      18        0.000000391482     0.000000839844     0.000000328338
      19        0.000007937133     0.000005306434     0.000000883436
      20       -0.000001084909    -0.000000156856    -0.000000159823

  **** Optimization is complete! (in 6 steps) ****
    Final optimized geometry and variables:
    Molecular point group: c1

    Geometry (in Angstrom), charge = 0, multiplicity = 1:

    O            1.407762955473     1.010628895613    -0.564470413000
    C            1.032759513491     0.272938847512     0.281896939985
    C           -0.244414095534    -0.526716300944     0.243656205645
    O            1.705654521959     0.050784409360     1.399217293639
    C           -1.063450509128    -0.317313689553    -1.023028218330
    H            0.025849874368    -1.570043551069     0.368114744466
    H           -0.815619165415    -0.262243256762     1.127787879625
    C           -2.379668677620    -1.122234573868    -1.024060455601
    H           -0.459121339643    -0.577216463024    -1.882398547554
    H           -1.276175169930     0.739379839466    -1.128978821850
    C           -3.627892834583    -0.244789576712    -1.013675383109
    H           -2.408999305153    -1.774028043254    -1.889904350668
    H           -2.408914428490    -1.782006961112    -0.162187369240
    H           -3.663352660558     0.391862220375    -1.890937295738
    H           -4.530502529912    -0.845118677695    -1.001428135277
    H           -3.645831981737     0.398871020615    -0.140054861302
    C            2.928484137480     0.738839332296     1.568078945972
    H            3.623064430093     0.480468698946     0.782559692277
    H            3.315788106540     0.427308398879     2.524543761336
    H            2.769295446849     1.806940791340     1.560319174302

  Mulliken Charges: (a.u.)
   Center  Symbol    Alpha    Beta     Spin     Total
       1     O     4.19665  4.19665  0.00000 -0.39331
       2     C     2.80823  2.80823  0.00000  0.38354
       3     C     3.09923  3.09923  0.00000 -0.19846
       4     O     4.14701  4.14701  0.00000 -0.29402
       5     C     3.09021  3.09021  0.00000 -0.18042
       6     H     0.43908  0.43908  0.00000  0.12184
       7     H     0.43956  0.43956  0.00000  0.12087
       8     C     3.09158  3.09158  0.00000 -0.18316
       9     H     0.44167  0.44167  0.00000  0.11665
      10     H     0.44672  0.44672  0.00000  0.10656
      11     C     3.14621  3.14621  0.00000 -0.29241
      12     H     0.44782  0.44782  0.00000  0.10437
      13     H     0.45641  0.45641  0.00000  0.08717
      14     H     0.45266  0.45266  0.00000  0.09469
      15     H     0.44949  0.44949  0.00000  0.10102
      16     H     0.45583  0.45583  0.00000  0.08833
      17     C     3.03769  3.03769  0.00000 -0.07537
      18     H     0.45433  0.45433  0.00000  0.09134
      19     H     0.44529  0.44529  0.00000  0.10941
      20     H     0.45432  0.45432  0.00000  0.09136

   Total alpha = 32.00000, Total beta = 32.00000, Total charge = -0.00000
