                              Psi4 1.0.54 Driver

  ==> Input File <==

--------------------------------------------------------------------------
set {
	reference rhf
	basis cc-pvtz
}

set_num_threads( 4 )
memory 2 gb

molecule MOL {
0 1

H	 -0.877875	 -1.770565	 0.961957
C	 -1.754358	 -1.315425	 0.506425
O	 -1.401606	 -0.295183	 -0.366624
H	 -2.281854	 -2.068382	 -0.060754
H	 -2.406412	 -0.955183	 1.300110
C	 -0.718530	 0.758693	 0.228682
C	 0.718529	 0.758687	 -0.228709
H	 -1.176498	 1.708665	 -0.046615
H	 -0.748705	 0.673525	 1.312779
O	 1.401606	 -0.295166	 0.366636
H	 0.748705	 0.673477	 -1.312803
H	 1.176496	 1.708671	 0.046552
C	 2.714315	 -0.441627	 -0.061017
H	 2.765292	 -0.641548	 -1.128869
H	 3.305661	 0.447341	 0.150952
H	 3.143725	 -1.278506	 0.470147

	symmetry c1
}
set optking {
	frozen_dihedral = ("
		2 3 6 7
	")
}

ee,wfn = optimize('scf', return_wfn=True)
oeprop( wfn, 'DIPOLE', 'QUADRUPOLE', 'MULLIKEN_CHARGES')
f=open( 'psi4out.xyz', 'w' )
f.write( "16  " )
f.write( str(ee) + "\n" )
f.write( MOL.save_string_xyz() )
f.close()
--------------------------------------------------------------------------

    Molecular point group: c1
  Charge       = 0
  Multiplicity = 1
  Basis Set: CC-PVTZ
  Basis Set:
  @DF-RHF Final Energy:  -307.09569790304187
    Total Energy =                       -307.0956979030416392
    Molecular point group: c1
  Basis Set: CC-PVTZ
  Basis Set:
  Basis Set: CC-PVTZ
  Basis Set:
  @DF-RHF Final Energy:  -307.09633503734602
    Total Energy =                       -307.0963350373460798
  Basis Set: CC-PVTZ
  Basis Set:
  Basis Set: CC-PVTZ
  Basis Set:
  @DF-RHF Final Energy:  -307.09642366369718
    Total Energy =                       -307.0964236636971236
  Basis Set: CC-PVTZ
  Basis Set:
  Basis Set: CC-PVTZ
  Basis Set:
  @DF-RHF Final Energy:  -307.09642816499013
    Total Energy =                       -307.0964281649902432
  Basis Set: CC-PVTZ
  Basis Set:
  Charge       = 0
  Multiplicity = 1
  Basis Set: CC-PVTZ
  Basis Set:

    Orbital Energies (a.u.)
    -----------------------

    Doubly Occupied:

       1A    -20.551916     2A    -20.542918     3A    -11.266846
       4A    -11.265979     5A    -11.264656     6A    -11.255817
       7A     -1.391125     8A     -1.370075     9A     -1.030030
      10A     -0.941148    11A     -0.890309    12A     -0.822746
      13A     -0.685589    14A     -0.680903    15A     -0.659895
      16A     -0.634650    17A     -0.626750    18A     -0.602513
      19A     -0.548951    20A     -0.533744    21A     -0.517228
      22A     -0.478594    23A     -0.468499    24A     -0.422499
      25A     -0.407727

  @DF-RHF Final Energy:  -307.09642845154769

   => Energetics <=

    Nuclear Repulsion Energy =            262.3837495541009730
    One-Electron Energy =                -939.2381451410553836
    Two-Electron Energy =                 369.7579671354063748
    DFT Exchange-Correlation Energy =       0.0000000000000000
    Empirical Dispersion Energy =           0.0000000000000000
    PCM Polarization Energy =               0.0000000000000000
    EFP Energy =                            0.0000000000000000
    Total Energy =                       -307.0964284515480358
    Molecular point group: c1
  Basis Set: CC-PVTZ
  Basis Set:

  -Total Gradient:
     Atom            X                  Y                   Z
    ------   -----------------  -----------------  -----------------
       1       -0.000005288872    -0.000005473419     0.000000522201
       2       -0.000779283394     0.000497406310     0.000166533464
       3        0.001090020680    -0.000476746411    -0.000529129193
       4        0.000002924590     0.000005199643     0.000000459941
       5       -0.000009051645    -0.000007980433     0.000008308478
       6       -0.000070182544    -0.000495157194     0.001013385210
       7       -0.000226021277     0.000516671476    -0.000673109839
       8        0.000002799193    -0.000007588474    -0.000006766472
       9       -0.000000111790    -0.000010075711     0.000003333522
      10       -0.000018630694    -0.000002838372    -0.000009693266
      11        0.000005287310    -0.000010593982     0.000013298149
      12        0.000006525929     0.000003274215     0.000004790610
      13       -0.000001318347    -0.000006694523     0.000008747538
      14       -0.000006116702     0.000003520339     0.000003649268
      15       -0.000001408734     0.000000534787    -0.000002552387
      16        0.000009856301    -0.000003458252    -0.000001777224

  **** Optimization is complete! (in 5 steps) ****
    Final optimized geometry and variables:
    Molecular point group: c1

    Geometry (in Angstrom), charge = 0, multiplicity = 1:

    H           -1.117267721524    -1.636514172597     0.878193809440
    C           -1.968990509570    -1.166512737030     0.398919431034
    O           -1.574549540756    -0.136144912242    -0.451982850654
    H           -2.484305287017    -1.902277310811    -0.201904070461
    H           -2.651262867017    -0.807559216189     1.166049641235
    C           -0.875207194248     0.916609961282     0.137918811191
    C            0.575359678995     0.928739709371    -0.284018299735
    H           -1.333493598539     1.847365681085    -0.180894970931
    H           -0.935178047662     0.869761751700     1.220735435883
    O            1.237695738628    -0.152695323781     0.290686815425
    H            0.632163741701     0.877265138174    -1.369047859550
    H            1.033591674303     1.865894279806     0.033578906366
    C            2.558602024730    -0.299535654324    -0.113430691572
    H            2.630165837093    -0.462283651156    -1.186197494193
    H            3.153240482254     0.575066372045     0.142476581427
    H            2.968289769360    -1.158890072311     0.397211218496

  Mulliken Charges: (a.u.)
   Center  Symbol    Alpha    Beta     Spin     Total
       1     H     0.46343  0.46343  0.00000  0.07313
       2     C     3.03076  3.03076  0.00000 -0.06152
       3     O     4.18309  4.18309  0.00000 -0.36618
       4     H     0.45088  0.45088  0.00000  0.09823
       5     H     0.47202  0.47202  0.00000  0.05597
       6     C     2.97235  2.97235  0.00000  0.05530
       7     C     2.96576  2.96576  0.00000  0.06847
       8     H     0.45421  0.45421  0.00000  0.09159
       9     H     0.46723  0.46723  0.00000  0.06553
      10     O     4.17482  4.17482  0.00000 -0.34964
      11     H     0.47167  0.47167  0.00000  0.05665
      12     H     0.47347  0.47347  0.00000  0.05306
      13     C     3.03164  3.03164  0.00000 -0.06327
      14     H     0.46949  0.46949  0.00000  0.06102
      15     H     0.47163  0.47163  0.00000  0.05673
      16     H     0.44754  0.44754  0.00000  0.10491

   Total alpha = 25.00000, Total beta = 25.00000, Total charge =  0.00000

*** Psi4 exiting successfully. Buy a developer a beer!
