  ==> Input File <==

--------------------------------------------------------------------------
set {
	reference rhf
	basis cc-pvtz
}

set_num_threads( 4 )
memory 2 gb

molecule MOL {
0 1

H	 -2.362939	 -1.309000	 -0.383250
C	 -1.359344	 -1.272457	 0.020748
C	 -0.684082	 0.000127	 -0.464918
H	 -0.825835	 -2.151141	 -0.318537
H	 -1.416276	 -1.292399	 1.099455
C	 -1.359089	 1.272668	 0.021259
N	 0.742439	 -0.000109	 0.007333
H	 -0.596914	 0.000345	 -1.538146
H	 -2.362696	 1.309620	 -0.382686
H	 -0.825392	 2.151374	 -0.317674
H	 -1.415983	 1.292181	 1.099973
O	 0.933433	 -0.183106	 1.162183
O	 1.587164	 0.182552	 -0.804680

	symmetry c1
}
set optking {
	frozen_dihedral = ("
		12 7 3 8
	")
}

ee = optimize('scf')
oeprop('DIPOLE', 'QUADRUPOLE', 'MULLIKEN_CHARGES')
f=open( 'psi4out.xyz', 'w' )
f.write( "13  " )
f.write( str(ee) + "\n" )
f.write( MOL.save_string_xyz() )
f.close()
--------------------------------------------------------------------------

    Molecular point group: c1
  Charge       = 0
  Multiplicity = 1
  Basis Set: CC-PVTZ
  Basis Set:
  @DF-RHF Final Energy:  -321.86449967019087
    Total Energy =                       -321.8644996701906393
    Molecular point group: c1
  Basis Set: CC-PVTZ
  Basis Set:
  Basis Set: CC-PVTZ
  Basis Set:
  @DF-RHF Final Energy:  -321.86255930437613
    Total Energy =                       -321.8625593043761910
  Basis Set: CC-PVTZ
  Basis Set:
  Basis Set: CC-PVTZ
  Basis Set:
  @DF-RHF Final Energy:  -321.86453795509010
    Total Energy =                       -321.8645379550898724
  Basis Set: CC-PVTZ
  Basis Set:
  Basis Set: CC-PVTZ
  Basis Set:
  @DF-RHF Final Energy:  -321.86457422578565
    Total Energy =                       -321.8645742257854749
  Basis Set: CC-PVTZ
  Basis Set:
  Charge       = 0
  Multiplicity = 1
  Basis Set: CC-PVTZ
  Basis Set:

    Orbital Energies (a.u.)
    -----------------------

    Doubly Occupied:

       1A    -20.590170     2A    -20.587881     3A    -15.832580
       4A    -11.304238     5A    -11.244572     6A    -11.241721
       7A     -1.633900     8A     -1.418104     9A     -1.142633
      10A     -0.974234    11A     -0.957253    12A     -0.816607
      13A     -0.751796    14A     -0.732900    15A     -0.726557
      16A     -0.650480    17A     -0.595209    18A     -0.588602
      19A     -0.570940    20A     -0.529884    21A     -0.522772
      22A     -0.485561    23A     -0.469731    24A     -0.452235

  @DF-RHF Final Energy:  -321.86457450045987

   => Energetics <=

    Nuclear Repulsion Energy =            257.3255604305936686
    One-Electron Energy =                -948.7391479556206377
    Two-Electron Energy =                 369.5490130245673299
    DFT Exchange-Correlation Energy =       0.0000000000000000
    Empirical Dispersion Energy =           0.0000000000000000
    PCM Polarization Energy =               0.0000000000000000
    EFP Energy =                            0.0000000000000000
    Total Energy =                       -321.8645745004596392
    Molecular point group: c1
  Basis Set: CC-PVTZ
  Basis Set:

  -Total Gradient:
     Atom            X                  Y                   Z
    ------   -----------------  -----------------  -----------------
       1       -0.000000715932    -0.000004035410     0.000001726796
       2       -0.000023065157    -0.000024884815    -0.000011263073
       3        0.000008781821     0.000319764771     0.000035970013
       4        0.000001068013    -0.000000805633    -0.000004116505
       5        0.000002438439     0.000010469936    -0.000002338007
       6       -0.000049288454    -0.000025563291    -0.000034979834
       7       -0.000189133744     0.000299962608     0.000106658482
       8       -0.000019175713    -0.000326173984     0.000026360559
       9       -0.000023856547     0.000028561395     0.000006248149
      10        0.000000362544     0.000007421513     0.000001685319
      11        0.000003668324    -0.000009814232    -0.000018905104
      12        0.000140152601    -0.000273347092    -0.000212385880
      13        0.000148763807    -0.000001555766     0.000105339084

  **** Optimization is complete! (in 5 steps) ****
    Final optimized geometry and variables:
    Molecular point group: c1

    Geometry (in Angstrom), charge = 0, multiplicity = 1:

    H           -2.366527045428    -1.315092050498    -0.396418996639
    C           -1.367577000522    -1.281719518637     0.019774309764
    C           -0.684115968730    -0.014850485594    -0.464424170805
    H           -0.834375086841    -2.164248164960    -0.309702754120
    H           -1.436794999025    -1.299539091848     1.097282340787
    C           -1.352023632311     1.263421585847     0.021155626632
    N            0.742790003393     0.000110414408     0.007511389005
    H           -0.596726680160    -0.012160016860    -1.537716571139
    H           -2.359319006872     1.303130661419    -0.372755566004
    H           -0.817107805884     2.137912113476    -0.325865233678
    H           -1.400054180609     1.285576066299     1.100919543143
    O            0.941360752015    -0.182022562825     1.162069483255
    O            1.580123872321     0.210854192488    -0.804028850504

  Mulliken Charges: (a.u.)
   Center  Symbol    Alpha    Beta     Spin     Total
       1     H     0.44958  0.44958  0.00000  0.10084
       2     C     3.14472  3.14472  0.00000 -0.28944
       3     C     3.00760  3.00760  0.00000 -0.01521
       4     H     0.44127  0.44127  0.00000  0.11745
       5     H     0.43810  0.43810  0.00000  0.12379
       6     C     3.14360  3.14360  0.00000 -0.28719
       7     N     3.27529  3.27529  0.00000  0.44942
       8     H     0.42481  0.42481  0.00000  0.15038
       9     H     0.44866  0.44866  0.00000  0.10269
      10     H     0.43964  0.43964  0.00000  0.12072
      11     H     0.43999  0.43999  0.00000  0.12003
      12     O     4.17740  4.17740  0.00000 -0.35480
      13     O     4.16934  4.16934  0.00000 -0.33868

   Total alpha = 24.00000, Total beta = 24.00000, Total charge = -0.00000
