                              Psi4 1.0.54 Driver

  ==> Input File <==

--------------------------------------------------------------------------
set {
	reference rhf
	basis cc-pvtz
}

set_num_threads( 4 )
memory 2 gb

molecule MOL {
0 1

H	 -2.266619	 1.169943	 0.000098
O	 -1.438073	 1.611259	 0.000041
C	 -0.408657	 0.734701	 0.000005
C	 -0.720670	 -0.595037	 -0.214129
C	 0.906286	 1.136411	 0.204130
H	 -1.747117	 -0.864818	 -0.367605
C	 0.279729	 -1.543721	 -0.227180
C	 1.890930	 0.161901	 0.185812
C	 1.245135	 2.587909	 0.437658
H	 0.029992	 -2.574146	 -0.394017
C	 1.594376	 -1.169593	 -0.026773
H	 2.912182	 0.456218	 0.341983
H	 0.755489	 2.978371	 1.325411
H	 2.309277	 2.713886	 0.576119
H	 0.952966	 3.210418	 -0.403440
H	 2.377817	 -1.902063	 -0.035583

	symmetry c1
}
set optking {
	frozen_dihedral = ("
		4 3 2 1
	")
}

ee,wfn = optimize('scf', return_wfn=True)
oeprop( wfn, 'DIPOLE', 'QUADRUPOLE', 'MULLIKEN_CHARGES')
f=open( 'psi4out.xyz', 'w' )
f.write( "16  " )
f.write( str(ee) + "\n" )
f.write( MOL.save_string_xyz() )
f.close()
--------------------------------------------------------------------------

    Molecular point group: c1
  Charge       = 0
  Multiplicity = 1
  Basis Set: CC-PVTZ
  Basis Set:
  @DF-RHF Final Energy:  -344.71785090397111
    Total Energy =                       -344.7178509039709979
    Molecular point group: c1
  Basis Set: CC-PVTZ
  Basis Set:
  Basis Set: CC-PVTZ
  Basis Set:
  @DF-RHF Final Energy:  -344.72002586892535
    Total Energy =                       -344.7200258689257453
  Basis Set: CC-PVTZ
  Basis Set:
  Basis Set: CC-PVTZ
  Basis Set:
  @DF-RHF Final Energy:  -344.72024755312799
    Total Energy =                       -344.7202475531280470
  Basis Set: CC-PVTZ
  Basis Set:
  Basis Set: CC-PVTZ
  Basis Set:
  @DF-RHF Final Energy:  -344.72026756488867
    Total Energy =                       -344.7202675648887293
  Basis Set: CC-PVTZ
  Basis Set:
  Basis Set: CC-PVTZ
  Basis Set:
  @DF-RHF Final Energy:  -344.72027248724550
    Total Energy =                       -344.7202724872453246
  Basis Set: CC-PVTZ
  Basis Set:
  Charge       = 0
  Multiplicity = 1
  Basis Set: CC-PVTZ
  Basis Set:

    Orbital Energies (a.u.)
    -----------------------

    Doubly Occupied:

       1A    -20.583093     2A    -11.291469     3A    -11.228930
       4A    -11.228756     5A    -11.225931     6A    -11.223621
       7A    -11.216778     8A    -11.212866     9A     -1.413215
      10A     -1.152864    11A     -1.047515    12A     -1.006248
      13A     -0.932001    14A     -0.848768    15A     -0.802498
      16A     -0.735831    17A     -0.675805    18A     -0.653730
      19A     -0.607522    20A     -0.601319    21A     -0.580654
      22A     -0.561078    23A     -0.551865    24A     -0.541857
      25A     -0.502355    26A     -0.483660    27A     -0.478114
      28A     -0.333821    29A     -0.308611

  @DF-RHF Final Energy:  -344.72027258322242

   => Energetics <=

    Nuclear Repulsion Energy =            351.0214912230339337
    One-Electron Energy =               -1163.4219701065703703
    Two-Electron Energy =                 467.6802063003138983
    DFT Exchange-Correlation Energy =       0.0000000000000000
    Empirical Dispersion Energy =           0.0000000000000000
    PCM Polarization Energy =               0.0000000000000000
    EFP Energy =                            0.0000000000000000
    Total Energy =                       -344.7202725832224814
    Molecular point group: c1
  Basis Set: CC-PVTZ
  Basis Set:

  -Total Gradient:
     Atom            X                  Y                   Z
    ------   -----------------  -----------------  -----------------
       1        0.000003732885    -0.000010646568     0.000956753177
       2        0.000075317036     0.000037211622    -0.001537718077
       3       -0.000174169769    -0.000107421718     0.001231853650
       4        0.000093715097     0.000086057895    -0.000691555481
       5        0.000003835287    -0.000015345693     0.000029229053
       6       -0.000002689652    -0.000000509302     0.000002572909
       7       -0.000017993491    -0.000004206948     0.000009533129
       8       -0.000004131605    -0.000010108618     0.000009946900
       9        0.000008557818     0.000005280314    -0.000004537272
      10        0.000005594831     0.000001471594     0.000000185788
      11        0.000018591168     0.000019366072    -0.000003799434
      12       -0.000000677736     0.000004992798    -0.000002831001
      13       -0.000001426521     0.000001085159     0.000001129925
      14       -0.000003292050    -0.000000607823     0.000000049463
      15       -0.000001496628     0.000000275311     0.000000625787
      16       -0.000003466674    -0.000006894097    -0.000001438516

  **** Optimization is complete! (in 6 steps) ****
    Final optimized geometry and variables:
    Molecular point group: c1

    Geometry (in Angstrom), charge = 0, multiplicity = 1:

    H           -2.600452427353     0.859220713813    -0.038739630156
    O           -1.742238725344     1.242198322135    -0.035132631818
    C           -0.787792176347     0.283074015552    -0.046716311296
    C           -1.093602056317    -1.044423699762    -0.265027142488
    C            0.527738483359     0.693403472613     0.153309597823
    H           -2.115832758877    -1.336934051866    -0.425394651465
    C           -0.087326136894    -1.994401854942    -0.278690836156
    C            1.511768007969    -0.275023147024     0.130536152705
    C            0.842273662010     2.148091285554     0.383643163263
    H           -0.334341946193    -3.025214264273    -0.446677218864
    C            1.220359254369    -1.613262046682    -0.081377139231
    H            2.532441290002     0.022515495867     0.283844149039
    H            0.325414878339     2.525754736482     1.257665338993
    H            1.904921297813     2.289521205006     0.527552727910
    H            0.528039037633     2.754219253996    -0.457627330402
    H            2.008148513551    -2.341113414596    -0.091575572837

  Mulliken Charges: (a.u.)
   Center  Symbol    Alpha    Beta     Spin     Total
       1     H     0.38987  0.38987  0.00000  0.22026
       2     O     4.17158  4.17158  0.00000 -0.34316
       3     C     2.86322  2.86322  0.00000  0.27356
       4     C     3.13292  3.13292  0.00000 -0.26583
       5     C     2.99658  2.99658  0.00000  0.00685
       6     H     0.43683  0.43683  0.00000  0.12633
       7     C     3.07198  3.07198  0.00000 -0.14395
       8     C     3.08212  3.08212  0.00000 -0.16424
       9     C     3.14391  3.14391  0.00000 -0.28782
      10     H     0.42262  0.42262  0.00000  0.15476
      11     C     3.09099  3.09099  0.00000 -0.18198
      12     H     0.42519  0.42519  0.00000  0.14962
      13     H     0.44686  0.44686  0.00000  0.10627
      14     H     0.45416  0.45416  0.00000  0.09168
      15     H     0.44624  0.44624  0.00000  0.10752
      16     H     0.42493  0.42493  0.00000  0.15014

   Total alpha = 29.00000, Total beta = 29.00000, Total charge =  0.00000

*** Psi4 exiting successfully. Buy a developer a beer!
