  ==> Input File <==

--------------------------------------------------------------------------
set {
	reference rhf
	basis 6-31G*
}

set_num_threads( 4 )
memory 2 gb

molecule MOL {
0 1

H	 2.658252	 -2.562288	 -3.584561
C	 2.708666	 -1.495316	 -3.390779
C	 1.467349	 -1.010483	 -2.642951
H	 3.609223	 -1.306086	 -2.814124
H	 2.815121	 -0.990064	 -4.346910
C	 1.502998	 0.492891	 -2.359386
H	 1.377937	 -1.553053	 -1.707417
H	 0.580114	 -1.245034	 -3.229033
C	 0.264751	 1.010835	 -1.627441
H	 2.383856	 0.731801	 -1.774019
H	 1.593045	 1.029965	 -3.300920
C	 0.169600	 0.576866	 -0.172154
H	 0.267130	 2.099762	 -1.626526
H	 -0.644755	 0.719463	 -2.148093
C	 -1.181045	 0.701995	 0.511084
O	 1.121635	 0.169317	 0.422773
C	 -2.285934	 -0.139295	 -0.145128
H	 -1.449051	 1.751551	 0.493206
H	 -1.071135	 0.403303	 1.551943
C	 -3.651768	 0.085446	 0.506485
H	 -2.346596	 0.110469	 -1.202272
H	 -2.034737	 -1.195320	 -0.088721
C	 -4.759797	 -0.746382	 -0.137905
H	 -3.908762	 1.140117	 0.445781
H	 -3.588286	 -0.154158	 1.565709
H	 -4.868882	 -0.505166	 -1.191300
H	 -4.548009	 -1.809175	 -0.062213
H	 -5.715422	 -0.564821	 0.343442

	symmetry c1
}
set optking {
	frozen_dihedral = ("
		16 12 15 17
	")
}

ee = optimize('scf')
oeprop('DIPOLE', 'QUADRUPOLE', 'MULLIKEN_CHARGES')
f=open( 'psi4out.xyz', 'w' )
f.write( "28  " )
f.write( str(ee) + "\n" )
f.write( MOL.save_string_xyz() )
f.close()
--------------------------------------------------------------------------

    Molecular point group: c1
  Charge       = 0
  Multiplicity = 1
  Basis Set: 6-31G*
  Basis Set:
  @DF-RHF Final Energy:  -426.16741778056007
    Total Energy =                       -426.1674177805600721
    Molecular point group: c1
  Basis Set: 6-31G*
  Basis Set:
  Basis Set: 6-31G*
  Basis Set:
  @DF-RHF Final Energy:  -426.16676889596317
    Total Energy =                       -426.1667688959632869
  Basis Set: 6-31G*
  Basis Set:
  Basis Set: 6-31G*
  Basis Set:
  @DF-RHF Final Energy:  -426.16812373962455
    Total Energy =                       -426.1681237396243205
  Basis Set: 6-31G*
  Basis Set:
  Basis Set: 6-31G*
  Basis Set:
  @DF-RHF Final Energy:  -426.16846812578251
    Total Energy =                       -426.1684681257826242
  Basis Set: 6-31G*
  Basis Set:
  @DF-RHF Final Energy:  -426.16849012535988
    Total Energy =                       -426.1684901253598809
  Basis Set: 6-31G*
  Basis Set:
  @DF-RHF Final Energy:  -426.16867690446361
    Total Energy =                       -426.1686769044633820
  Basis Set: 6-31G*
  Basis Set:
  Basis Set: 6-31G*
  Basis Set:
  @DF-RHF Final Energy:  -426.16870167772254
    Total Energy =                       -426.1687016777221970
  Basis Set: 6-31G*
  Basis Set:
  Basis Set: 6-31G*
  Basis Set:
  @DF-RHF Final Energy:  -426.16871533352275
    Total Energy =                       -426.1687153335226412
  Basis Set: 6-31G*
  Basis Set:
  Charge       = 0
  Multiplicity = 1
  Basis Set: 6-31G*
  Basis Set:

    Orbital Energies (a.u.)
    -----------------------

    Doubly Occupied:

       1A    -20.548640     2A    -11.322570     3A    -11.232247
       4A    -11.230108     5A    -11.229152     6A    -11.226099
       7A    -11.216364     8A    -11.215865     9A    -11.210245
      10A    -11.204519    11A     -1.393737    12A     -1.094839
      13A     -1.076633    14A     -1.022369    15A     -0.990305
      16A     -0.907746    17A     -0.872188    18A     -0.808992
      19A     -0.799241    20A     -0.723279    21A     -0.670280
      22A     -0.652274    23A     -0.626798    24A     -0.620779
      25A     -0.608019    26A     -0.588866    27A     -0.576557
      28A     -0.571690    29A     -0.547013    30A     -0.526475
      31A     -0.520951    32A     -0.506660    33A     -0.502627
      34A     -0.484802    35A     -0.476868    36A     -0.474991
      37A     -0.469786    38A     -0.464429    39A     -0.456002
      40A     -0.392522

  @DF-RHF Final Energy:  -426.16871572158948

   => Energetics <=

    Nuclear Repulsion Energy =            533.1468345411731207
    One-Electron Energy =               -1634.5040416423776151
    Two-Electron Energy =                 675.1884913796149021
    DFT Exchange-Correlation Energy =       0.0000000000000000
    Empirical Dispersion Energy =           0.0000000000000000
    PCM Polarization Energy =               0.0000000000000000
    EFP Energy =                            0.0000000000000000
    Total Energy =                       -426.1687157215895922
    Molecular point group: c1
  Basis Set: 6-31G*
  Basis Set:

  -Total Gradient:
     Atom            X                  Y                   Z
    ------   -----------------  -----------------  -----------------
       1        0.000001141676     0.000001482465     0.000010886563
       2       -0.000007251098     0.000009116987     0.000012896861
       3       -0.000030407309    -0.000022574412     0.000070239602
       4        0.000009324498     0.000005534001    -0.000005071875
       5        0.000000714904    -0.000006736573    -0.000003521160
       6       -0.000078939190     0.000040422707     0.000042224149
       7       -0.000006500790     0.000016869894    -0.000035890014
       8        0.000000635468     0.000001596858    -0.000019203930
       9        0.000094710700    -0.000114769876    -0.000020324541
      10        0.000047952063     0.000005327824     0.000009346067
      11        0.000004337157     0.000019849594     0.000009242541
      12       -0.000265273564    -0.000856338429    -0.000600991350
      13        0.000017327357    -0.000021715932    -0.000004094221
      14        0.000032403870     0.000016314820    -0.000001944264
      15        0.000232018272    -0.000164154810     0.000609152663
      16        0.000170832843     0.000844730820     0.000083010064
      17       -0.000158838471     0.000420594789    -0.000354880308
      18        0.000081459137    -0.000078421317     0.000004667310
      19       -0.000122471528    -0.000048783514     0.000079358357
      20        0.000002532459    -0.000075547977     0.000033789692
      21        0.000017341370    -0.000012792689     0.000054523899
      22       -0.000014140786     0.000006157014     0.000018401670
      23       -0.000012904006     0.000043958932    -0.000016287991
      24        0.000025099993    -0.000013784331     0.000014849184
      25       -0.000035166176    -0.000028759220     0.000019198432
      26        0.000001065638    -0.000010183489    -0.000010874032
      27        0.000000832128     0.000007623341     0.000013665430
      28       -0.000007836624     0.000014982523    -0.000012368797

  **** Optimization is complete! (in 9 steps) ****
    Final optimized geometry and variables:
    Molecular point group: c1

    Geometry (in Angstrom), charge = 0, multiplicity = 1:

    H            3.609597146554    -2.328718611780    -2.663445265614
    C            3.520861443435    -1.269327760107    -2.443466155541
    C            2.179585802966    -0.953105037883    -1.783098819231
    H            4.348186152079    -0.996154717118    -1.795099458924
    H            3.638740821525    -0.726569549266    -3.377571698983
    C            2.018371990933     0.535741739164    -1.467571138214
    H            2.083641399730    -1.528299179392    -0.869052567733
    H            1.371958452443    -1.269035585704    -2.441783569314
    C            0.681263834079     0.887322617527    -0.815459724835
    H            2.826207964642     0.859499712683    -0.820103925932
    H            2.106841118773     1.104347298343    -2.390675464253
    C            0.558035504925     0.469128010786     0.641407996113
    H            0.519069196835     1.964334030698    -0.843118187445
    H           -0.141478197066     0.456702077294    -1.380187785594
    C           -0.759225167142     0.749735682324     1.348214784669
    O            1.472347997554    -0.018757363259     1.234951094794
    C           -1.971925519540     0.019237294577     0.752818232587
    H           -0.939458460086     1.823046749943     1.321945813005
    H           -0.622767664253     0.465124723385     2.384614808173
    C           -3.235837827884     0.217588336839     1.592104520282
    H           -2.160777356967     0.368173060968    -0.258441796697
    H           -1.753548334466    -1.044190474241     0.679708372400
    C           -4.456245304080    -0.486696245554     1.000966235888
    H           -3.441687299230     1.281748986048     1.685176185105
    H           -3.058776889286    -0.149380275624     2.600081972481
    H           -4.679363544147    -0.116470022657     0.004343992552
    H           -4.292987463339    -1.557955824430     0.926843659467
    H           -5.335752029493    -0.328200933651     1.616812722284

  Mulliken Charges: (a.u.)
   Center  Symbol    Alpha    Beta     Spin     Total
       1     H     0.41955  0.41955  0.00000  0.16090
       2     C     3.24029  3.24029  0.00000 -0.48058
       3     C     3.15596  3.15596  0.00000 -0.31193
       4     H     0.41861  0.41861  0.00000  0.16277
       5     H     0.42412  0.42412  0.00000  0.15176
       6     C     3.14829  3.14829  0.00000 -0.29657
       7     H     0.40744  0.40744  0.00000  0.18513
       8     H     0.42842  0.42842  0.00000  0.14315
       9     C     3.21334  3.21334  0.00000 -0.42668
      10     H     0.40880  0.40880  0.00000  0.18241
      11     H     0.42230  0.42230  0.00000  0.15540
      12     C     2.73149  2.73149  0.00000  0.53701
      13     H     0.40736  0.40736  0.00000  0.18527
      14     H     0.40744  0.40744  0.00000  0.18511
      15     C     3.20225  3.20225  0.00000 -0.40450
      16     O     4.26616  4.26616  0.00000 -0.53232
      17     C     3.16286  3.16286  0.00000 -0.32573
      18     H     0.41272  0.41272  0.00000  0.17456
      19     H     0.39925  0.39925  0.00000  0.20151
      20     C     3.15187  3.15187  0.00000 -0.30375
      21     H     0.41921  0.41921  0.00000  0.16157
      22     H     0.41445  0.41445  0.00000  0.17109
      23     C     3.24031  3.24031  0.00000 -0.48061
      24     H     0.42143  0.42143  0.00000  0.15715
      25     H     0.41831  0.41831  0.00000  0.16338
      26     H     0.42123  0.42123  0.00000  0.15754
      27     H     0.41966  0.41966  0.00000  0.16067
      28     H     0.41686  0.41686  0.00000  0.16628

   Total alpha = 40.00000, Total beta = 40.00000, Total charge =  0.00000
