  ==> Input File <==

--------------------------------------------------------------------------
set {
	reference rhf
	basis 6-31G*
}

set_num_threads( 1 )
memory 2 gb

molecule MOL {
0 1

H	 -2.825982	 0.937768	 -1.244669
O	 -3.452007	 0.283848	 -0.965577
C	 -3.181085	 -0.079926	 0.364119
C	 -1.765924	 0.277073	 0.805136
H	 -3.327791	 -1.152017	 0.410903
H	 -3.905698	 0.375695	 1.036898
C	 -0.677594	 -0.417312	 -0.014550
H	 -1.637766	 1.358238	 0.744969
H	 -1.659588	 0.017670	 1.857098
C	 0.738335	 -0.034840	 0.421385
H	 -0.814977	 -0.178223	 -1.064632
H	 -0.802730	 -1.495410	 0.071702
C	 1.822265	 -0.738362	 -0.399735
H	 0.853533	 1.043532	 0.342250
H	 0.871597	 -0.279636	 1.474438
C	 3.258060	 -0.455774	 0.057203
H	 1.718003	 -0.459167	 -1.447053
H	 1.651028	 -1.811884	 -0.354513
C	 3.709143	 0.994797	 -0.123830
H	 3.930637	 -1.101717	 -0.501982
H	 3.365259	 -0.739518	 1.102287
H	 3.601178	 1.310569	 -1.158127
H	 4.753787	 1.110486	 0.148516
H	 3.135362	 1.678896	 0.492569

	symmetry c1
}
set optking {
	frozen_dihedral = ("
		20 16 13 17,
		17 13 10 7,
		13 10 7 11,
		11 7 4 3,
		7 4 3 2
	")
}

ee = energy('scf')
oeprop('DIPOLE', 'QUADRUPOLE', 'MULLIKEN_CHARGES')
f=open( 'psi4out.xyz', 'w' )
f.write( "24  " )
f.write( str(ee) + "\n" )
f.write( MOL.save_string_xyz() )
f.close()
--------------------------------------------------------------------------

    Molecular point group: c1

    Geometry (in Angstrom), charge = 0, multiplicity = 1:

       Center              X                  Y                   Z               Mass
    ------------   -----------------  -----------------  -----------------  -----------------
           H         -2.831143752946     0.940281835552    -1.242929587801     1.007825032070
           O         -3.457168752946     0.286361835552    -0.963837587801    15.994914619560
           C         -3.186246752946    -0.077412164448     0.365858412199    12.000000000000
           C         -1.771085752946     0.279586835552     0.806875412199    12.000000000000
           H         -3.332952752946    -1.149503164448     0.412642412199     1.007825032070
           H         -3.910859752946     0.378208835552     1.038637412199     1.007825032070
           C         -0.682755752946    -0.414798164448    -0.012810587801    12.000000000000
           H         -1.642927752946     1.360751835552     0.746708412199     1.007825032070
           H         -1.664749752946     0.020183835552     1.858837412199     1.007825032070
           C          0.733173247054    -0.032326164448     0.423124412199    12.000000000000
           H         -0.820138752946    -0.175709164448    -1.062892587801     1.007825032070
           H         -0.807891752946    -1.492896164448     0.073441412199     1.007825032070
           C          1.817103247054    -0.735848164448    -0.397995587801    12.000000000000
           H          0.848371247054     1.046045835552     0.343989412199     1.007825032070
           H          0.866435247054    -0.277122164448     1.476177412199     1.007825032070
           C          3.252898247054    -0.453260164448     0.058942412199    12.000000000000
           H          1.712841247054    -0.456653164448    -1.445313587801     1.007825032070
           H          1.645866247054    -1.809370164448    -0.352773587801     1.007825032070
           C          3.703981247054     0.997310835552    -0.122090587801    12.000000000000
           H          3.925475247054    -1.099203164448    -0.500242587801     1.007825032070
           H          3.360097247054    -0.737004164448     1.104026412199     1.007825032070
           H          3.596016247054     1.313082835552    -1.156387587801     1.007825032070
           H          4.748625247054     1.112999835552     0.150255412199     1.007825032070
           H          3.130200247054     1.681409835552     0.494308412199     1.007825032070

  Charge       = 0
  Multiplicity = 1
  Basis Set: 6-31G*
  Basis Set:

    Orbital Energies (a.u.)
    -----------------------

    Doubly Occupied:

       1A    -20.550467     2A    -11.266338     3A    -11.224256
       4A    -11.220326     5A    -11.218114     6A    -11.217462
       7A    -11.216090     8A    -11.210265     9A     -1.358448
      10A     -1.094197    11A     -1.052567    12A     -0.988807
      13A     -0.919087    14A     -0.855819    15A     -0.805616
      16A     -0.780952    17A     -0.662777    18A     -0.658442
      19A     -0.637120    20A     -0.624965    21A     -0.605232
      22A     -0.588794    23A     -0.560940    24A     -0.541517
      25A     -0.521627    26A     -0.515022    27A     -0.498557
      28A     -0.478052    29A     -0.474578    30A     -0.464254
      31A     -0.456870    32A     -0.447969    33A     -0.423413

  @DF-RHF Final Energy:  -349.24486881599051

   => Energetics <=

    Nuclear Repulsion Energy =            385.1759406496292399
    One-Electron Energy =               -1236.5637392330399962
    Two-Electron Energy =                 502.1429297674196732
    DFT Exchange-Correlation Energy =       0.0000000000000000
    Empirical Dispersion Energy =           0.0000000000000000
    PCM Polarization Energy =               0.0000000000000000
    EFP Energy =                            0.0000000000000000
    Total Energy =                       -349.2448688159911399

  Mulliken Charges: (a.u.)
   Center  Symbol    Alpha    Beta     Spin     Total
       1     H     0.28058  0.28058  0.00000  0.43884
       2     O     4.37484  4.37484  0.00000 -0.74968
       3     C     2.97818  2.97818  0.00000  0.04364
       4     C     3.18869  3.18869  0.00000 -0.37738
       5     H     0.42188  0.42188  0.00000  0.15624
       6     H     0.42575  0.42575  0.00000  0.14850
       7     C     3.15188  3.15188  0.00000 -0.30376
       8     H     0.42368  0.42368  0.00000  0.15264
       9     H     0.41705  0.41705  0.00000  0.16591
      10     C     3.15341  3.15341  0.00000 -0.30682
      11     H     0.42203  0.42203  0.00000  0.15594
      12     H     0.41947  0.41947  0.00000  0.16106
      13     C     3.15252  3.15252  0.00000 -0.30505
      14     H     0.42238  0.42238  0.00000  0.15525
      15     H     0.42349  0.42349  0.00000  0.15302
      16     C     3.15260  3.15260  0.00000 -0.30519
      17     H     0.42385  0.42385  0.00000  0.15230
      18     H     0.42135  0.42135  0.00000  0.15730
      19     C     3.24131  3.24131  0.00000 -0.48262
      20     H     0.42035  0.42035  0.00000  0.15930
      21     H     0.42323  0.42323  0.00000  0.15354
      22     H     0.42224  0.42224  0.00000  0.15552
      23     H     0.41877  0.41877  0.00000  0.16247
      24     H     0.42049  0.42049  0.00000  0.15902

   Total alpha = 33.00000, Total beta = 33.00000, Total charge = -0.00000
