                              Psi4 1.0.54 Driver

  ==> Input File <==

--------------------------------------------------------------------------
set {
	reference rhf
	basis cc-pvtz
}

set_num_threads( 4 )
memory 2 gb

molecule MOL {
0 1

O	 0.219434	 0.018926	 -0.758554
C	 1.121787	 0.124983	 0.000110
C	 1.241844	 1.173013	 1.076531
O	 2.167739	 -0.685178	 -0.000678
C	 0.065838	 2.137557	 1.127400
H	 1.363236	 0.651123	 2.020129
H	 2.175399	 1.699969	 0.908441
C	 0.219360	 3.183756	 2.227494
H	 -0.850288	 1.577668	 1.278324
H	 -0.037021	 2.627981	 0.165917
C	 -0.954966	 4.154365	 2.288877
H	 0.325328	 2.686284	 3.187980
H	 1.139038	 3.741387	 2.071046
H	 -1.885400	 3.630167	 2.478863
H	 -0.819092	 4.884789	 3.077987
H	 -1.065728	 4.693016	 1.353908
C	 3.449556	 -0.089977	 -0.000570
H	 3.585694	 0.522473	 -0.879546
H	 4.155805	 -0.904274	 -0.001389
H	 3.586173	 0.521118	 0.879272

	symmetry c1
}
set optking {
	frozen_dihedral = ("
		1 2 4 17
	")
}

ee,wfn = optimize('scf', return_wfn=True)
oeprop( wfn, 'DIPOLE', 'QUADRUPOLE', 'MULLIKEN_CHARGES')
f=open( 'psi4out.xyz', 'w' )
f.write( "20  " )
f.write( str(ee) + "\n" )
f.write( MOL.save_string_xyz() )
f.close()
--------------------------------------------------------------------------

    Molecular point group: c1
  Charge       = 0
  Multiplicity = 1
  Basis Set: CC-PVTZ
  Basis Set:
  @DF-RHF Final Energy:  -384.05861078711189
    Total Energy =                       -384.0586107871117747
    Molecular point group: c1
  Basis Set: CC-PVTZ
  Basis Set:
  Basis Set: CC-PVTZ
  Basis Set:
  @DF-RHF Final Energy:  -383.79145979737575
    Total Energy =                       -383.7914597973755804
  Basis Set: CC-PVTZ
  Basis Set:
  Basis Set: CC-PVTZ
  Basis Set:
  @DF-RHF Final Energy:  -383.94125780028003
    Total Energy =                       -383.9412578002799705
  Basis Set: CC-PVTZ
  Basis Set:
  Basis Set: CC-PVTZ
  Basis Set:
  @DF-RHF Final Energy:  -384.04598860601658
    Total Energy =                       -384.0459886060160102
  Basis Set: CC-PVTZ
  Basis Set:
  @DF-RHF Final Energy:  -384.06255635772806
    Total Energy =                       -384.0625563577283401
  @DF-RHF Final Energy:  -384.06426674945430
    Total Energy =                       -384.0642667494543048
  @DF-RHF Final Energy:  -384.06355343318467
    Total Energy =                       -384.0635534331852341
  Basis Set: CC-PVTZ
  Basis Set:
  @DF-RHF Final Energy:  -384.06482565986948
    Total Energy =                       -384.0648256598700527
  Basis Set: CC-PVTZ
  Basis Set:
  Basis Set: CC-PVTZ
  Basis Set:
  @DF-RHF Final Energy:  -384.06486740333276
    Total Energy =                       -384.0648674033327552
  Basis Set: CC-PVTZ
  Basis Set:
  Basis Set: CC-PVTZ
  Basis Set:
  @DF-RHF Final Energy:  -384.06486960554440
    Total Energy =                       -384.0648696055440041
  Basis Set: CC-PVTZ
  Basis Set:
  Charge       = 0
  Multiplicity = 1
  Basis Set: CC-PVTZ
  Basis Set:

    Orbital Energies (a.u.)
    -----------------------

    Doubly Occupied:

       1A    -20.584835     2A    -20.538428     3A    -11.367051
       4A    -11.292219     5A    -11.241294     6A    -11.222189
       7A    -11.221382     8A    -11.211412     9A     -1.462766
      10A     -1.369928    11A     -1.092419    12A     -1.018182
      13A     -0.978794    14A     -0.901138    15A     -0.810242
      16A     -0.767360    17A     -0.699661    18A     -0.685374
      19A     -0.676905    20A     -0.649395    21A     -0.614057
      22A     -0.591957    23A     -0.590671    24A     -0.554305
      25A     -0.540094    26A     -0.519400    27A     -0.500209
      28A     -0.485490    29A     -0.480976    30A     -0.474347
      31A     -0.454458    32A     -0.435542

  @DF-RHF Final Energy:  -384.06487042919258

   => Energetics <=

    Nuclear Repulsion Energy =            383.0896191932701527
    One-Electron Energy =               -1282.2440092071590243
    Two-Electron Energy =                 515.0895195846962906
    DFT Exchange-Correlation Energy =       0.0000000000000000
    Empirical Dispersion Energy =           0.0000000000000000
    PCM Polarization Energy =               0.0000000000000000
    EFP Energy =                            0.0000000000000000
    Total Energy =                       -384.0648704291925242
    Molecular point group: c1
  Basis Set: CC-PVTZ
  Basis Set:

  -Total Gradient:
     Atom            X                  Y                   Z
    ------   -----------------  -----------------  -----------------
       1        0.002187131969     0.003072993195    -0.000874426715
       2       -0.003048790928    -0.003560547211    -0.000210459136
       3       -0.000102866747     0.000057998527     0.000004943372
       4        0.000665121815    -0.001183273793     0.003923935962
       5        0.000061632269    -0.000024946083     0.000009632167
       6        0.000008047088    -0.000021620080    -0.000009835768
       7        0.000011175609     0.000002831715     0.000039012645
       8       -0.000015429054     0.000014231284    -0.000009944248
       9       -0.000003444650    -0.000013323103    -0.000008489568
      10       -0.000010267078     0.000023093019     0.000001553354
      11        0.000026270193    -0.000009170946    -0.000010129579
      12       -0.000002223183    -0.000013662892    -0.000004617938
      13        0.000005309895     0.000012449547     0.000001685842
      14       -0.000004776056    -0.000005094818    -0.000000232437
      15       -0.000000533079     0.000002591216    -0.000004891907
      16       -0.000001701172     0.000003653371     0.000004089725
      17        0.000240109938     0.001695230180    -0.002817862241
      18        0.000007440980    -0.000020833387    -0.000000967247
      19       -0.000008429323    -0.000017726916    -0.000018222630
      20       -0.000013778486    -0.000014872828    -0.000014773655

  **** Optimization is complete! (in 11 steps) ****
    Final optimized geometry and variables:
    Molecular point group: c1

    Geometry (in Angstrom), charge = 0, multiplicity = 1:

    O           -0.525912442558    -0.174181225756    -1.919149568099
    C            0.293020095539    -0.517900038251    -1.147490527181
    C            0.296555649493    -0.126028473465     0.312932293803
    O            1.286161427271    -1.330700833358    -1.541085045053
    C           -0.978602001012     0.579189122835     0.755007662486
    H            0.469062933201    -1.025049952635     0.896112938758
    H            1.156290905918     0.514312031087     0.487391439652
    C           -0.947488158145     0.966122586661     2.230705927624
    H           -1.828124373032    -0.066410897340     0.562254359372
    H           -1.127490664651     1.461944938027     0.144806131955
    C           -2.222359960969     1.669098450273     2.683929157317
    H           -0.792910171251     0.076735804478     2.836042977694
    H           -0.094446219247     1.613507833891     2.417644629865
    H           -3.089882468077     1.033631450917     2.542564666817
    H           -2.172340079538     1.932797139388     3.733923141834
    H           -2.386948040269     2.581012205196     2.120260527782
    C            2.623774864715    -1.009596389576    -1.245960314856
    H            2.861888691470    -0.003870437901    -1.570574005769
    H            3.230710630143    -1.708153423027    -1.798475255421
    H            2.842555441116    -1.112079715539    -0.190604175731

  Mulliken Charges: (a.u.)
   Center  Symbol    Alpha    Beta     Spin     Total
       1     O     4.17011  4.17011  0.00000 -0.34022
       2     C     2.79809  2.79809  0.00000  0.40383
       3     C     3.13108  3.13108  0.00000 -0.26215
       4     O     4.14713  4.14713  0.00000 -0.29426
       5     C     3.08216  3.08216  0.00000 -0.16431
       6     H     0.43672  0.43672  0.00000  0.12656
       7     H     0.44418  0.44418  0.00000  0.11163
       8     C     3.08523  3.08523  0.00000 -0.17046
       9     H     0.44550  0.44550  0.00000  0.10899
      10     H     0.44343  0.44343  0.00000  0.11314
      11     C     3.14981  3.14981  0.00000 -0.29962
      12     H     0.45531  0.45531  0.00000  0.08939
      13     H     0.45598  0.45598  0.00000  0.08805
      14     H     0.45319  0.45319  0.00000  0.09362
      15     H     0.44812  0.44812  0.00000  0.10377
      16     H     0.45334  0.45334  0.00000  0.09331
      17     C     3.04654  3.04654  0.00000 -0.09308
      18     H     0.45769  0.45769  0.00000  0.08463
      19     H     0.43554  0.43554  0.00000  0.12893
      20     H     0.46087  0.46087  0.00000  0.07827

   Total alpha = 32.00000, Total beta = 32.00000, Total charge = -0.00000

*** Psi4 exiting successfully. Buy a developer a beer!
