  ==> Input File <==

--------------------------------------------------------------------------
set {
	reference rhf
	basis 6-31G*
}

set_num_threads( 4 )
memory 2 gb

molecule MOL {
0 1

H	 -3.846280	 -2.044867	 -0.736678
C	 -2.776048	 -1.941011	 -0.761186
C	 -2.033375	 -2.654594	 -1.689833
C	 -2.143861	 -1.094287	 0.135659
H	 -2.524909	 -3.310923	 -2.384810
C	 -0.657310	 -2.520533	 -1.720733
H	 -2.721215	 -0.541941	 0.854814
C	 -0.766511	 -0.958514	 0.106573
H	 -0.066624	 -3.064865	 -2.432396
C	 -0.019340	 -1.672313	 -0.822936
H	 -0.273140	 -0.304414	 0.798715
C	 1.464981	 -1.563411	 -0.897703
O	 1.970282	 -0.730723	 0.000018
O	 2.137461	 -2.159018	 -1.679931
C	 3.377318	 -0.566646	 -0.000065
H	 3.695437	 -0.028981	 -0.881264
H	 3.789299	 -1.563704	 0.000236
H	 3.695516	 -0.028316	 0.880770

	symmetry c1
}
set optking {
	frozen_dihedral = ("
		12 13 15 16
	")
}

ee = optimize('scf')
oeprop('DIPOLE', 'QUADRUPOLE', 'MULLIKEN_CHARGES')
f=open( 'psi4out.xyz', 'w' )
f.write( "18  " )
f.write( str(ee) + "\n" )
f.write( MOL.save_string_xyz() )
f.close()
--------------------------------------------------------------------------

    Molecular point group: c1
  Charge       = 0
  Multiplicity = 1
  Basis Set: 6-31G*
  Basis Set:
  @DF-RHF Final Energy:  -457.34877032119698
    Total Energy =                       -457.3487703211972075
    Molecular point group: c1
  Basis Set: 6-31G*
  Basis Set:
  Basis Set: 6-31G*
  Basis Set:
  @DF-RHF Final Energy:  -457.35013061924440
    Total Energy =                       -457.3501306192446236
  Basis Set: 6-31G*
  Basis Set:
  Basis Set: 6-31G*
  Basis Set:
  @DF-RHF Final Energy:  -457.35051150159495
    Total Energy =                       -457.3505115015948377
  Basis Set: 6-31G*
  Basis Set:
  Basis Set: 6-31G*
  Basis Set:
  @DF-RHF Final Energy:  -457.35015731671456
    Total Energy =                       -457.3501573167144443
  Basis Set: 6-31G*
  Basis Set:
  Basis Set: 6-31G*
  Basis Set:
  @DF-RHF Final Energy:  -457.35052159022280
    Total Energy =                       -457.3505215902223426
  Basis Set: 6-31G*
  Basis Set:
  Charge       = 0
  Multiplicity = 1
  Basis Set: 6-31G*
  Basis Set:

    Orbital Energies (a.u.)
    -----------------------

    Doubly Occupied:

       1A    -20.607634     2A    -20.544400     3A    -11.377982
       4A    -11.282905     5A    -11.245519     6A    -11.245240
       7A    -11.244091     8A    -11.241660     9A    -11.237433
      10A    -11.236672    11A     -1.472643    12A     -1.363984
      13A     -1.165249    14A     -1.048092    15A     -1.024773
      16A     -0.978272    17A     -0.860162    18A     -0.834278
      19A     -0.777683    20A     -0.739898    21A     -0.683349
      22A     -0.677442    23A     -0.671876    24A     -0.631060
      25A     -0.623901    26A     -0.597751    27A     -0.584550
      28A     -0.562069    29A     -0.528849    30A     -0.516586
      31A     -0.503459    32A     -0.498882    33A     -0.459129
      34A     -0.444349    35A     -0.344827    36A     -0.340946

  @DF-RHF Final Energy:  -457.35052198353429

   => Energetics <=

    Nuclear Repulsion Energy =            492.9865981266856920
    One-Electron Energy =               -1600.2790542637819726
    Two-Electron Energy =                 649.9419341535624426
    DFT Exchange-Correlation Energy =       0.0000000000000000
    Empirical Dispersion Energy =           0.0000000000000000
    PCM Polarization Energy =               0.0000000000000000
    EFP Energy =                            0.0000000000000000
    Total Energy =                       -457.3505219835337812
    Molecular point group: c1
  Basis Set: 6-31G*
  Basis Set:

  -Total Gradient:
     Atom            X                  Y                   Z
    ------   -----------------  -----------------  -----------------
       1        0.000000837679     0.000001032130     0.000000488547
       2       -0.000000813349    -0.000004772325    -0.000003764103
       3       -0.000000803667     0.000005517087    -0.000002278537
       4        0.000011204269     0.000000341692     0.000006614935
       5        0.000004244336    -0.000000592744    -0.000000456970
       6        0.000022160647    -0.000001486087     0.000002695538
       7        0.000003572519     0.000001892880    -0.000000193732
       8        0.000016489935    -0.000001554731    -0.000012708557
       9        0.000001909045    -0.000003515343    -0.000004088879
      10        0.000016877331     0.000017269992    -0.000006053387
      11        0.000010109802     0.000010419973     0.000009070652
      12        0.000135501336    -0.000654350125     0.000562453263
      13       -0.000086746693     0.001135331064    -0.000601737575
      14       -0.000070755229    -0.000024904419    -0.000096457236
      15        0.000141202252    -0.001265176736    -0.000282947712
      16       -0.000156682549     0.000784717636     0.000418709454
      17       -0.000034860801    -0.000014149429     0.000000654376
      18       -0.000013446877     0.000013979484     0.000009999925

  **** Optimization is complete! (in 6 steps) ****
    Final optimized geometry and variables:
    Molecular point group: c1

    Geometry (in Angstrom), charge = 0, multiplicity = 1:

    H           -4.029099996877    -0.473953854975     0.000706017333
    C           -2.958847876809    -0.371695464411    -0.027659922718
    C           -2.220849464337    -1.083806026954    -0.961214600014
    C           -2.321975740929     0.471583485694     0.869080856644
    H           -2.716032280532    -1.737435004007    -1.656198030613
    C           -0.844781502017    -0.951734051669    -0.997121266068
    H           -2.895737447707     1.022810947505     1.591933711005
    C           -0.944536903514     0.605312997621     0.834995640797
    H           -0.257772167948    -1.494936106563    -1.712645543051
    C           -0.202060576765    -0.107056173191    -0.099354125084
    H           -0.447726887687     1.256927151971     1.527002794335
    C            1.282247632645    -0.000436413338    -0.179592067102
    O            1.791084371737     0.832206979474     0.716142713355
    O            1.950300665485    -0.596656464054    -0.965215219845
    C            3.199400392030     0.983461311650     0.726963449885
    H            3.526097664122     1.513576808516    -0.156581790292
    H            3.686577625460     0.021538571981     0.772523263247
    H            3.425127259675     1.563223604081     1.608520973559

  Mulliken Charges: (a.u.)
   Center  Symbol    Alpha    Beta     Spin     Total
       1     H     0.39540  0.39540  0.00000  0.20920
       2     C     3.08999  3.08999  0.00000 -0.17998
       3     C     3.10712  3.10712  0.00000 -0.21425
       4     C     3.10717  3.10717  0.00000 -0.21434
       5     H     0.39538  0.39538  0.00000  0.20924
       6     C     3.08640  3.08640  0.00000 -0.17280
       7     H     0.39627  0.39627  0.00000  0.20746
       8     C     3.08714  3.08714  0.00000 -0.17428
       9     H     0.37595  0.37595  0.00000  0.24809
      10     C     3.07716  3.07716  0.00000 -0.15432
      11     H     0.38044  0.38044  0.00000  0.23913
      12     C     2.57963  2.57963  0.00000  0.84073
      13     O     4.31489  4.31489  0.00000 -0.62978
      14     O     4.29181  4.29181  0.00000 -0.58361
      15     C     3.09277  3.09277  0.00000 -0.18555
      16     H     0.40936  0.40936  0.00000  0.18129
      17     H     0.40491  0.40491  0.00000  0.19017
      18     H     0.40820  0.40820  0.00000  0.18361

   Total alpha = 36.00000, Total beta = 36.00000, Total charge = -0.00000
