  ==> Input File <==

--------------------------------------------------------------------------
set {
	reference rhf
	basis 6-31G*
}

set_num_threads( 4 )
memory 2 gb

molecule MOL {
0 1

H	 3.893188	 0.355400	 -0.101367
N	 3.092854	 -0.246221	 -0.068770
C	 1.865559	 0.531981	 0.018834
H	 3.199514	 -0.826043	 0.741946
C	 0.645745	 -0.382037	 -0.029944
H	 1.841966	 1.207024	 -0.831236
H	 1.815756	 1.155410	 0.915079
C	 -0.679275	 0.379305	 0.025956
H	 0.698998	 -0.976915	 -0.937203
H	 0.693479	 -1.083846	 0.802235
C	 -1.028904	 0.878246	 1.429235
H	 -1.480590	 -0.264232	 -0.334049
H	 -0.641170	 1.227766	 -0.655593
C	 -2.355663	 1.634899	 1.481157
H	 -1.068828	 0.032120	 2.111650
H	 -0.231134	 1.523721	 1.790596
H	 -3.179336	 1.004613	 1.157709
H	 -2.575801	 1.975069	 2.488345
H	 -2.335111	 2.507694	 0.834476

	symmetry c1
}
set optking {
	frozen_dihedral = ("
		12 8 5 9
	")
}

ee = optimize('scf')
oeprop('DIPOLE', 'QUADRUPOLE', 'MULLIKEN_CHARGES')
f=open( 'psi4out.xyz', 'w' )
f.write( "19  " )
f.write( str(ee) + "\n" )
f.write( MOL.save_string_xyz() )
f.close()
--------------------------------------------------------------------------

    Molecular point group: c1
  Charge       = 0
  Multiplicity = 1
  Basis Set: 6-31G*
  Basis Set:
  @DF-RHF Final Energy:  -251.34938131364618
    Total Energy =                       -251.3493813136461767
    Molecular point group: c1
  Basis Set: 6-31G*
  Basis Set:
  Basis Set: 6-31G*
  Basis Set:
  @DF-RHF Final Energy:  -251.34963104085307
    Total Energy =                       -251.3496310408532963
  Basis Set: 6-31G*
  Basis Set:
  Basis Set: 6-31G*
  Basis Set:
  @DF-RHF Final Energy:  -251.34968107247408
    Total Energy =                       -251.3496810724740271
  Basis Set: 6-31G*
  Basis Set:
  Basis Set: 6-31G*
  Basis Set:
  @DF-RHF Final Energy:  -251.34968293602807
    Total Energy =                       -251.3496829360278753
  Basis Set: 6-31G*
  Basis Set:
  Basis Set: 6-31G*
  Basis Set:
  @DF-RHF Final Energy:  -251.34968649648718
    Total Energy =                       -251.3496864964871520
  Basis Set: 6-31G*
  Basis Set:
  Charge       = 0
  Multiplicity = 1
  Basis Set: 6-31G*
  Basis Set:

    Orbital Energies (a.u.)
    -----------------------

    Doubly Occupied:

       1A    -15.532459     2A    -11.239494     3A    -11.214921
       4A    -11.213064     5A    -11.209655     6A    -11.208377
       7A     -1.176499     8A     -1.072511     9A     -0.997117
      10A     -0.899736    11A     -0.826067    12A     -0.780149
      13A     -0.657433    14A     -0.635207    15A     -0.629116
      16A     -0.588108    17A     -0.567613    18A     -0.548956
      19A     -0.529114    20A     -0.502965    21A     -0.481083
      22A     -0.463099    23A     -0.458556    24A     -0.450667
      25A     -0.380336

  @DF-RHF Final Energy:  -251.34968660234520

   => Energetics <=

    Nuclear Repulsion Energy =            248.4242905517338329
    One-Electron Energy =                -831.0233491224294085
    Two-Electron Energy =                 331.2493719683499762
    DFT Exchange-Correlation Energy =       0.0000000000000000
    Empirical Dispersion Energy =           0.0000000000000000
    PCM Polarization Energy =               0.0000000000000000
    EFP Energy =                            0.0000000000000000
    Total Energy =                       -251.3496866023455709
    Molecular point group: c1
  Basis Set: 6-31G*
  Basis Set:

  -Total Gradient:
     Atom            X                  Y                   Z
    ------   -----------------  -----------------  -----------------
       1       -0.000002347522    -0.000000708143     0.000001550806
       2       -0.000000794176     0.000008821478     0.000007439029
       3        0.000002044955    -0.000008972884    -0.000015650969
       4        0.000002158697    -0.000000976393     0.000000030186
       5        0.000662217410     0.001273107994    -0.000991379846
       6        0.000003886258     0.000001501456     0.000001426407
       7        0.000000997119    -0.000000807421     0.000003025351
       8       -0.000334100770    -0.000752302986     0.001535263259
       9       -0.000500095868    -0.000953104480     0.000584142768
      10        0.000001981777    -0.000000818255     0.000000629526
      11       -0.000000090093     0.000016643112    -0.000011096936
      12        0.000166463354     0.000412264950    -0.001138843869
      13       -0.000001478287    -0.000000753626     0.000006139759
      14       -0.000002458964    -0.000005790632     0.000015824290
      15       -0.000003219231     0.000007923809    -0.000000464371
      16        0.000004504678     0.000002601118     0.000001578563
      17        0.000002490763     0.000000873383    -0.000003596498
      18       -0.000008400178    -0.000000532206     0.000000875501
      19        0.000006240076     0.000001029726     0.000003107040

  **** Optimization is complete! (in 6 steps) ****
    Final optimized geometry and variables:
    Molecular point group: c1

    Geometry (in Angstrom), charge = 0, multiplicity = 1:

    H            3.624613059945    -0.162122695698    -0.621192797487
    N            2.811837442776    -0.746512348803    -0.582074770219
    C            1.603360685741     0.058283159083    -0.466912167942
    H            2.918366055475    -1.336176847838     0.221606623796
    C            0.366713208407    -0.834982274112    -0.509511249446
    H            1.578561755248     0.738401245809    -1.313050035855
    H            1.589557782570     0.676277941911     0.432484095400
    C           -0.965145965950    -0.077745086305    -0.433761917699
    H            0.406731501980    -1.419318888055    -1.423301738851
    H            0.417111571854    -1.554140653246     0.307932391555
    C           -1.336616686154     0.429925934421     0.962387963018
    H           -1.758320578775    -0.729774478177    -0.792499225476
    H           -0.940585179423     0.762431521701    -1.126784287959
    C           -2.682322651398     1.154250463897     0.988339184103
    H           -1.367585433501    -0.412039281581     1.650904728207
    H           -0.565443645458     1.099546753408     1.334005400887
    H           -3.484907221136     0.501699147330     0.656259931800
    H           -2.926722492591     1.496052133942     1.989426652638
    H           -2.672714001840     2.022671899930     0.335620248870

  Mulliken Charges: (a.u.)
   Center  Symbol    Alpha    Beta     Spin     Total
       1     H     0.33252  0.33252  0.00000  0.33497
       2     N     3.92192  3.92192  0.00000 -0.84385
       3     C     3.06193  3.06193  0.00000 -0.12387
       4     H     0.33532  0.33532  0.00000  0.32936
       5     C     3.15340  3.15340  0.00000 -0.30680
       6     H     0.42091  0.42091  0.00000  0.15818
       7     H     0.43294  0.43294  0.00000  0.13412
       8     C     3.15734  3.15734  0.00000 -0.31467
       9     H     0.41084  0.41084  0.00000  0.17831
      10     H     0.42786  0.42786  0.00000  0.14428
      11     C     3.15255  3.15255  0.00000 -0.30510
      12     H     0.42031  0.42031  0.00000  0.15938
      13     H     0.42414  0.42414  0.00000  0.15172
      14     C     3.23916  3.23916  0.00000 -0.47832
      15     H     0.42333  0.42333  0.00000  0.15335
      16     H     0.42262  0.42262  0.00000  0.15477
      17     H     0.42155  0.42155  0.00000  0.15690
      18     H     0.41962  0.41962  0.00000  0.16076
      19     H     0.42174  0.42174  0.00000  0.15652

   Total alpha = 25.00000, Total beta = 25.00000, Total charge = -0.00000
