  ==> Input File <==

--------------------------------------------------------------------------
set {
	reference rhf
	basis cc-pvtz
}

set_num_threads( 4 )
memory 2 gb

molecule MOL {
0 1

O	 -0.473662	 -0.705800	 1.657638
C	 -0.374311	 0.148562	 0.824025
C	 -1.394054	 1.267027	 0.760840
N	 0.622280	 0.144970	 -0.099307
H	 -1.897274	 1.288439	 -0.197626
H	 -2.117166	 1.088094	 1.539033
H	 -0.930578	 2.232954	 0.919425
C	 1.664396	 -0.854993	 0.000772
C	 0.913600	 1.254228	 -0.975911
H	 2.462727	 -0.615153	 -0.690869
H	 1.261798	 -1.821849	 -0.240651
H	 2.081615	 -0.891605	 1.003877
H	 1.295704	 0.874815	 -1.914888
H	 0.031983	 1.832461	 -1.193382
H	 1.665184	 1.918089	 -0.554658

	symmetry c1
}
set optking {
	frozen_dihedral = ("
		2 4 8 10
	")
}

ee = optimize('scf')
oeprop('DIPOLE', 'QUADRUPOLE', 'MULLIKEN_CHARGES')
f=open( 'psi4out.xyz', 'w' )
f.write( "15  " )
f.write( str(ee) + "\n" )
f.write( MOL.save_string_xyz() )
f.close()
--------------------------------------------------------------------------

    Molecular point group: c1
  Charge       = 0
  Multiplicity = 1
  Basis Set: CC-PVTZ
  Basis Set:
  @DF-RHF Final Energy:  -286.13387373169485
    Total Energy =                       -286.1338737316947345
    Molecular point group: c1
  Basis Set: CC-PVTZ
  Basis Set:
  Basis Set: CC-PVTZ
  Basis Set:
  @DF-RHF Final Energy:  -286.13450955489759
    Total Energy =                       -286.1345095548975905
  Basis Set: CC-PVTZ
  Basis Set:
  Basis Set: CC-PVTZ
  Basis Set:
  @DF-RHF Final Energy:  -286.13460795408685
    Total Energy =                       -286.1346079540865617
  Basis Set: CC-PVTZ
  Basis Set:
  Basis Set: CC-PVTZ
  Basis Set:
  @DF-RHF Final Energy:  -286.13462916115918
    Total Energy =                       -286.1346291611594097
  Basis Set: CC-PVTZ
  Basis Set:
  @DF-RHF Final Energy:  -286.13464875472619
    Total Energy =                       -286.1346487547261290
  @DF-RHF Final Energy:  -286.13474444359082
    Total Energy =                       -286.1347444435904208
  @DF-RHF Final Energy:  -286.13477283466949
    Total Energy =                       -286.1347728346694339
  @DF-RHF Final Energy:  -286.13479148481770
    Total Energy =                       -286.1347914848173559
  @DF-RHF Final Energy:  -286.13481009636814
    Total Energy =                       -286.1348100963679144
  @DF-RHF Final Energy:  -286.13486666142404
    Total Energy =                       -286.1348666614242120
  @DF-RHF Final Energy:  -286.13498356293883
    Total Energy =                       -286.1349835629390554
  @DF-RHF Final Energy:  -286.13193528443793
    Total Energy =                       -286.1319352844375885
  @DF-RHF Final Energy:  -286.13505066621633
    Total Energy =                       -286.1350506662159319
  @DF-RHF Final Energy:  -286.13511548645511
    Total Energy =                       -286.1351154864551631
  @DF-RHF Final Energy:  -286.13521957577018
    Total Energy =                       -286.1352195757702361
  Basis Set: CC-PVTZ
  Basis Set:
  @DF-RHF Final Energy:  -286.13524358316033
    Total Energy =                       -286.1352435831603884
  Basis Set: CC-PVTZ
  Basis Set:
  Basis Set: CC-PVTZ
  Basis Set:
  @DF-RHF Final Energy:  -286.13525086839195
    Total Energy =                       -286.1352508683918927
  Basis Set: CC-PVTZ
  Basis Set:
  Basis Set: CC-PVTZ
  Basis Set:
  @DF-RHF Final Energy:  -286.13525275114040
    Total Energy =                       -286.1352527511405128
  Basis Set: CC-PVTZ
  Basis Set:
  Charge       = 0
  Multiplicity = 1
  Basis Set: CC-PVTZ
  Basis Set:

    Orbital Energies (a.u.)
    -----------------------

    Doubly Occupied:

       1A    -20.504861     2A    -15.577450     3A    -11.333500
       4A    -11.264208     5A    -11.246949     6A    -11.226600
       7A     -1.388334     8A     -1.244687     9A     -1.014717
      10A     -0.973501    11A     -0.919459    12A     -0.738363
      13A     -0.682214    14A     -0.660523    15A     -0.653712
      16A     -0.589057    17A     -0.577873    18A     -0.570113
      19A     -0.564260    20A     -0.547105    21A     -0.531024
      22A     -0.503317    23A     -0.414786    24A     -0.371165

  @DF-RHF Final Energy:  -286.13525292652901

   => Energetics <=

    Nuclear Repulsion Energy =            253.1119263565356050
    One-Electron Energy =                -890.2987986785578869
    Two-Electron Energy =                 351.0516193954935602
    DFT Exchange-Correlation Energy =       0.0000000000000000
    Empirical Dispersion Energy =           0.0000000000000000
    PCM Polarization Energy =               0.0000000000000000
    EFP Energy =                            0.0000000000000000
    Total Energy =                       -286.1352529265287217
    Molecular point group: c1
  Basis Set: CC-PVTZ
  Basis Set:

  -Total Gradient:
     Atom            X                  Y                   Z
    ------   -----------------  -----------------  -----------------
       1       -0.000010943479     0.000021274207    -0.000004106884
       2       -0.000436789072    -0.000333822378    -0.000525434869
       3        0.000004062255    -0.000014720023    -0.000015206093
       4        0.000490708980     0.000395196535     0.000611698097
       5       -0.000005226949     0.000000306646     0.000005689676
       6       -0.000002044957    -0.000000168332     0.000004139315
       7        0.000012122945    -0.000004063617    -0.000001908539
       8        0.000264753387     0.000214455286     0.000735479214
       9        0.000016365665    -0.000003620295     0.000009143134
      10       -0.000308530893    -0.000276531032    -0.000808184253
      11       -0.000007088946     0.000008808791    -0.000001755326
      12       -0.000012557461     0.000002376707    -0.000002053396
      13        0.000003009374    -0.000004677014    -0.000016175550
      14       -0.000001565418    -0.000002889123     0.000008950485
      15       -0.000006275430    -0.000001926357    -0.000000275010

  **** Optimization is complete! (in 19 steps) ****
    Final optimized geometry and variables:
    Molecular point group: c1

    Geometry (in Angstrom), charge = 0, multiplicity = 1:

    O           -0.694630909175    -1.007729226236     1.178289478191
    C           -0.544815799939    -0.065850686988     0.453808090483
    C           -1.609068285260     1.007371032866     0.365852218566
    N            0.584005512645     0.082647052237    -0.287191019570
    H           -2.044096630950     1.045927270510    -0.625503722890
    H           -2.377694847105     0.759738654191     1.079084032138
    H           -1.206388833431     1.985682148696     0.595310076658
    C            1.530362225634    -1.016447180508    -0.267119681499
    C            0.703988059222     1.011906288192    -1.386609362636
    H            2.445340878623    -0.697206436820    -0.745849437101
    H            1.149802443967    -1.884523581345    -0.796254612748
    H            1.740714162098    -1.309954928861     0.748144002834
    H            0.437178650001     0.556179431445    -2.337619940757
    H            0.079745938693     1.876563069526    -1.239250468789
    H            1.727220442463     1.356207557972    -1.456922852917

  Mulliken Charges: (a.u.)
   Center  Symbol    Alpha    Beta     Spin     Total
       1     O     4.21891  4.21891  0.00000 -0.43783
       2     C     2.84494  2.84494  0.00000  0.31012
       3     C     3.16028  3.16028  0.00000 -0.32056
       4     N     3.56454  3.56454  0.00000 -0.12908
       5     H     0.44900  0.44900  0.00000  0.10200
       6     H     0.42882  0.42882  0.00000  0.14235
       7     H     0.44881  0.44881  0.00000  0.10238
       8     C     3.09166  3.09166  0.00000 -0.18333
       9     C     3.09685  3.09685  0.00000 -0.19370
      10     H     0.45784  0.45784  0.00000  0.08433
      11     H     0.45356  0.45356  0.00000  0.09289
      12     H     0.43518  0.43518  0.00000  0.12965
      13     H     0.45556  0.45556  0.00000  0.08887
      14     H     0.44566  0.44566  0.00000  0.10867
      15     H     0.44838  0.44838  0.00000  0.10324

   Total alpha = 24.00000, Total beta = 24.00000, Total charge =  0.00000
