  ==> Input File <==

--------------------------------------------------------------------------
set {
	reference rhf
	basis cc-pvtz
}

set_num_threads( 4 )
memory 2 gb

molecule MOL {
0 1

H	 1.128311	 0.207724	 1.465118
C	 1.134565	 0.093781	 0.372499
C	 0.062554	 0.862911	 -0.350953
O	 1.948932	 -0.587720	 -0.146651
C	 -1.171326	 1.116315	 0.520794
H	 -0.193750	 0.328242	 -1.256453
H	 0.500775	 1.816577	 -0.636538
C	 -1.941336	 -0.154829	 0.867101
H	 -1.825332	 1.803839	 -0.002809
H	 -0.869316	 1.622149	 1.433683
H	 -2.285656	 -0.656655	 -0.030212
H	 -2.808340	 0.073865	 1.475085
H	 -1.327625	 -0.858045	 1.419261

	symmetry c1
}
set optking {
	frozen_dihedral = ("
		6 3 2 4
	")
}

ee = optimize('scf')
oeprop('DIPOLE', 'QUADRUPOLE', 'MULLIKEN_CHARGES')
f=open( 'psi4out.xyz', 'w' )
f.write( "13  " )
f.write( str(ee) + "\n" )
f.write( MOL.save_string_xyz() )
f.close()
--------------------------------------------------------------------------

    Molecular point group: c1
  Charge       = 0
  Multiplicity = 1
  Basis Set: CC-PVTZ
  Basis Set:
  @DF-RHF Final Energy:  -231.06983954321578
    Total Energy =                       -231.0698395432158065
    Molecular point group: c1
  Basis Set: CC-PVTZ
  Basis Set:
  Basis Set: CC-PVTZ
  Basis Set:
  @DF-RHF Final Energy:  -231.06849789837682
    Total Energy =                       -231.0684978983768758
  Basis Set: CC-PVTZ
  Basis Set:
  Basis Set: CC-PVTZ
  Basis Set:
  @DF-RHF Final Energy:  -231.06998158671823
    Total Energy =                       -231.0699815867181997
  Basis Set: CC-PVTZ
  Basis Set:
  Basis Set: CC-PVTZ
  Basis Set:
  @DF-RHF Final Energy:  -231.07000807702372
    Total Energy =                       -231.0700080770237150
  Basis Set: CC-PVTZ
  Basis Set:
  Basis Set: CC-PVTZ
  Basis Set:
  @DF-RHF Final Energy:  -231.07001236826045
    Total Energy =                       -231.0700123682606204
  Basis Set: CC-PVTZ
  Basis Set:
  Basis Set: CC-PVTZ
  Basis Set:
  @DF-RHF Final Energy:  -231.07001390620923
    Total Energy =                       -231.0700139062092546
  Basis Set: CC-PVTZ
  Basis Set:
  Charge       = 0
  Multiplicity = 1
  Basis Set: CC-PVTZ
  Basis Set:

    Orbital Energies (a.u.)
    -----------------------

    Doubly Occupied:

       1A    -20.551899     2A    -11.322641     3A    -11.235627
       4A    -11.234896     5A    -11.222022     6A     -1.407520
       7A     -1.088790     8A     -0.973731     9A     -0.848992
      10A     -0.792273    11A     -0.663821    12A     -0.650558
      13A     -0.635944    14A     -0.595272    15A     -0.567604
      16A     -0.533035    17A     -0.508882    18A     -0.493726
      19A     -0.484747    20A     -0.412771

  @DF-RHF Final Energy:  -231.07001392496193

   => Energetics <=

    Nuclear Repulsion Energy =            173.2189266900672919
    One-Electron Energy =                -656.1283809271567407
    Two-Electron Energy =                 251.8394403121272944
    DFT Exchange-Correlation Energy =       0.0000000000000000
    Empirical Dispersion Energy =           0.0000000000000000
    PCM Polarization Energy =               0.0000000000000000
    EFP Energy =                            0.0000000000000000
    Total Energy =                       -231.0700139249621543
    Molecular point group: c1
  Basis Set: CC-PVTZ
  Basis Set:

  -Total Gradient:
     Atom            X                  Y                   Z
    ------   -----------------  -----------------  -----------------
       1        0.000001273579    -0.000000248511     0.000001678249
       2       -0.001533854764    -0.001888547610     0.000333059879
       3        0.001623704468     0.001426134308    -0.000947182504
       4        0.000907565934     0.001199066849    -0.000115551894
       5       -0.000003453247    -0.000002184831     0.000007034737
       6       -0.000995667190    -0.000733667640     0.000725900729
       7       -0.000000943066    -0.000001294967     0.000002564569
       8        0.000000484178     0.000001832929    -0.000004733995
       9        0.000001711408    -0.000003204324    -0.000001902531
      10        0.000000796100     0.000002293473     0.000000267696
      11       -0.000004466991    -0.000001803399    -0.000001548219
      12        0.000001617555     0.000000064219     0.000001419359
      13        0.000001232043     0.000001559501    -0.000001006076

  **** Optimization is complete! (in 7 steps) ****
    Final optimized geometry and variables:
    Molecular point group: c1

    Geometry (in Angstrom), charge = 0, multiplicity = 1:

    H            1.176722366528    -0.022021038636     1.211805686156
    C            1.141037047322    -0.156534117930     0.122503071234
    C            0.052500807467     0.605320666108    -0.592956975468
    O            1.949541358089    -0.828935438850    -0.416660128151
    C           -1.182628475062     0.865208310678     0.267753736949
    H           -0.203618237056     0.061657053727    -1.494014142906
    H            0.497309506366     1.548824297775    -0.899422379107
    C           -1.960214316728    -0.404039167516     0.605263217114
    H           -1.832757813957     1.556485563490    -0.255897367632
    H           -0.884554454349     1.366518972890     1.184509968996
    H           -2.306993526556    -0.897305147457    -0.296101264609
    H           -2.826292303891    -0.178123887445     1.215412745978
    H           -1.350411700106    -1.114915382705     1.153156081006

  Mulliken Charges: (a.u.)
   Center  Symbol    Alpha    Beta     Spin     Total
       1     H     0.46251  0.46251  0.00000  0.07498
       2     C     2.91039  2.91039  0.00000  0.17922
       3     C     3.08763  3.08763  0.00000 -0.17526
       4     O     4.16415  4.16415  0.00000 -0.32831
       5     C     3.10393  3.10393  0.00000 -0.20787
       6     H     0.44104  0.44104  0.00000  0.11792
       7     H     0.43895  0.43895  0.00000  0.12211
       8     C     3.14578  3.14578  0.00000 -0.29156
       9     H     0.44387  0.44387  0.00000  0.11225
      10     H     0.45180  0.45180  0.00000  0.09641
      11     H     0.45099  0.45099  0.00000  0.09803
      12     H     0.44551  0.44551  0.00000  0.10898
      13     H     0.45345  0.45345  0.00000  0.09310

   Total alpha = 20.00000, Total beta = 20.00000, Total charge =  0.00000
