                              Psi4 1.0.54 Driver

  ==> Input File <==

--------------------------------------------------------------------------
set {
	reference rhf
	basis cc-pvtz
}

set_num_threads( 4 )
memory 2 gb

molecule MOL {
0 1

H	 2.614283	 2.028610	 0.296620
O	 3.358864	 1.662087	 -0.142800
C	 3.565468	 0.338079	 0.273842
C	 2.533667	 -0.637565	 -0.272227
H	 4.548038	 0.064914	 -0.086598
H	 3.593945	 0.282242	 1.360360
C	 1.114816	 -0.402372	 0.240993
H	 2.544552	 -0.580764	 -1.356576
H	 2.850574	 -1.642962	 -0.005497
C	 0.961677	 0.935387	 0.963340
H	 0.837759	 -1.208902	 0.911629
H	 0.418803	 -0.437716	 -0.595430
C	 -0.457855	 1.256744	 1.434415
H	 1.636709	 0.960258	 1.815362
H	 1.289238	 1.727455	 0.295657
C	 -0.991592	 0.351599	 2.543278
H	 -0.475105	 2.283728	 1.788722
H	 -1.134693	 1.220507	 0.583690
C	 -2.369552	 0.773249	 3.047112
H	 -0.290822	 0.353822	 3.375375
H	 -1.045827	 -0.675062	 2.193952
C	 -2.907053	 -0.130579	 4.151685
H	 -2.320991	 1.795941	 3.410870
H	 -3.068966	 0.779723	 2.215343
H	 -2.245431	 -0.133464	 5.011618
H	 -3.883947	 0.197810	 4.487760
H	 -3.003396	 -1.155069	 3.807461

	symmetry c1
}
set optking {
	frozen_dihedral = ("
		10 7 4 8
	")
}

ee,wfn = optimize('scf', return_wfn=True)
oeprop( wfn, 'DIPOLE', 'QUADRUPOLE', 'MULLIKEN_CHARGES')
f=open( 'psi4out.xyz', 'w' )
f.write( "27  " )
f.write( str(ee) + "\n" )
f.write( MOL.save_string_xyz() )
f.close()
--------------------------------------------------------------------------

    Molecular point group: c1
  Charge       = 0
  Multiplicity = 1
  Basis Set: CC-PVTZ
  Basis Set:
  @DF-RHF Final Energy:  -388.40037422058850
    Total Energy =                       -388.4003742205879917
    Molecular point group: c1
  Basis Set: CC-PVTZ
  Basis Set:
  Basis Set: CC-PVTZ
  Basis Set:
  @DF-RHF Final Energy:  -388.33819714396776
    Total Energy =                       -388.3381971439677045
  Basis Set: CC-PVTZ
  Basis Set:
  Basis Set: CC-PVTZ
  Basis Set:
  @DF-RHF Final Energy:  -388.40752123314320
    Total Energy =                       -388.4075212331432567
  Basis Set: CC-PVTZ
  Basis Set:
  Basis Set: CC-PVTZ
  Basis Set:
  @DF-RHF Final Energy:  -388.41646971459886
    Total Energy =                       -388.4164697145989749
  Basis Set: CC-PVTZ
  Basis Set:
  @DF-RHF Final Energy:  -388.41691563570083
    Total Energy =                       -388.4169156357013435
  @DF-RHF Final Energy:  -388.41722111849106
    Total Energy =                       -388.4172211184908292
  @DF-RHF Final Energy:  -388.41712736605524
    Total Energy =                       -388.4171273660551833
  Basis Set: CC-PVTZ
  Basis Set:
  @DF-RHF Final Energy:  -388.41727431092028
    Total Energy =                       -388.4172743109204475
  Basis Set: CC-PVTZ
  Basis Set:
  Basis Set: CC-PVTZ
  Basis Set:
  @DF-RHF Final Energy:  -388.41727782652839
    Total Energy =                       -388.4172778265284478
  Basis Set: CC-PVTZ
  Basis Set:
  Basis Set: CC-PVTZ
  Basis Set:
  @DF-RHF Final Energy:  -388.41728149938552
    Total Energy =                       -388.4172814993850125
  Basis Set: CC-PVTZ
  Basis Set:
  Charge       = 0
  Multiplicity = 1
  Basis Set: CC-PVTZ
  Basis Set:

    Orbital Energies (a.u.)
    -----------------------

    Doubly Occupied:

       1A    -20.542390     2A    -11.264692     3A    -11.220651
       4A    -11.216853     5A    -11.216455     6A    -11.215353
       7A    -11.213836     8A    -11.213409     9A    -11.208423
      10A     -1.361244    11A     -1.096696    12A     -1.059887
      13A     -1.013297    14A     -0.950402    15A     -0.892959
      16A     -0.828474    17A     -0.800275    18A     -0.775977
      19A     -0.695526    20A     -0.650002    21A     -0.637896
      22A     -0.621717    23A     -0.599070    24A     -0.582896
      25A     -0.571438    26A     -0.563660    27A     -0.548724
      28A     -0.526863    29A     -0.519298    30A     -0.499032
      31A     -0.478432    32A     -0.477390    33A     -0.467507
      34A     -0.465217    35A     -0.448997    36A     -0.438863
      37A     -0.424272

  @DF-RHF Final Energy:  -388.41728183604141

   => Energetics <=

    Nuclear Repulsion Energy =            465.9918741263685433
    One-Electron Energy =               -1450.2021608214186017
    Two-Electron Energy =                 595.7930048590089882
    DFT Exchange-Correlation Energy =       0.0000000000000000
    Empirical Dispersion Energy =           0.0000000000000000
    PCM Polarization Energy =               0.0000000000000000
    EFP Energy =                            0.0000000000000000
    Total Energy =                       -388.4172818360410702
    Molecular point group: c1
  Basis Set: CC-PVTZ
  Basis Set:

  -Total Gradient:
     Atom            X                  Y                   Z
    ------   -----------------  -----------------  -----------------
       1        0.000003855093     0.000001857407     0.000015792067
       2       -0.000011294320     0.000000607533    -0.000030975717
       3       -0.000013744408    -0.000011560176     0.000014092489
       4        0.000432540036     0.005001331695     0.000117996639
       5        0.000014872002     0.000000092284     0.000002722252
       6        0.000001031504     0.000005532373     0.000004236052
       7       -0.000994547877    -0.000497461423    -0.004380971532
       8       -0.000104438735    -0.004177842449     0.001086082174
       9        0.000010918376     0.000004906803    -0.000002562333
      10        0.000660444820    -0.000326601867     0.003147670781
      11        0.000002229482     0.000006765447    -0.000004611186
      12        0.000002509812     0.000001670284     0.000001835011
      13       -0.000011363337    -0.000007392691    -0.000007893414
      14       -0.000000964101    -0.000000189728     0.000011326250
      15        0.000008654174    -0.000010665965     0.000009157897
      16        0.000000498938     0.000009112551     0.000015266054
      17       -0.000000112547    -0.000004058258     0.000002483394
      18        0.000001829922     0.000002202764    -0.000003391986
      19        0.000002816055     0.000005866732    -0.000008502334
      20        0.000000044763     0.000001839651     0.000004218966
      21       -0.000002733366     0.000003833532    -0.000001801315
      22        0.000003282122    -0.000003886186     0.000011224817
      23        0.000001592130    -0.000004623748     0.000003224287
      24        0.000000015987     0.000003374236     0.000002650176
      25       -0.000001731613    -0.000002512291    -0.000008304059
      26       -0.000006489896    -0.000002425206    -0.000001071344
      27        0.000000284979     0.000000226692     0.000000105908

  **** Optimization is complete! (in 11 steps) ****
    Final optimized geometry and variables:
    Molecular point group: c1

    Geometry (in Angstrom), charge = 0, multiplicity = 1:

    H            2.252301060273     1.723022749800    -1.555162616284
    O            3.017197198103     1.221890606619    -1.763428674896
    C            3.140321797789     0.132443025736    -0.888428018937
    C            2.214135131054    -1.035546353498    -1.200496129301
    H            4.160920112834    -0.210631629820    -0.993969422554
    H            3.022479607503     0.454419343089     0.142994130025
    C            0.702682649682    -0.913560645990    -0.873748126099
    H            2.345471485936    -1.307835953440    -2.241683826875
    H            2.600896679514    -1.883396676102    -0.641361093775
    C            0.138966362885     0.484389908247    -0.603499684040
    H            0.502363368995    -1.525842602823    -0.002655610931
    H            0.134747105275    -1.359414109129    -1.683108568888
    C           -1.342073163134     0.492212157598    -0.212119643424
    H            0.707936420234     0.975003509591     0.181346371066
    H            0.243739734879     1.090650800228    -1.498612957710
    C           -1.652018676286    -0.075998610271     1.171850960071
    H           -1.697910475172     1.518051199497    -0.248262503622
    H           -1.912514096046    -0.050753140902    -0.961752946026
    C           -3.127829288014     0.038765557952     1.545242447350
    H           -1.054525049533     0.447803257211     1.914986936633
    H           -1.358412353535    -1.119409223633     1.224933444474
    C           -3.442799192110    -0.527700140594     2.925679034864
    H           -3.427838802660     1.082366770768     1.507543528124
    H           -3.727096611856    -0.476724042927     0.799669613787
    H           -2.883302592540    -0.010378745610     3.698045909854
    H           -4.496646305905    -0.429439386919     3.159541861526
    H           -3.188204046285    -1.580746783199     2.984346558755

  Mulliken Charges: (a.u.)
   Center  Symbol    Alpha    Beta     Spin     Total
       1     H     0.38919  0.38919  0.00000  0.22163
       2     O     4.20823  4.20823  0.00000 -0.41645
       3     C     2.98677  2.98677  0.00000  0.02645
       4     C     3.09561  3.09561  0.00000 -0.19121
       5     H     0.44395  0.44395  0.00000  0.11210
       6     H     0.46755  0.46755  0.00000  0.06490
       7     C     3.09708  3.09708  0.00000 -0.19416
       8     H     0.44927  0.44927  0.00000  0.10147
       9     H     0.45374  0.45374  0.00000  0.09252
      10     C     3.11434  3.11434  0.00000 -0.22869
      11     H     0.45074  0.45074  0.00000  0.09852
      12     H     0.44784  0.44784  0.00000  0.10432
      13     C     3.10070  3.10070  0.00000 -0.20139
      14     H     0.45056  0.45056  0.00000  0.09888
      15     H     0.44776  0.44776  0.00000  0.10449
      16     C     3.08753  3.08753  0.00000 -0.17507
      17     H     0.44742  0.44742  0.00000  0.10516
      18     H     0.45218  0.45218  0.00000  0.09564
      19     C     3.08488  3.08488  0.00000 -0.16976
      20     H     0.45561  0.45561  0.00000  0.08877
      21     H     0.45307  0.45307  0.00000  0.09386
      22     C     3.14965  3.14965  0.00000 -0.29931
      23     H     0.45382  0.45382  0.00000  0.09236
      24     H     0.45398  0.45398  0.00000  0.09204
      25     H     0.45518  0.45518  0.00000  0.08965
      26     H     0.44803  0.44803  0.00000  0.10394
      27     H     0.45532  0.45532  0.00000  0.08936

   Total alpha = 37.00000, Total beta = 37.00000, Total charge = -0.00000

*** Psi4 exiting successfully. Buy a developer a beer!
