  ==> Input File <==

--------------------------------------------------------------------------
set {
	reference rhf
	basis 6-31G*
}

set_num_threads( 1 )
memory 2 gb

molecule MOL {
0 1

H	 -1.967604	 0.121897	 -2.380284
O	 -2.117472	 0.007597	 -1.452457
C	 -1.081918	 0.616390	 -0.728589
C	 0.193962	 -0.204142	 -0.795851
H	 -0.886369	 1.625703	 -1.079881
H	 -1.413817	 0.683892	 0.297928
O	 1.171513	 0.459272	 -0.058250
H	 0.510160	 -0.320564	 -1.834333
H	 0.009150	 -1.200174	 -0.397920
C	 2.397842	 -0.198080	 -0.002151
H	 2.508049	 -0.905315	 -0.822092
H	 3.173794	 0.550865	 -0.078850
H	 2.517602	 -0.735921	 0.936026

	symmetry c1
}
set optking {
	frozen_dihedral = ("
		8 4 3 5,
		1 2 3 5,
		10 7 4 8
	")
}

ee = energy('scf')
oeprop('DIPOLE', 'QUADRUPOLE', 'MULLIKEN_CHARGES')
f=open( 'psi4out.xyz', 'w' )
f.write( "13  " )
f.write( str(ee) + "\n" )
f.write( MOL.save_string_xyz() )
f.close()
--------------------------------------------------------------------------

    Molecular point group: c1

    Geometry (in Angstrom), charge = 0, multiplicity = 1:

       Center              X                  Y                   Z               Mass
    ------------   -----------------  -----------------  -----------------  -----------------
           H         -2.065876896143    -0.007704688599    -1.750664863287     1.007825032070
           O         -2.215744896143    -0.122004688599    -0.822837863287    15.994914619560
           C         -1.180190896143     0.486788311401    -0.098969863287    12.000000000000
           C          0.095689103857    -0.333743688599    -0.166231863287    12.000000000000
           H         -0.984641896143     1.496101311401    -0.450261863287     1.007825032070
           H         -1.512089896143     0.554290311401     0.927547136713     1.007825032070
           O          1.073240103857     0.329670311401     0.571369136713    15.994914619560
           H          0.411887103857    -0.450165688599    -1.204713863287     1.007825032070
           H         -0.089122896143    -1.329775688599     0.231699136713     1.007825032070
           C          2.299569103857    -0.327681688599     0.627468136713    12.000000000000
           H          2.409776103857    -1.034916688599    -0.192472863287     1.007825032070
           H          3.075521103857     0.421263311401     0.550769136713     1.007825032070
           H          2.419329103857    -0.865522688599     1.565645136713     1.007825032070

  Charge       = 0
  Multiplicity = 1
  Basis Set: 6-31G*
  Basis Set:

    Orbital Energies (a.u.)
    -----------------------

    Doubly Occupied:

       1A    -20.560242     2A    -20.560025     3A    -11.271273
       4A    -11.269511     5A    -11.268681     6A     -1.388119
       7A     -1.365035     8A     -1.018148     9A     -0.913119
      10A     -0.842698    11A     -0.708966    12A     -0.673153
      13A     -0.660027    14A     -0.636394    15A     -0.597453
      16A     -0.566699    17A     -0.548383    18A     -0.489113
      19A     -0.483394    20A     -0.438313    21A     -0.418037

  @DF-RHF Final Energy:  -267.94756442540972

   => Energetics <=

    Nuclear Repulsion Energy =            190.2698298647884485
    One-Electron Energy =                -743.0812387285084242
    Two-Electron Energy =                 284.8638444383102524
    DFT Exchange-Correlation Energy =       0.0000000000000000
    Empirical Dispersion Energy =           0.0000000000000000
    PCM Polarization Energy =               0.0000000000000000
    EFP Energy =                            0.0000000000000000
    Total Energy =                       -267.9475644254097233

  Mulliken Charges: (a.u.)
   Center  Symbol    Alpha    Beta     Spin     Total
       1     H     0.28133  0.28133  0.00000  0.43733
       2     O     4.37080  4.37080  0.00000 -0.74161
       3     C     3.00499  3.00499  0.00000 -0.00999
       4     C     2.99799  2.99799  0.00000  0.00401
       5     H     0.42237  0.42237  0.00000  0.15526
       6     H     0.40841  0.40841  0.00000  0.18318
       7     O     4.30873  4.30873  0.00000 -0.61745
       8     H     0.43690  0.43690  0.00000  0.12620
       9     H     0.42325  0.42325  0.00000  0.15351
      10     C     3.07796  3.07796  0.00000 -0.15592
      11     H     0.42924  0.42924  0.00000  0.14153
      12     H     0.41524  0.41524  0.00000  0.16952
      13     H     0.42279  0.42279  0.00000  0.15442

   Total alpha = 21.00000, Total beta = 21.00000, Total charge =  0.00000
