                              Psi4 1.0.54 Driver

  ==> Input File <==

--------------------------------------------------------------------------
set {
	reference rhf
	basis cc-pvtz
}

set_num_threads( 4 )
memory 2 gb

molecule MOL {
0 1

H	 1.166964	 -1.062386	 0.758429
O	 1.324748	 -0.612467	 -0.052206
C	 0.706474	 0.636793	 -0.025501
C	 1.502647	 1.742740	 -0.658447
H	 0.536105	 0.872421	 1.018413
H	 -0.273428	 0.594703	 -0.497433
C	 2.730309	 1.641176	 -1.117617
H	 0.987705	 2.687255	 -0.721495
H	 3.281915	 0.722445	 -1.057306
H	 3.228550	 2.483345	 -1.558714

	symmetry c1
}
set optking {
	frozen_dihedral = ("
		5 3 2 1
	")
}

ee,wfn = optimize('scf', return_wfn=True)
oeprop( wfn, 'DIPOLE', 'QUADRUPOLE', 'MULLIKEN_CHARGES')
f=open( 'psi4out.xyz', 'w' )
f.write( "10  " )
f.write( str(ee) + "\n" )
f.write( MOL.save_string_xyz() )
f.close()
--------------------------------------------------------------------------

    Molecular point group: c1
  Charge       = 0
  Multiplicity = 1
  Basis Set: CC-PVTZ
  Basis Set:
  @DF-RHF Final Energy:  -191.99561564883572
    Total Energy =                       -191.9956156488358090
    Molecular point group: c1
  Basis Set: CC-PVTZ
  Basis Set:
  Basis Set: CC-PVTZ
  Basis Set:
  @DF-RHF Final Energy:  -191.90960493913656
    Total Energy =                       -191.9096049391364431
  Basis Set: CC-PVTZ
  Basis Set:
  Basis Set: CC-PVTZ
  Basis Set:
  @DF-RHF Final Energy:  -191.98884147427839
    Total Energy =                       -191.9888414742783596
  Basis Set: CC-PVTZ
  Basis Set:
  Basis Set: CC-PVTZ
  Basis Set:
  @DF-RHF Final Energy:  -191.99680105944378
    Total Energy =                       -191.9968010594436123
  Basis Set: CC-PVTZ
  Basis Set:
  Basis Set: CC-PVTZ
  Basis Set:
  @DF-RHF Final Energy:  -191.99696516722975
    Total Energy =                       -191.9969651672297459
  Basis Set: CC-PVTZ
  Basis Set:
  Basis Set: CC-PVTZ
  Basis Set:
  @DF-RHF Final Energy:  -191.99702079819332
    Total Energy =                       -191.9970207981933754
  Basis Set: CC-PVTZ
  Basis Set:
  Charge       = 0
  Multiplicity = 1
  Basis Set: CC-PVTZ
  Basis Set:

    Orbital Energies (a.u.)
    -----------------------

    Doubly Occupied:

       1A    -20.553363     2A    -11.278370     3A    -11.223636
       4A    -11.208054     5A     -1.373309     6A     -1.058407
       7A     -0.926736     8A     -0.757956     9A     -0.712041
      10A     -0.647513    11A     -0.615903    12A     -0.587716
      13A     -0.516042    14A     -0.497143    15A     -0.454363
      16A     -0.360806

  @DF-RHF Final Energy:  -191.99702104026534

   => Energetics <=

    Nuclear Repulsion Energy =            119.5284121735289773
    One-Electron Energy =                -497.5081452134859319
    Two-Electron Energy =                 185.9827119996917020
    DFT Exchange-Correlation Energy =       0.0000000000000000
    Empirical Dispersion Energy =           0.0000000000000000
    PCM Polarization Energy =               0.0000000000000000
    EFP Energy =                            0.0000000000000000
    Total Energy =                       -191.9970210402652526
    Molecular point group: c1
  Basis Set: CC-PVTZ
  Basis Set:

  -Total Gradient:
     Atom            X                  Y                   Z
    ------   -----------------  -----------------  -----------------
       1        0.000426201148     0.000274388348     0.000609078611
       2       -0.000590701632    -0.000542453341    -0.000824859509
       3        0.000668716934     0.000581153597     0.000518573049
       4       -0.000021528060     0.000011723533     0.000030405218
       5       -0.000469391687    -0.000356782969    -0.000320337880
       6       -0.000018898883     0.000022089967    -0.000000378941
       7       -0.000016898338    -0.000007124660     0.000049434937
       8       -0.000007362787     0.000010069495    -0.000017956431
       9        0.000014262220     0.000000024012    -0.000027606890
      10        0.000015601088     0.000006912019    -0.000016352165

  **** Optimization is complete! (in 7 steps) ****
    Final optimized geometry and variables:
    Molecular point group: c1

    Geometry (in Angstrom), charge = 0, multiplicity = 1:

    H           -0.221207668872    -2.134166700098     0.468126043453
    O            0.043860380093    -1.415179337534    -0.072460016317
    C           -0.878169960775    -0.368274504233     0.025027173542
    C           -0.202661126477     0.969759634787     0.022269233000
    H           -1.475785157702    -0.459301885453     0.929250213025
    H           -1.574238795754    -0.409708110228    -0.810244469429
    C            1.094882728965     1.173050709918    -0.000687212795
    H           -0.877665915518     1.809444168088     0.033726098005
    H            1.788727620175     0.355981803535    -0.019755238332
    H            1.496763366299     2.168579535582    -0.006077289855

  Mulliken Charges: (a.u.)
   Center  Symbol    Alpha    Beta     Spin     Total
       1     H     0.39087  0.39087  0.00000  0.21825
       2     O     4.19638  4.19638  0.00000 -0.39277
       3     C     2.94198  2.94198  0.00000  0.11605
       4     C     3.08006  3.08006  0.00000 -0.16012
       5     H     0.47437  0.47437  0.00000  0.05126
       6     H     0.47012  0.47012  0.00000  0.05975
       7     C     3.17195  3.17195  0.00000 -0.34391
       8     H     0.42414  0.42414  0.00000  0.15172
       9     H     0.42005  0.42005  0.00000  0.15991
      10     H     0.43007  0.43007  0.00000  0.13986

   Total alpha = 16.00000, Total beta = 16.00000, Total charge = -0.00000

*** Psi4 exiting successfully. Buy a developer a beer!
