  ==> Input File <==

--------------------------------------------------------------------------
set {
	reference rhf
	basis 6-31G*
}

set_num_threads( 4 )
memory 2 gb

molecule MOL {
0 1

O	 2.204373	 0.643602	 0.942767
C	 1.705091	 0.115954	 0.001797
C	 0.381791	 -0.609817	 0.001258
O	 2.261824	 0.101256	 -1.202765
C	 -0.823008	 0.326187	 0.001381
H	 0.371250	 -1.265087	 -0.865474
H	 0.370908	 -1.265746	 0.867490
C	 -2.149452	 -0.435131	 -0.000098
H	 -0.770201	 0.977095	 -0.865636
H	 -0.771220	 0.975655	 0.869608
C	 -3.368779	 0.488503	 -0.000883
H	 -2.193746	 -1.087250	 -0.871175
H	 -2.195311	 -1.087803	 0.870418
C	 -4.693822	 -0.272754	 -0.001129
H	 -3.325798	 1.139422	 -0.871284
H	 -3.326423	 1.139959	 0.869145
H	 -4.781274	 -0.907928	 -0.878124
H	 -5.538651	 0.408946	 -0.001420
H	 -4.781694	 -0.907783	 0.875984
C	 3.511668	 0.752194	 -1.341057
H	 3.423123	 1.800878	 -1.096211
H	 3.794078	 0.632173	 -2.375327
H	 4.250132	 0.298094	 -0.696099

	symmetry c1
}
set optking {
	frozen_dihedral = ("
		1 2 3 6
	")
}

ee = optimize('scf')
oeprop('DIPOLE', 'QUADRUPOLE', 'MULLIKEN_CHARGES')
f=open( 'psi4out.xyz', 'w' )
f.write( "23  " )
f.write( str(ee) + "\n" )
f.write( MOL.save_string_xyz() )
f.close()
--------------------------------------------------------------------------

    Molecular point group: c1
  Charge       = 0
  Multiplicity = 1
  Basis Set: 6-31G*
  Basis Set:
  @DF-RHF Final Energy:  -422.97398856867636
    Total Energy =                       -422.9739885686765319
    Molecular point group: c1
  Basis Set: 6-31G*
  Basis Set:
  Basis Set: 6-31G*
  Basis Set:
  @DF-RHF Final Energy:  -422.97456109934319
    Total Energy =                       -422.9745610993435321
  Basis Set: 6-31G*
  Basis Set:
  Basis Set: 6-31G*
  Basis Set:
  @DF-RHF Final Energy:  -422.97466822771651
    Total Energy =                       -422.9746682277163927
  Basis Set: 6-31G*
  Basis Set:
  Basis Set: 6-31G*
  Basis Set:
  @DF-RHF Final Energy:  -422.97478115135857
    Total Energy =                       -422.9747811513587976
  Basis Set: 6-31G*
  Basis Set:
  Basis Set: 6-31G*
  Basis Set:
  @DF-RHF Final Energy:  -422.97478223380546
    Total Energy =                       -422.9747822338051719
  Basis Set: 6-31G*
  Basis Set:
  Charge       = 0
  Multiplicity = 1
  Basis Set: 6-31G*
  Basis Set:

    Orbital Energies (a.u.)
    -----------------------

    Doubly Occupied:

       1A    -20.605061     2A    -20.541941     3A    -11.370642
       4A    -11.280476     5A    -11.233353     6A    -11.228947
       7A    -11.221531     8A    -11.219647     9A    -11.211805
      10A     -1.468746    11A     -1.360789    12A     -1.096607
      13A     -1.044962    14A     -0.985661    15A     -0.934276
      16A     -0.845821    17A     -0.798251    18A     -0.772521
      19A     -0.694357    20A     -0.679879    21A     -0.672517
      22A     -0.653366    23A     -0.606995    24A     -0.596831
      25A     -0.578039    26A     -0.571473    27A     -0.540829
      28A     -0.535048    29A     -0.523740    30A     -0.506325
      31A     -0.490995    32A     -0.475460    33A     -0.470089
      34A     -0.465407    35A     -0.452865    36A     -0.428718

  @DF-RHF Final Energy:  -422.97478279021925

   => Energetics <=

    Nuclear Repulsion Energy =            453.9573653940897202
    One-Electron Energy =               -1475.5363530380407155
    Two-Electron Energy =                 598.6042048537319715
    DFT Exchange-Correlation Energy =       0.0000000000000000
    Empirical Dispersion Energy =           0.0000000000000000
    PCM Polarization Energy =               0.0000000000000000
    EFP Energy =                            0.0000000000000000
    Total Energy =                       -422.9747827902190238
    Molecular point group: c1
  Basis Set: 6-31G*
  Basis Set:

  -Total Gradient:
     Atom            X                  Y                   Z
    ------   -----------------  -----------------  -----------------
       1       -0.000126919576     0.000219770985    -0.000062579932
       2        0.000143124321    -0.000270237699     0.000086084700
       3        0.000059609390    -0.000117353978     0.000132391620
       4        0.000009404463     0.000017600972    -0.000015271139
       5        0.000001853892    -0.000002896710     0.000022258639
       6       -0.000099962274     0.000177061877    -0.000142855589
       7       -0.000007243191    -0.000001941787    -0.000007178263
       8        0.000000459096    -0.000007537394     0.000010814780
       9        0.000006016457    -0.000021161743    -0.000006992146
      10       -0.000005354768     0.000014614482    -0.000005736120
      11        0.000007614850     0.000007473428     0.000006611106
      12        0.000001419092     0.000009181093    -0.000005667953
      13        0.000008464617    -0.000009390210    -0.000005047353
      14        0.000001331148    -0.000002427843    -0.000000174900
      15       -0.000004166188     0.000001235118    -0.000001699683
      16        0.000000470698     0.000001761716    -0.000001431099
      17       -0.000000797061    -0.000000651342    -0.000000321414
      18        0.000001696885     0.000000395760    -0.000000272167
      19        0.000000386002     0.000000461840     0.000000165473
      20        0.000001943942    -0.000024300420     0.000001951181
      21       -0.000006003056     0.000000250648    -0.000000698709
      22        0.000001149743     0.000001055815    -0.000002209578
      23        0.000005501504     0.000007035392    -0.000002141457

  **** Optimization is complete! (in 6 steps) ****
    Final optimized geometry and variables:
    Molecular point group: c1

    Geometry (in Angstrom), charge = 0, multiplicity = 1:

    O            2.241584117781     0.462647679358     1.143186097215
    C            1.772192720259    -0.064553728731     0.185524105916
    C            0.465795458269    -0.818495892695     0.183809693481
    O            2.330428621657    -0.017042125067    -1.016236665048
    C           -0.722564394750     0.154742640389     0.156555262523
    H            0.429349010389    -1.481841877741    -0.671260272315
    H            0.432620440972    -1.412893798351     1.089428927251
    C           -2.068571859277    -0.569768930074     0.190181943842
    H           -0.662177912437     0.767910388258    -0.739582697108
    H           -0.644283936140     0.827579918640     1.005183544732
    C           -3.262785985991     0.385941446019     0.167794670988
    H           -2.135095789155    -1.248558837940    -0.658226655789
    H           -2.120771985989    -1.189746094742     1.083365666944
    C           -4.606923533055    -0.340282197834     0.204061326451
    H           -3.211189586565     1.005478731138    -0.724884604594
    H           -3.195876661303     1.064646914498     1.015072351291
    H           -4.718274662506    -1.002507833957    -0.649878900006
    H           -5.433609153639     0.362958881149     0.186962328289
    H           -4.703296125201    -0.942152227707     1.103225510175
    C            3.541210880818     0.708323940172    -1.132413662226
    H            3.390889005511     1.743558412219    -0.861881905705
    H            3.833773486730     0.630431732246    -2.167924287259
    H            4.301714981240     0.281471015585    -0.494683591606

  Mulliken Charges: (a.u.)
   Center  Symbol    Alpha    Beta     Spin     Total
       1     O     4.28665  4.28665  0.00000 -0.57331
       2     C     2.61511  2.61511  0.00000  0.76979
       3     C     3.19556  3.19556  0.00000 -0.39112
       4     O     4.30266  4.30266  0.00000 -0.60533
       5     C     3.16565  3.16565  0.00000 -0.33130
       6     H     0.40276  0.40276  0.00000  0.19448
       7     H     0.40094  0.40094  0.00000  0.19811
       8     C     3.15197  3.15197  0.00000 -0.30395
       9     H     0.41445  0.41445  0.00000  0.17110
      10     H     0.40654  0.40654  0.00000  0.18691
      11     C     3.15251  3.15251  0.00000 -0.30502
      12     H     0.42206  0.42206  0.00000  0.15589
      13     H     0.42105  0.42105  0.00000  0.15790
      14     C     3.23985  3.23985  0.00000 -0.47971
      15     H     0.42194  0.42194  0.00000  0.15612
      16     H     0.42069  0.42069  0.00000  0.15862
      17     H     0.42140  0.42140  0.00000  0.15719
      18     H     0.41810  0.41810  0.00000  0.16380
      19     H     0.42092  0.42092  0.00000  0.15815
      20     C     3.09313  3.09313  0.00000 -0.18626
      21     H     0.40898  0.40898  0.00000  0.18203
      22     H     0.40867  0.40867  0.00000  0.18266
      23     H     0.40838  0.40838  0.00000  0.18324

   Total alpha = 36.00000, Total beta = 36.00000, Total charge = -0.00000
