  ==> Input File <==

--------------------------------------------------------------------------
set {
	reference rhf
	basis 6-31G*
}

set_num_threads( 1 )
memory 2 gb

molecule MOL {
0 1

H	 -1.678187	 -1.018811	 -0.998823
O	 -2.310168	 -0.871793	 -0.309793
C	 -2.026376	 0.340750	 0.341611
C	 -0.673256	 0.843270	 -0.132153
H	 -2.792215	 1.080697	 0.115987
H	 -2.013526	 0.200402	 1.421792
C	 0.486613	 -0.083066	 0.235839
H	 -0.715586	 0.970948	 -1.210718
H	 -0.508072	 1.829858	 0.297090
C	 1.840406	 0.433480	 -0.254303
H	 0.300215	 -1.068318	 -0.178947
H	 0.519509	 -0.203625	 1.318070
C	 3.000220	 -0.489290	 0.118523
H	 1.809207	 0.553576	 -1.335192
H	 2.021860	 1.424500	 0.157276
H	 2.864959	 -1.479103	 -0.307933
H	 3.946603	 -0.099227	 -0.243630
H	 3.080049	 -0.602997	 1.196117

	symmetry c1
}
set optking {
	frozen_dihedral = ("
		14 10 7 11,
		10 7 4 8,
		2 3 4 8
	")
}

ee = energy('scf')
oeprop('DIPOLE', 'QUADRUPOLE', 'MULLIKEN_CHARGES')
f=open( 'psi4out.xyz', 'w' )
f.write( "18  " )
f.write( str(ee) + "\n" )
f.write( MOL.save_string_xyz() )
f.close()
--------------------------------------------------------------------------

    Molecular point group: c1

    Geometry (in Angstrom), charge = 0, multiplicity = 1:

       Center              X                  Y                   Z               Mass
    ------------   -----------------  -----------------  -----------------  -----------------
           H         -1.694859295313    -1.021056447024    -0.987379875174     1.007825032070
           O         -2.326840295313    -0.874038447024    -0.298349875174    15.994914619560
           C         -2.043048295313     0.338504552976     0.353054124826    12.000000000000
           C         -0.689928295313     0.841024552976    -0.120709875174    12.000000000000
           H         -2.808887295313     1.078451552976     0.127430124826     1.007825032070
           H         -2.030198295313     0.198156552976     1.433235124826     1.007825032070
           C          0.469940704687    -0.085311447024     0.247282124826    12.000000000000
           H         -0.732258295313     0.968702552976    -1.199274875174     1.007825032070
           H         -0.524744295313     1.827612552976     0.308533124826     1.007825032070
           C          1.823733704687     0.431234552976    -0.242859875174    12.000000000000
           H          0.283542704687    -1.070563447024    -0.167503875174     1.007825032070
           H          0.502836704687    -0.205870447024     1.329513124826     1.007825032070
           C          2.983547704687    -0.491535447024     0.129966124826    12.000000000000
           H          1.792534704687     0.551330552976    -1.323748875174     1.007825032070
           H          2.005187704687     1.422254552976     0.168719124826     1.007825032070
           H          2.848286704687    -1.481348447024    -0.296489875174     1.007825032070
           H          3.929930704687    -0.101472447024    -0.232186875174     1.007825032070
           H          3.063376704687    -0.605242447024     1.207560124826     1.007825032070

  Charge       = 0
  Multiplicity = 1
  Basis Set: 6-31G*
  Basis Set:

    Orbital Energies (a.u.)
    -----------------------

    Doubly Occupied:

       1A    -20.548920     2A    -11.267907     3A    -11.223275
       4A    -11.222431     5A    -11.221779     6A    -11.213147
       7A     -1.358934     8A     -1.086060     9A     -1.014880
      10A     -0.922612    11A     -0.835302    12A     -0.798461
      13A     -0.663947    14A     -0.658152    15A     -0.636480
      16A     -0.615076    17A     -0.576517    18A     -0.561523
      19A     -0.541377    20A     -0.501376    21A     -0.490499
      22A     -0.479318    23A     -0.472119    24A     -0.452644
      25A     -0.428890

  @DF-RHF Final Energy:  -271.17479971138795

   => Energetics <=

    Nuclear Repulsion Energy =            250.4622538626333039
    One-Electron Energy =                -863.6906458059012266
    Two-Electron Energy =                 342.0535922318800317
    DFT Exchange-Correlation Energy =       0.0000000000000000
    Empirical Dispersion Energy =           0.0000000000000000
    PCM Polarization Energy =               0.0000000000000000
    EFP Energy =                            0.0000000000000000
    Total Energy =                       -271.1747997113879478

  Mulliken Charges: (a.u.)
   Center  Symbol    Alpha    Beta     Spin     Total
       1     H     0.27761  0.27761  0.00000  0.44479
       2     O     4.37663  4.37663  0.00000 -0.75327
       3     C     2.97456  2.97456  0.00000  0.05088
       4     C     3.19258  3.19258  0.00000 -0.38515
       5     H     0.42438  0.42438  0.00000  0.15125
       6     H     0.42380  0.42380  0.00000  0.15240
       7     C     3.15214  3.15214  0.00000 -0.30427
       8     H     0.42176  0.42176  0.00000  0.15649
       9     H     0.41807  0.41807  0.00000  0.16385
      10     C     3.15121  3.15121  0.00000 -0.30241
      11     H     0.42367  0.42367  0.00000  0.15265
      12     H     0.41918  0.41918  0.00000  0.16163
      13     C     3.23944  3.23944  0.00000 -0.47888
      14     H     0.42340  0.42340  0.00000  0.15320
      15     H     0.42164  0.42164  0.00000  0.15673
      16     H     0.42110  0.42110  0.00000  0.15781
      17     H     0.41831  0.41831  0.00000  0.16337
      18     H     0.42053  0.42053  0.00000  0.15894

   Total alpha = 25.00000, Total beta = 25.00000, Total charge =  0.00000
