  ==> Input File <==

--------------------------------------------------------------------------
set {
	reference rhf
	basis 6-31G*
}

set_num_threads( 4 )
memory 2 gb

molecule MOL {
0 1

H	 2.332609	 0.878551	 -1.051851
C	 2.357710	 0.000000	 -0.417167
C	 1.175432	 0.000000	 0.532082
H	 3.291263	 0.000000	 0.136880
H	 2.332609	 -0.878551	 -1.051851
O	 0.000000	 0.000000	 -0.221444
H	 1.206604	 0.877321	 1.177902
H	 1.206604	 -0.877321	 1.177902
C	 -1.175432	 0.000000	 0.532082
C	 -0.806543	 0.024748	 2.002511
H	 -1.767100	 -0.886264	 0.303579
H	 -1.783406	 0.868118	 0.278142
H	 -0.211211	 -0.844705	 2.257337
H	 -1.699736	 0.025392	 2.619517
H	 -0.227540	 0.912137	 2.231864

	symmetry c1
}
set optking {
	frozen_dihedral = ("
		11 9 6 3
	")
}

ee = optimize('scf')
oeprop('DIPOLE', 'QUADRUPOLE', 'MULLIKEN_CHARGES')
f=open( 'psi4out.xyz', 'w' )
f.write( "15  " )
f.write( str(ee) + "\n" )
f.write( MOL.save_string_xyz() )
f.close()
--------------------------------------------------------------------------

    Molecular point group: c1
  Charge       = 0
  Multiplicity = 1
  Basis Set: 6-31G*
  Basis Set:
  @DF-RHF Final Energy:  -232.11488835154668
    Total Energy =                       -232.1148883515469379
    Molecular point group: c1
  Basis Set: 6-31G*
  Basis Set:
  Basis Set: 6-31G*
  Basis Set:
  @DF-RHF Final Energy:  -232.12123382565258
    Total Energy =                       -232.1212338256525527
  Basis Set: 6-31G*
  Basis Set:
  Basis Set: 6-31G*
  Basis Set:
  @DF-RHF Final Energy:  -232.12888063287156
    Total Energy =                       -232.1288806328715282
  Basis Set: 6-31G*
  Basis Set:
  Basis Set: 6-31G*
  Basis Set:
  @DF-RHF Final Energy:  -232.13213787042611
    Total Energy =                       -232.1321378704262202
  Basis Set: 6-31G*
  Basis Set:
  @DF-RHF Final Energy:  -232.13275846875271
    Total Energy =                       -232.1327584687527974
  @DF-RHF Final Energy:  -232.13365933285212
    Total Energy =                       -232.1336593328520053
  Basis Set: 6-31G*
  Basis Set:
  @DF-RHF Final Energy:  -232.13384339490668
    Total Energy =                       -232.1338433949063074
  Basis Set: 6-31G*
  Basis Set:
  Basis Set: 6-31G*
  Basis Set:
  @DF-RHF Final Energy:  -232.13386316844816
    Total Energy =                       -232.1338631684481015
  Basis Set: 6-31G*
  Basis Set:
  Basis Set: 6-31G*
  Basis Set:
  @DF-RHF Final Energy:  -232.13386427323215
    Total Energy =                       -232.1338642732319499
  Basis Set: 6-31G*
  Basis Set:
  Charge       = 0
  Multiplicity = 1
  Basis Set: 6-31G*
  Basis Set:

    Orbital Energies (a.u.)
    -----------------------

    Doubly Occupied:

       1A    -20.544115     2A    -11.268624     3A    -11.267076
       4A    -11.218044     5A    -11.206448     6A     -1.365816
       7A     -1.040222     8A     -0.991189     9A     -0.871927
      10A     -0.795645    11A     -0.672501    12A     -0.662782
      13A     -0.609264    14A     -0.605183    15A     -0.548140
      16A     -0.533938    17A     -0.522728    18A     -0.501811
      19A     -0.501303    20A     -0.449015    21A     -0.397880

  @DF-RHF Final Energy:  -232.13386434858077

   => Energetics <=

    Nuclear Repulsion Energy =            192.9137489182080856
    One-Electron Energy =                -696.9479251614361601
    Two-Electron Energy =                 271.9003118946473023
    DFT Exchange-Correlation Energy =       0.0000000000000000
    Empirical Dispersion Energy =           0.0000000000000000
    PCM Polarization Energy =               0.0000000000000000
    EFP Energy =                            0.0000000000000000
    Total Energy =                       -232.1338643485808007
    Molecular point group: c1
  Basis Set: 6-31G*
  Basis Set:

  -Total Gradient:
     Atom            X                  Y                   Z
    ------   -----------------  -----------------  -----------------
       1       -0.000002056647     0.000000309025     0.000002428089
       2       -0.000011074030    -0.000006286475    -0.000001814895
       3        0.000001513528     0.000766605408     0.000024887268
       4       -0.000005100852    -0.000001753081     0.000003112507
       5        0.000002417108    -0.000001428801    -0.000004168757
       6       -0.000091489404    -0.001027591968    -0.000175388698
       7        0.000010428393    -0.000005628610    -0.000001998219
       8       -0.000004515457    -0.000006215857    -0.000000706440
       9        0.000475283074    -0.000151227328     0.000775402812
      10       -0.000004376389     0.000002250769     0.000002354814
      11       -0.000371414881     0.000437238128    -0.000621478438
      12        0.000003137912     0.000000044518    -0.000003886246
      13        0.000006985106    -0.000002521038    -0.000001622237
      14       -0.000001464863    -0.000000043239     0.000004322389
      15       -0.000008272596    -0.000003751452    -0.000001443947

  **** Optimization is complete! (in 10 steps) ****
    Final optimized geometry and variables:
    Molecular point group: c1

    Geometry (in Angstrom), charge = 0, multiplicity = 1:

    H            1.969579984709     0.893785973378    -1.676543234951
    C            2.062471098806     0.000560951965    -1.069266803101
    C            0.990493361586    -0.021923781746     0.003984650791
    H            3.051129568787    -0.012550019535    -0.620182373523
    H            1.965244699038    -0.862428183309    -1.718122234598
    O           -0.248596130229    -0.003919501312    -0.643023592475
    H            1.105344048036     0.839012033072     0.657608770207
    H            1.100740437359    -0.914224544736     0.616015560421
    C           -1.454146532085    -0.012048505154     0.084220118454
    C           -1.358630516380     0.036221874339     1.605186093027
    H           -2.003184078297    -0.901877365242    -0.209294088403
    H           -2.032801734046     0.840979895548    -0.256131569500
    H           -0.831103816151    -0.818415989858     2.012879112370
    H           -2.365582779044     0.024641397398     2.011046066968
    H           -0.873835707682     0.939817522237     1.956636784381

  Mulliken Charges: (a.u.)
   Center  Symbol    Alpha    Beta     Spin     Total
       1     H     0.41400  0.41400  0.00000  0.17201
       2     C     3.24198  3.24198  0.00000 -0.48395
       3     C     2.98507  2.98507  0.00000  0.02985
       4     H     0.42396  0.42396  0.00000  0.15209
       5     H     0.41390  0.41390  0.00000  0.17219
       6     O     4.32132  4.32132  0.00000 -0.64264
       7     H     0.43173  0.43173  0.00000  0.13653
       8     H     0.43222  0.43222  0.00000  0.13556
       9     C     2.97432  2.97432  0.00000  0.05136
      10     C     3.26885  3.26885  0.00000 -0.53769
      11     H     0.42498  0.42498  0.00000  0.15003
      12     H     0.42380  0.42380  0.00000  0.15239
      13     H     0.41501  0.41501  0.00000  0.16999
      14     H     0.41413  0.41413  0.00000  0.17174
      15     H     0.41474  0.41474  0.00000  0.17053

   Total alpha = 21.00000, Total beta = 21.00000, Total charge =  0.00000
