  ==> Input File <==

--------------------------------------------------------------------------
set {
	reference rhf
	basis 6-31G*
}

set_num_threads( 4 )
memory 2 gb

molecule MOL {
0 1

O	 -2.439739	 -0.935931	 -0.423848
C	 -1.921153	 0.064240	 -0.045697
C	 -2.624470	 1.379923	 0.150949
O	 -0.632575	 0.154573	 0.251549
H	 -2.168117	 2.136577	 -0.476876
H	 -3.669540	 1.273223	 -0.098610
H	 -2.519365	 1.700893	 1.180846
C	 0.160891	 -1.019931	 0.106212
C	 1.589627	 -0.672828	 0.480843
H	 0.089836	 -1.367806	 -0.916050
H	 -0.238459	 -1.792301	 0.749618
C	 2.246377	 0.346236	 -0.452210
H	 2.163194	 -1.597435	 0.473358
H	 1.604769	 -0.303424	 1.502885
C	 1.327844	 0.769242	 -1.597795
H	 2.535576	 1.223906	 0.122384
H	 3.161392	 -0.074453	 -0.856101
H	 1.816269	 1.490670	 -2.245109
H	 0.415539	 1.225199	 -1.223521
H	 1.044372	 -0.083543	 -2.208107

	symmetry c1
}
set optking {
	frozen_dihedral = ("
		16 12 9 8
	")
}

ee = optimize('scf')
oeprop('DIPOLE', 'QUADRUPOLE', 'MULLIKEN_CHARGES')
f=open( 'psi4out.xyz', 'w' )
f.write( "20  " )
f.write( str(ee) + "\n" )
f.write( MOL.save_string_xyz() )
f.close()
--------------------------------------------------------------------------

    Molecular point group: c1
  Charge       = 0
  Multiplicity = 1
  Basis Set: 6-31G*
  Basis Set:
  @DF-RHF Final Energy:  -383.92830583702988
    Total Energy =                       -383.9283058370303934
    Molecular point group: c1
  Basis Set: 6-31G*
  Basis Set:
  Basis Set: 6-31G*
  Basis Set:
  @DF-RHF Final Energy:  -383.93349997550257
    Total Energy =                       -383.9334999755025137
  Basis Set: 6-31G*
  Basis Set:
  Basis Set: 6-31G*
  Basis Set:
  @DF-RHF Final Energy:  -383.93525793150684
    Total Energy =                       -383.9352579315068397
  Basis Set: 6-31G*
  Basis Set:
  Basis Set: 6-31G*
  Basis Set:
  @DF-RHF Final Energy:  -383.93550162347998
    Total Energy =                       -383.9355016234801496
  Basis Set: 6-31G*
  Basis Set:
  @DF-RHF Final Energy:  -383.93548211613842
    Total Energy =                       -383.9354821161383597
  @DF-RHF Final Energy:  -383.93605570035538
    Total Energy =                       -383.9360557003553822
  Basis Set: 6-31G*
  Basis Set:
  @DF-RHF Final Energy:  -383.93606997807984
    Total Energy =                       -383.9360699780797859
  Basis Set: 6-31G*
  Basis Set:
  Basis Set: 6-31G*
  Basis Set:
  @DF-RHF Final Energy:  -383.93608939921040
    Total Energy =                       -383.9360893992101182
  Basis Set: 6-31G*
  Basis Set:
  Basis Set: 6-31G*
  Basis Set:
  @DF-RHF Final Energy:  -383.93609051773711
    Total Energy =                       -383.9360905177375116
  Basis Set: 6-31G*
  Basis Set:
  Charge       = 0
  Multiplicity = 1
  Basis Set: 6-31G*
  Basis Set:

    Orbital Energies (a.u.)
    -----------------------

    Doubly Occupied:

       1A    -20.601477     2A    -20.544003     3A    -11.374335
       4A    -11.282119     5A    -11.233448     6A    -11.226269
       7A    -11.222573     8A    -11.211318     9A     -1.467587
      10A     -1.361858    11A     -1.081430    12A     -1.025796
      13A     -0.979822    14A     -0.893025    15A     -0.800512
      16A     -0.773167    17A     -0.689613    18A     -0.687758
      19A     -0.662936    20A     -0.626793    21A     -0.612454
      22A     -0.579927    23A     -0.570022    24A     -0.557563
      25A     -0.544060    26A     -0.526712    27A     -0.521679
      28A     -0.478212    29A     -0.473043    30A     -0.467211
      31A     -0.447198    32A     -0.437366

  @DF-RHF Final Energy:  -383.93609057779480

   => Energetics <=

    Nuclear Repulsion Energy =            393.8383827837790818
    One-Electron Energy =               -1303.6263736182686443
    Two-Electron Energy =                 525.8519002566947620
    DFT Exchange-Correlation Energy =       0.0000000000000000
    Empirical Dispersion Energy =           0.0000000000000000
    PCM Polarization Energy =               0.0000000000000000
    EFP Energy =                            0.0000000000000000
    Total Energy =                       -383.9360905777948574
    Molecular point group: c1
  Basis Set: 6-31G*
  Basis Set:

  -Total Gradient:
     Atom            X                  Y                   Z
    ------   -----------------  -----------------  -----------------
       1       -0.000009316022    -0.000005195489     0.000001366853
       2        0.000009367797     0.000007614494    -0.000004768062
       3       -0.000001490633    -0.000000323000    -0.000004053312
       4       -0.000004872894     0.000005684270    -0.000020162104
       5        0.000000907657    -0.000001209142     0.000003263928
       6       -0.000000484750    -0.000000032746     0.000001092887
       7       -0.000001699052    -0.000000432402     0.000002652387
       8        0.000710920661    -0.001635892568    -0.001075221457
       9       -0.000482641512     0.002096260015     0.001753066319
      10       -0.000007277623     0.000012019199    -0.000003693223
      11       -0.000001696688    -0.000003962264    -0.000001988487
      12       -0.002546350139     0.000741873089    -0.001346905277
      13        0.000001549283    -0.000000054486    -0.000001108508
      14       -0.000002237283    -0.000000889167    -0.000002596454
      15        0.000001328595    -0.000006586842     0.000012170396
      16        0.002344397977    -0.001206943690     0.000686016515
      17       -0.000000308861    -0.000001545858     0.000001889806
      18        0.000003118238     0.000001465346    -0.000001561600
      19       -0.000011314727    -0.000001235732     0.000000975115
      20       -0.000001900023    -0.000000613022    -0.000000435721

  **** Optimization is complete! (in 10 steps) ****
    Final optimized geometry and variables:
    Molecular point group: c1

    Geometry (in Angstrom), charge = 0, multiplicity = 1:

    O           -2.194854474694    -0.987267745412    -0.143859468930
    C           -1.691988115443     0.024289828636     0.225572138462
    C           -2.429613015620     1.311381154649     0.478859385853
    O           -0.394962380066     0.152729151615     0.466580780890
    H           -2.041788209880     2.088917949601    -0.169390640769
    H           -3.483431187285     1.167692417292     0.292596921953
    H           -2.272413743092     1.629199383683     1.503006852795
    C            0.427741748723    -0.995554108777     0.269219185595
    C            1.855287521989    -0.635927558978     0.642105623575
    H            0.333894840866    -1.325595906021    -0.754939728135
    H            0.064329673861    -1.790869317838     0.905806460472
    C            2.630146257691     0.330347622698    -0.296054617072
    H            2.394015771997    -1.578046138811     0.699942066204
    H            1.841665517716    -0.237349206369     1.650866589285
    C            1.935545978871     0.769049762142    -1.587100392017
    H            2.917935775886     1.211279299282     0.268748914197
    H            3.568101780972    -0.145597107687    -0.568095848642
    H            2.587592060145     1.433530329100    -2.145374292872
    H            1.011665443916     1.298397503047    -1.389733030646
    H            1.709350024340    -0.074995285795    -2.231385457073

  Mulliken Charges: (a.u.)
   Center  Symbol    Alpha    Beta     Spin     Total
       1     O     4.28340  4.28340  0.00000 -0.56679
       2     C     2.61928  2.61928  0.00000  0.76143
       3     C     3.28181  3.28181  0.00000 -0.56362
       4     O     4.30888  4.30888  0.00000 -0.61776
       5     H     0.40087  0.40087  0.00000  0.19825
       6     H     0.39683  0.39683  0.00000  0.20634
       7     H     0.40061  0.40061  0.00000  0.19878
       8     C     3.00546  3.00546  0.00000 -0.01092
       9     C     3.16884  3.16884  0.00000 -0.33769
      10     H     0.40848  0.40848  0.00000  0.18305
      11     H     0.40773  0.40773  0.00000  0.18455
      12     C     3.15528  3.15528  0.00000 -0.31055
      13     H     0.41629  0.41629  0.00000  0.16743
      14     H     0.41076  0.41076  0.00000  0.17848
      15     C     3.24684  3.24684  0.00000 -0.49368
      16     H     0.41694  0.41694  0.00000  0.16612
      17     H     0.41946  0.41946  0.00000  0.16108
      18     H     0.41824  0.41824  0.00000  0.16353
      19     H     0.41257  0.41257  0.00000  0.17485
      20     H     0.42144  0.42144  0.00000  0.15713

   Total alpha = 32.00000, Total beta = 32.00000, Total charge = -0.00000
