  ==> Input File <==

--------------------------------------------------------------------------
set {
	reference rhf
	basis 6-31G*
}

set_num_threads( 4 )
memory 2 gb

molecule MOL {
0 1

H	 -3.042581	 -0.665861	 0.004336
O	 -2.245037	 -1.176175	 0.000806
C	 -1.162163	 -0.365336	 0.001020
C	 -0.031121	 -0.636308	 0.749784
C	 -1.223993	 0.775569	 -0.789767
H	 0.017195	 -1.518810	 1.365274
C	 1.038389	 0.246574	 0.699007
H	 -2.119021	 0.956217	 -1.356694
C	 -0.156436	 1.654681	 -0.840736
H	 1.918580	 0.040180	 1.281849
C	 0.983445	 1.381583	 -0.084390
C	 -0.213057	 2.883092	 -1.718746
H	 1.819808	 2.057678	 -0.111255
H	 0.182689	 3.751295	 -1.202608
H	 -1.228978	 3.106096	 -2.022116
H	 0.378218	 2.740478	 -2.618970

	symmetry c1
}
set optking {
	frozen_dihedral = ("
		5 3 2 1
	")
}

ee = optimize('scf')
oeprop('DIPOLE', 'QUADRUPOLE', 'MULLIKEN_CHARGES')
f=open( 'psi4out.xyz', 'w' )
f.write( "16  " )
f.write( str(ee) + "\n" )
f.write( MOL.save_string_xyz() )
f.close()
--------------------------------------------------------------------------

    Molecular point group: c1
  Charge       = 0
  Multiplicity = 1
  Basis Set: 6-31G*
  Basis Set:
  @DF-RHF Final Energy:  -344.59142403172643
    Total Energy =                       -344.5914240317263193
    Molecular point group: c1
  Basis Set: 6-31G*
  Basis Set:
  Basis Set: 6-31G*
  Basis Set:
  @DF-RHF Final Energy:  -344.59302918342166
    Total Energy =                       -344.5930291834214927
  Basis Set: 6-31G*
  Basis Set:
  Basis Set: 6-31G*
  Basis Set:
  @DF-RHF Final Energy:  -344.59315008354361
    Total Energy =                       -344.5931500835438328
  Basis Set: 6-31G*
  Basis Set:
  Basis Set: 6-31G*
  Basis Set:
  @DF-RHF Final Energy:  -344.59316370327252
    Total Energy =                       -344.5931637032722392
  Basis Set: 6-31G*
  Basis Set:
  Basis Set: 6-31G*
  Basis Set:
  @DF-RHF Final Energy:  -344.59316721330077
    Total Energy =                       -344.5931672133008306
  Basis Set: 6-31G*
  Basis Set:
  Charge       = 0
  Multiplicity = 1
  Basis Set: 6-31G*
  Basis Set:

    Orbital Energies (a.u.)
    -----------------------

    Doubly Occupied:

       1A    -20.583162     2A    -11.292214     3A    -11.243077
       4A    -11.232613     5A    -11.223161     6A    -11.222376
       7A    -11.218159     8A    -11.217877     9A     -1.400191
      10A     -1.149934    11A     -1.043865    12A     -1.003171
      13A     -0.937906    14A     -0.836405    15A     -0.799832
      16A     -0.724713    17A     -0.678477    18A     -0.648860
      19A     -0.608609    20A     -0.592080    21A     -0.577156
      22A     -0.567221    23A     -0.556890    24A     -0.527476
      25A     -0.502683    26A     -0.481479    27A     -0.465860
      28A     -0.329860    29A     -0.309510

  @DF-RHF Final Energy:  -344.59316817254137

   => Energetics <=

    Nuclear Repulsion Energy =            345.3348650091086256
    One-Electron Energy =               -1151.9064350611640748
    Two-Electron Energy =                 461.9784018795140241
    DFT Exchange-Correlation Energy =       0.0000000000000000
    Empirical Dispersion Energy =           0.0000000000000000
    PCM Polarization Energy =               0.0000000000000000
    EFP Energy =                            0.0000000000000000
    Total Energy =                       -344.5931681725414251
    Molecular point group: c1
  Basis Set: 6-31G*
  Basis Set:

  -Total Gradient:
     Atom            X                  Y                   Z
    ------   -----------------  -----------------  -----------------
       1        0.000023135118     0.000073968355     0.002603286776
       2        0.000330615106    -0.000658001922    -0.004021970639
       3       -0.001192399776     0.001556938935     0.002909483604
       4        0.000100776777     0.000036966943     0.000004239633
       5        0.000724398725    -0.000996211152    -0.001473152438
       6       -0.000024073277    -0.000009315064    -0.000009909735
       7       -0.000032777221    -0.000037370837     0.000027812544
       8        0.000026055648    -0.000004230364     0.000005685505
       9        0.000054762939     0.000008873491    -0.000010350035
      10       -0.000001223763     0.000006731054    -0.000000489821
      11       -0.000015373745     0.000007599988    -0.000042288491
      12        0.000011399115    -0.000003479893     0.000003479032
      13       -0.000003619931     0.000005997658    -0.000012988611
      14       -0.000013058147     0.000010992257     0.000015341177
      15       -0.000003741550    -0.000003327756    -0.000016454221
      16        0.000015123986     0.000003868306     0.000018275720

  **** Optimization is complete! (in 6 steps) ****
    Final optimized geometry and variables:
    Molecular point group: c1

    Geometry (in Angstrom), charge = 0, multiplicity = 1:

    H           -2.605227789142    -1.355150902789     0.290218576673
    O           -1.775348841414    -1.811214884349     0.301329465608
    C           -0.744354920524    -0.924138704765     0.267166318130
    C            0.387374559921    -1.210164746904     1.009454472553
    C           -0.792731136089     0.209022679441    -0.531834987706
    H            0.407995695834    -2.095595888915     1.616824703692
    C            1.464296308588    -0.341889655788     0.951378660730
    H           -1.674527939468     0.400448626377    -1.120120955394
    C            0.281779220240     1.086363787988    -0.582459869871
    H            2.346429371726    -0.555259539949     1.528736238180
    C            1.415611914621     0.799777254790     0.170088097485
    C            0.235373898679     2.312442123811    -1.464776747364
    H            2.258833765005     1.467598367300     0.142856514359
    H            0.648264364923     3.176714515078    -0.955594772712
    H           -0.779930308436     2.550772354802    -1.759910858111
    H            0.815427689779     2.158766453289    -2.370380585496

  Mulliken Charges: (a.u.)
   Center  Symbol    Alpha    Beta     Spin     Total
       1     H     0.27263  0.27263  0.00000  0.45474
       2     O     4.38273  4.38273  0.00000 -0.76547
       3     C     2.79783  2.79783  0.00000  0.40435
       4     C     3.12585  3.12585  0.00000 -0.25171
       5     C     3.15202  3.15202  0.00000 -0.30405
       6     H     0.39297  0.39297  0.00000  0.21405
       7     C     3.08985  3.08985  0.00000 -0.17971
       8     H     0.40424  0.40424  0.00000  0.19152
       9     C     2.97059  2.97059  0.00000  0.05883
      10     H     0.39853  0.39853  0.00000  0.20294
      11     C     3.12204  3.12204  0.00000 -0.24408
      12     C     3.25431  3.25431  0.00000 -0.50862
      13     H     0.40310  0.40310  0.00000  0.19379
      14     H     0.41130  0.41130  0.00000  0.17739
      15     H     0.41384  0.41384  0.00000  0.17231
      16     H     0.40815  0.40815  0.00000  0.18371

   Total alpha = 29.00000, Total beta = 29.00000, Total charge = -0.00000
