                              Psi4 1.0.54 Driver

  ==> Input File <==

--------------------------------------------------------------------------
set {
	reference rhf
	basis cc-pvtz
}

set_num_threads( 4 )
memory 2 gb

molecule MOL {
0 1

H	 -0.983774	 2.153214	 1.134748
C	 -0.828681	 1.210924	 0.653113
C	 -1.904799	 0.488996	 0.044884
C	 0.389137	 0.665788	 0.600396
H	 -2.896477	 0.900209	 0.070083
C	 -1.683445	 -0.686992	 -0.550627
H	 1.244502	 1.145838	 1.032881
N	 0.640204	 -0.530428	 -0.000115
H	 -2.463468	 -1.254067	 -1.015333
C	 -0.354333	 -1.278252	 -0.606321
C	 2.006991	 -1.033007	 -0.000020
O	 -0.115721	 -2.331488	 -1.131680
H	 2.182444	 -1.636914	 -0.880881
H	 2.678769	 -0.195442	 -0.002236
H	 2.183828	 -1.633244	 0.883082

	symmetry c1
}
set optking {
	frozen_dihedral = ("
		10 8 11 13
	")
}

ee,wfn = optimize('scf', return_wfn=True)
oeprop( wfn, 'DIPOLE', 'QUADRUPOLE', 'MULLIKEN_CHARGES')
f=open( 'psi4out.xyz', 'w' )
f.write( "15  " )
f.write( str(ee) + "\n" )
f.write( MOL.save_string_xyz() )
f.close()
--------------------------------------------------------------------------

    Molecular point group: c1
  Charge       = 0
  Multiplicity = 1
  Basis Set: CC-PVTZ
  Basis Set:
  @DF-RHF Final Energy:  -360.72266030161819
    Total Energy =                       -360.7226603016181343
    Molecular point group: c1
  Basis Set: CC-PVTZ
  Basis Set:
  Basis Set: CC-PVTZ
  Basis Set:
  @DF-RHF Final Energy:  -360.72295313852720
    Total Energy =                       -360.7229531385271457
  Basis Set: CC-PVTZ
  Basis Set:
  Basis Set: CC-PVTZ
  Basis Set:
  @DF-RHF Final Energy:  -360.72296423892641
    Total Energy =                       -360.7229642389264654
  Basis Set: CC-PVTZ
  Basis Set:
  Basis Set: CC-PVTZ
  Basis Set:
  @DF-RHF Final Energy:  -360.72299017657684
    Total Energy =                       -360.7229901765765590
  Basis Set: CC-PVTZ
  Basis Set:
  Charge       = 0
  Multiplicity = 1
  Basis Set: CC-PVTZ
  Basis Set:

    Orbital Energies (a.u.)
    -----------------------

    Doubly Occupied:

       1A    -20.501870     2A    -15.617188     3A    -11.338604
       4A    -11.293867     5A    -11.264758     6A    -11.258154
       7A    -11.230067     8A    -11.228061     9A     -1.390900
      10A     -1.285833    11A     -1.118810    12A     -1.029058
      13A     -0.972507    14A     -0.876157    15A     -0.838790
      16A     -0.719366    17A     -0.702562    18A     -0.663743
      19A     -0.652844    20A     -0.625748    21A     -0.611902
      22A     -0.575209    23A     -0.554964    24A     -0.550715
      25A     -0.530330    26A     -0.483773    27A     -0.420589
      28A     -0.410430    29A     -0.310498

  @DF-RHF Final Energy:  -360.72299267668495

   => Energetics <=

    Nuclear Repulsion Energy =            358.6483517507557508
    One-Electron Energy =               -1200.6280971284036241
    Two-Electron Energy =                 481.2567527009630339
    DFT Exchange-Correlation Energy =       0.0000000000000000
    Empirical Dispersion Energy =           0.0000000000000000
    PCM Polarization Energy =               0.0000000000000000
    EFP Energy =                            0.0000000000000000
    Total Energy =                       -360.7229926766848394
    Molecular point group: c1
  Basis Set: CC-PVTZ
  Basis Set:

  -Total Gradient:
     Atom            X                  Y                   Z
    ------   -----------------  -----------------  -----------------
       1       -0.000009919661    -0.000000452008     0.000006861928
       2        0.000068330400    -0.000034874483     0.000015562862
       3       -0.000043511518    -0.000035910537    -0.000036474882
       4       -0.000079632434     0.000106006179    -0.000037331091
       5        0.000002757752     0.000009190126     0.000007791685
       6       -0.000055665207     0.000047169883     0.000017030289
       7        0.000018130544    -0.000030116543     0.000005615678
       8       -0.000232009601    -0.000769693148     0.001020597560
       9        0.000012168906    -0.000002510090     0.000003455071
      10        0.000183259677     0.000427070234    -0.000573261175
      11        0.000378589922     0.001055498508    -0.000822938891
      12        0.000010628829    -0.000017112528    -0.000017159148
      13       -0.000198447627    -0.000749432730     0.000376621063
      14       -0.000051445918    -0.000027711860     0.000008418586
      15       -0.000003234065     0.000022878992     0.000025210465

  **** Optimization is complete! (in 5 steps) ****
    Final optimized geometry and variables:
    Molecular point group: c1

    Geometry (in Angstrom), charge = 0, multiplicity = 1:

    H           -0.858147225182     2.624700280093     1.271853584471
    C           -0.684011351219     1.685711915914     0.790284518115
    C           -1.744736279324     0.943794089004     0.180284389763
    C            0.546733902207     1.168632773290     0.734208039828
    H           -2.743951338770     1.336474361745     0.204161297706
    C           -1.500568202066    -0.227678024053    -0.416301690656
    H            1.390976271334     1.668564571669     1.164784345064
    N            0.820830547051    -0.019281608457     0.129458756880
    H           -2.269008420371    -0.810371855211    -0.881150664421
    C           -0.161588571914    -0.794615402322    -0.460133082649
    C            2.186416891561    -0.522987416159     0.122223047385
    O            0.104536036804    -1.853829148345    -0.959753733549
    H            2.331284664243    -1.133546344244    -0.751069897697
    H            2.873820473778     0.309759218794     0.108288981354
    H            2.377595317224    -1.130454425081     0.998158019193

  Mulliken Charges: (a.u.)
   Center  Symbol    Alpha    Beta     Spin     Total
       1     H     0.41389  0.41389  0.00000  0.17221
       2     C     3.10447  3.10447  0.00000 -0.20894
       3     C     3.06105  3.06105  0.00000 -0.12210
       4     C     3.03419  3.03419  0.00000 -0.06837
       5     H     0.41841  0.41841  0.00000  0.16319
       6     C     3.11787  3.11787  0.00000 -0.23575
       7     H     0.42133  0.42133  0.00000  0.15734
       8     N     3.51061  3.51061  0.00000 -0.02123
       9     H     0.40905  0.40905  0.00000  0.18189
      10     C     2.84521  2.84521  0.00000  0.30958
      11     C     3.09941  3.09941  0.00000 -0.19881
      12     O     4.23627  4.23627  0.00000 -0.47254
      13     H     0.42719  0.42719  0.00000  0.14562
      14     H     0.45469  0.45469  0.00000  0.09062
      15     H     0.44635  0.44635  0.00000  0.10730

   Total alpha = 29.00000, Total beta = 29.00000, Total charge = -0.00000

*** Psi4 exiting successfully. Buy a developer a beer!
