  ==> Input File <==

--------------------------------------------------------------------------
set {
	reference rhf
	basis 6-31G*
}

set_num_threads( 4 )
memory 2 gb

molecule MOL {
0 1

O	 1.613748	 -0.377385	 -0.278528
C	 0.576249	 0.131685	 -0.000108
C	 -0.766779	 -0.556801	 -0.000461
O	 0.464009	 1.404890	 0.356282
C	 -1.945214	 0.412366	 0.000161
H	 -0.796911	 -1.211249	 -0.867467
H	 -0.796854	 -1.212390	 0.865687
C	 -3.287791	 -0.317055	 0.000105
H	 -1.876087	 1.060580	 -0.866812
H	 -1.875822	 1.059691	 0.867761
H	 -3.394745	 -0.949193	 -0.877058
H	 -4.111778	 0.388953	 0.000015
H	 -3.394954	 -0.949187	 0.877259
C	 1.655988	 2.168241	 0.397388
H	 2.351984	 1.747933	 1.109056
H	 1.360931	 3.159697	 0.703691
H	 2.120661	 2.200158	 -0.577584

	symmetry c1
}
set optking {
	frozen_dihedral = ("
		1 2 3 6
	")
}

ee = optimize('scf')
oeprop('DIPOLE', 'QUADRUPOLE', 'MULLIKEN_CHARGES')
f=open( 'psi4out.xyz', 'w' )
f.write( "17  " )
f.write( str(ee) + "\n" )
f.write( MOL.save_string_xyz() )
f.close()
--------------------------------------------------------------------------

    Molecular point group: c1
  Charge       = 0
  Multiplicity = 1
  Basis Set: 6-31G*
  Basis Set:
  @DF-RHF Final Energy:  -344.90317410447943
    Total Energy =                       -344.9031741044794899
    Molecular point group: c1
  Basis Set: 6-31G*
  Basis Set:
  Basis Set: 6-31G*
  Basis Set:
  @DF-RHF Final Energy:  -344.90341265114461
    Total Energy =                       -344.9034126511448903
  Basis Set: 6-31G*
  Basis Set:
  Basis Set: 6-31G*
  Basis Set:
  @DF-RHF Final Energy:  -344.90428598912661
    Total Energy =                       -344.9042859891261514
  Basis Set: 6-31G*
  Basis Set:
  Basis Set: 6-31G*
  Basis Set:
  @DF-RHF Final Energy:  -344.90428198054002
    Total Energy =                       -344.9042819805402473
  Basis Set: 6-31G*
  Basis Set:
  Basis Set: 6-31G*
  Basis Set:
  @DF-RHF Final Energy:  -344.90439546722916
    Total Energy =                       -344.9043954672291648
  Basis Set: 6-31G*
  Basis Set:
  Basis Set: 6-31G*
  Basis Set:
  @DF-RHF Final Energy:  -344.90441219840051
    Total Energy =                       -344.9044121984006779
  Basis Set: 6-31G*
  Basis Set:
  Charge       = 0
  Multiplicity = 1
  Basis Set: 6-31G*
  Basis Set:

    Orbital Energies (a.u.)
    -----------------------

    Doubly Occupied:

       1A    -20.606772     2A    -20.541117     3A    -11.372744
       4A    -11.281903     5A    -11.236282     6A    -11.226289
       7A    -11.216900     8A     -1.470572     9A     -1.361327
      10A     -1.082994    11A     -0.997398    12A     -0.943263
      13A     -0.831263    14A     -0.775139    15A     -0.696825
      16A     -0.683735    17A     -0.670243    18A     -0.638110
      19A     -0.595721    20A     -0.572361    21A     -0.558315
      22A     -0.531353    23A     -0.523110    24A     -0.516102
      25A     -0.489788    26A     -0.483239    27A     -0.452748
      28A     -0.430592

  @DF-RHF Final Energy:  -344.90441225299139

   => Energetics <=

    Nuclear Repulsion Energy =            314.3139502240418324
    One-Electron Energy =               -1092.8643120310318864
    Two-Electron Energy =                 433.6459495539982640
    DFT Exchange-Correlation Energy =       0.0000000000000000
    Empirical Dispersion Energy =           0.0000000000000000
    PCM Polarization Energy =               0.0000000000000000
    EFP Energy =                            0.0000000000000000
    Total Energy =                       -344.9044122529917900
    Molecular point group: c1
  Basis Set: 6-31G*
  Basis Set:

  -Total Gradient:
     Atom            X                  Y                   Z
    ------   -----------------  -----------------  -----------------
       1        0.000063403344    -0.000146795580     0.000681408758
       2       -0.000144341291     0.000263943206    -0.001062938120
       3        0.000341813755    -0.000646951087     0.000746283815
       4        0.000022850717     0.000057197962     0.000029150301
       5       -0.000010350784    -0.000004660611    -0.000017368100
       6       -0.000243388906     0.000486760047    -0.000377685304
       7        0.000002147898    -0.000001964049     0.000004447123
       8       -0.000000332473     0.000006157135     0.000012954914
       9       -0.000001118906    -0.000007670813    -0.000000191191
      10       -0.000014139085     0.000008905377    -0.000005542268
      11       -0.000002529607     0.000010253649    -0.000006682028
      12        0.000000832486    -0.000001497995     0.000008591723
      13        0.000006995059    -0.000006386127    -0.000003221968
      14       -0.000026920546    -0.000019407521    -0.000015359146
      15        0.000002370319    -0.000002210891     0.000003683848
      16       -0.000001545350     0.000000750919     0.000001939901
      17        0.000004253364     0.000003576380     0.000000527743

  **** Optimization is complete! (in 7 steps) ****
    Final optimized geometry and variables:
    Molecular point group: c1

    Geometry (in Angstrom), charge = 0, multiplicity = 1:

    O            1.797879569652    -0.818468748391    -0.343323876888
    C            0.785078605746    -0.256421697740    -0.072206058670
    C           -0.566408994783    -0.936036584555    -0.060376356894
    O            0.739184797839     1.018948323520     0.281291012750
    C           -1.793038396935    -0.023537818959    -0.063518066902
    H           -0.577158865870    -1.601286193100    -0.916739483381
    H           -0.574227901132    -1.576021280883     0.818913721514
    C           -3.093515276057    -0.825881211294    -0.088605759307
    H           -1.754142492372     0.634463374448    -0.926411108399
    H           -1.773460504156     0.617049392465     0.810639454503
    H           -3.155779454865    -1.450740295293    -0.974932216864
    H           -3.955542844522    -0.166803362760    -0.087724826662
    H           -3.172982101670    -1.474845716023     0.779048400090
    C            1.971124292180     1.717047955628     0.323889944175
    H            2.639236218381     1.262525476839     1.040926105523
    H            1.728398537271     2.724657401307     0.623334945096
    H            2.440463375281     1.716932365541    -0.649102053100

  Mulliken Charges: (a.u.)
   Center  Symbol    Alpha    Beta     Spin     Total
       1     O     4.28880  4.28880  0.00000 -0.57759
       2     C     2.60584  2.60584  0.00000  0.78832
       3     C     3.20860  3.20860  0.00000 -0.41720
       4     O     4.30388  4.30388  0.00000 -0.60776
       5     C     3.15223  3.15223  0.00000 -0.30447
       6     H     0.39809  0.39809  0.00000  0.20383
       7     H     0.39955  0.39955  0.00000  0.20089
       8     C     3.24302  3.24302  0.00000 -0.48605
       9     H     0.41593  0.41593  0.00000  0.16815
      10     H     0.41064  0.41064  0.00000  0.17871
      11     H     0.41988  0.41988  0.00000  0.16023
      12     H     0.41548  0.41548  0.00000  0.16904
      13     H     0.42045  0.42045  0.00000  0.15910
      14     C     3.09271  3.09271  0.00000 -0.18542
      15     H     0.40828  0.40828  0.00000  0.18344
      16     H     0.40856  0.40856  0.00000  0.18288
      17     H     0.40805  0.40805  0.00000  0.18389

   Total alpha = 28.00000, Total beta = 28.00000, Total charge =  0.00000
