  ==> Input File <==

--------------------------------------------------------------------------
set {
	reference rhf
	basis 6-31G*
}

set_num_threads( 4 )
memory 2 gb

molecule MOL {
0 1

H	 2.091301	 0.136099	 -1.031790
O	 2.064459	 -0.086912	 -0.111827
C	 0.745630	 0.005118	 0.354752
H	 0.739005	 0.037656	 1.444976
C	 -0.064159	 -1.194875	 -0.122754
C	 -0.046302	 1.193543	 -0.190431
H	 0.197384	 -1.376065	 -1.160690
H	 0.162855	 -2.097978	 0.431858
C	 -1.535782	 -0.752177	 0.006642
H	 0.154512	 1.271315	 -1.255561
H	 0.226209	 2.140461	 0.267302
C	 -1.509193	 0.801505	 0.065617
H	 -2.127797	 -1.112194	 -0.826847
H	 -1.986849	 -1.158408	 0.905561
H	 -2.183670	 1.254107	 -0.651985
H	 -1.821727	 1.144320	 1.047089

	symmetry c1
}
set optking {
	frozen_dihedral = ("
		1 2 3 6
	")
}

ee = optimize('scf')
oeprop('DIPOLE', 'QUADRUPOLE', 'MULLIKEN_CHARGES')
f=open( 'psi4out.xyz', 'w' )
f.write( "16  " )
f.write( str(ee) + "\n" )
f.write( MOL.save_string_xyz() )
f.close()
--------------------------------------------------------------------------

    Molecular point group: c1
  Charge       = 0
  Multiplicity = 1
  Basis Set: 6-31G*
  Basis Set:
  @DF-RHF Final Energy:  -270.01188106946802
    Total Energy =                       -270.0118810694682452
    Molecular point group: c1
  Basis Set: 6-31G*
  Basis Set:
  Basis Set: 6-31G*
  Basis Set:
  @DF-RHF Final Energy:  -270.01344733256218
    Total Energy =                       -270.0134473325621798
  Basis Set: 6-31G*
  Basis Set:
  Basis Set: 6-31G*
  Basis Set:
  @DF-RHF Final Energy:  -270.01371668050473
    Total Energy =                       -270.0137166805047286
  Basis Set: 6-31G*
  Basis Set:
  Basis Set: 6-31G*
  Basis Set:
  @DF-RHF Final Energy:  -270.01372450320821
    Total Energy =                       -270.0137245032082092
  Basis Set: 6-31G*
  Basis Set:
  Basis Set: 6-31G*
  Basis Set:
  @DF-RHF Final Energy:  -270.01372724804327
    Total Energy =                       -270.0137272480434376
  Basis Set: 6-31G*
  Basis Set:
  Basis Set: 6-31G*
  Basis Set:
  @DF-RHF Final Energy:  -270.01373134260348
    Total Energy =                       -270.0137313426033643
  Basis Set: 6-31G*
  Basis Set:
  Basis Set: 6-31G*
  Basis Set:
  @DF-RHF Final Energy:  -270.01373343367834
    Total Energy =                       -270.0137334336779418
  Basis Set: 6-31G*
  Basis Set:
  Charge       = 0
  Multiplicity = 1
  Basis Set: 6-31G*
  Basis Set:

    Orbital Energies (a.u.)
    -----------------------

    Doubly Occupied:

       1A    -20.551720     2A    -11.268958     3A    -11.219988
       4A    -11.217924     5A    -11.217606     6A    -11.210960
       7A     -1.361367     8A     -1.115318     9A     -0.969027
      10A     -0.948775    11A     -0.803775    12A     -0.782501
      13A     -0.680952    14A     -0.662662    15A     -0.607483
      16A     -0.587948    17A     -0.577841    18A     -0.545521
      19A     -0.504415    20A     -0.485020    21A     -0.473349
      22A     -0.460589    23A     -0.453852    24A     -0.411606

  @DF-RHF Final Energy:  -270.01373433867354

   => Energetics <=

    Nuclear Repulsion Energy =            254.9968538592767118
    One-Electron Energy =                -871.7828684431453894
    Two-Electron Energy =                 346.7722802451951338
    DFT Exchange-Correlation Energy =       0.0000000000000000
    Empirical Dispersion Energy =           0.0000000000000000
    PCM Polarization Energy =               0.0000000000000000
    EFP Energy =                            0.0000000000000000
    Total Energy =                       -270.0137343386735438
    Molecular point group: c1
  Basis Set: 6-31G*
  Basis Set:

  -Total Gradient:
     Atom            X                  Y                   Z
    ------   -----------------  -----------------  -----------------
       1        0.000208151749     0.001635883959     0.000507129588
       2       -0.000329692355    -0.002232609255    -0.000894533869
       3        0.000296040270     0.001118722677     0.000986498618
       4        0.000027312793     0.000033114743    -0.000022541261
       5       -0.000028515340    -0.000129534518     0.000166466810
       6       -0.000270917205    -0.000422739463    -0.000735824075
       7        0.000027890934     0.000000431307    -0.000003080886
       8       -0.000010892171    -0.000007774743     0.000006828049
       9        0.000035211260    -0.000028709866    -0.000014959726
      10        0.000007111794    -0.000026497225    -0.000000352095
      11       -0.000011014325     0.000022634024    -0.000022632738
      12        0.000024613361     0.000027826076     0.000016470180
      13        0.000027104833    -0.000003126887    -0.000007967303
      14       -0.000020898387    -0.000010484728    -0.000001412632
      15        0.000002337737     0.000028624321     0.000014585225
      16        0.000016155050    -0.000005760422     0.000005326115

  **** Optimization is complete! (in 8 steps) ****
    Final optimized geometry and variables:
    Molecular point group: c1

    Geometry (in Angstrom), charge = 0, multiplicity = 1:

    H            2.178768444675     0.221538614435    -0.946125568602
    O            2.097489962258    -0.049947706364    -0.042160699548
    C            0.750363334287    -0.006684233160     0.339425816004
    H            0.757978076216     0.018900904521     1.423869891558
    C           -0.080375582875    -1.200689813736    -0.136481994595
    C           -0.040019867939     1.189928689581    -0.190316274797
    H            0.143399167185    -1.375909335260    -1.186847723951
    H            0.157066946963    -2.113233423406     0.398114434024
    C           -1.542635176864    -0.749477917277     0.039228471531
    H            0.144438528940     1.283634348665    -1.260708704681
    H            0.248344952785     2.127490809037     0.271891286889
    C           -1.505701443067     0.806251479501     0.064983740389
    H           -2.173310746801    -1.125021205865    -0.758272788548
    H           -1.954877113624    -1.132145397103     0.966681528762
    H           -2.173396330124     1.246106348393    -0.666656309609
    H           -1.821997499189     1.173070484441     1.035983862966

  Mulliken Charges: (a.u.)
   Center  Symbol    Alpha    Beta     Spin     Total
       1     H     0.28370  0.28370  0.00000  0.43259
       2     O     4.37687  4.37687  0.00000 -0.75375
       3     C     2.90450  2.90450  0.00000  0.19100
       4     H     0.41725  0.41725  0.00000  0.16551
       5     C     3.16767  3.16767  0.00000 -0.33533
       6     C     3.17630  3.17630  0.00000 -0.35259
       7     H     0.42503  0.42503  0.00000  0.14993
       8     H     0.41130  0.41130  0.00000  0.17740
       9     C     3.16974  3.16974  0.00000 -0.33948
      10     H     0.42852  0.42852  0.00000  0.14296
      11     H     0.41048  0.41048  0.00000  0.17903
      12     C     3.16855  3.16855  0.00000 -0.33710
      13     H     0.41478  0.41478  0.00000  0.17044
      14     H     0.41560  0.41560  0.00000  0.16880
      15     H     0.41416  0.41416  0.00000  0.17168
      16     H     0.41555  0.41555  0.00000  0.16890

   Total alpha = 24.00000, Total beta = 24.00000, Total charge = -0.00000
