  ==> Input File <==

--------------------------------------------------------------------------
set {
	reference rhf
	basis cc-pvtz
}

set_num_threads( 4 )
memory 2 gb

molecule MOL {
0 1

H	 -2.469965	 -0.729505	 2.065566
C	 -2.423823	 -1.522815	 1.322994
O	 -1.205231	 -1.526153	 0.657741
H	 -2.529851	 -2.474120	 1.823660
H	 -3.256038	 -1.396527	 0.632810
C	 -0.932893	 -0.359278	 -0.046440
C	 0.452023	 -0.432171	 -0.638927
H	 -1.654965	 -0.227564	 -0.852190
H	 -0.997175	 0.508342	 0.606655
O	 1.401606	 -0.295166	 0.366636
H	 0.571051	 -1.383041	 -1.153815
H	 0.563610	 0.364464	 -1.374382
C	 2.714315	 -0.441627	 -0.061017
H	 2.765292	 -0.641548	 -1.128869
H	 3.305661	 0.447341	 0.150952
H	 3.143725	 -1.278506	 0.470147

	symmetry c1
}
set optking {
	frozen_dihedral = ("
		7 10 13 14
	")
}

ee = optimize('scf')
oeprop('DIPOLE', 'QUADRUPOLE', 'MULLIKEN_CHARGES')
f=open( 'psi4out.xyz', 'w' )
f.write( "16  " )
f.write( str(ee) + "\n" )
f.write( MOL.save_string_xyz() )
f.close()
--------------------------------------------------------------------------

    Molecular point group: c1
  Charge       = 0
  Multiplicity = 1
  Basis Set: CC-PVTZ
  Basis Set:
  @DF-RHF Final Energy:  -307.09376386725546
    Total Energy =                       -307.0937638672554044
    Molecular point group: c1
  Basis Set: CC-PVTZ
  Basis Set:
  Basis Set: CC-PVTZ
  Basis Set:
  @DF-RHF Final Energy:  -307.09416789960108
    Total Energy =                       -307.0941678996012456
  Basis Set: CC-PVTZ
  Basis Set:
  Basis Set: CC-PVTZ
  Basis Set:
  @DF-RHF Final Energy:  -307.09427775085305
    Total Energy =                       -307.0942777508532231
  Basis Set: CC-PVTZ
  Basis Set:
  Charge       = 0
  Multiplicity = 1
  Basis Set: CC-PVTZ
  Basis Set:

    Orbital Energies (a.u.)
    -----------------------

    Doubly Occupied:

       1A    -20.547401     2A    -20.544049     3A    -11.267825
       4A    -11.266546     5A    -11.261311     6A    -11.261061
       7A     -1.389440     8A     -1.371353     9A     -1.031693
      10A     -0.937237    11A     -0.892173    12A     -0.823942
      13A     -0.684819    14A     -0.680960    15A     -0.658642
      16A     -0.636217    17A     -0.630279    18A     -0.597290
      19A     -0.554722    20A     -0.538235    21A     -0.508707
      22A     -0.479032    23A     -0.463814    24A     -0.420855
      25A     -0.410071

  @DF-RHF Final Energy:  -307.09427858653243

   => Energetics <=

    Nuclear Repulsion Energy =            258.6151869513512906
    One-Electron Energy =                -931.7035936686745572
    Two-Electron Energy =                 365.9941281307911822
    DFT Exchange-Correlation Energy =       0.0000000000000000
    Empirical Dispersion Energy =           0.0000000000000000
    PCM Polarization Energy =               0.0000000000000000
    EFP Energy =                            0.0000000000000000
    Total Energy =                       -307.0942785865321412
    Molecular point group: c1
  Basis Set: CC-PVTZ
  Basis Set:

  -Total Gradient:
     Atom            X                  Y                   Z
    ------   -----------------  -----------------  -----------------
       1       -0.000000711660    -0.000000004928     0.000000309852
       2       -0.000004512007     0.000004325677     0.000001757915
       3        0.000005862999     0.000008367969     0.000020125136
       4        0.000002269102     0.000000054794    -0.000000094926
       5        0.000004457521     0.000000782327    -0.000001628837
       6       -0.000040356532    -0.000028929836    -0.000060775971
       7       -0.000057654763     0.000116651230    -0.000028163913
       8       -0.000047790187     0.000005883813    -0.000001954278
       9        0.000023076325    -0.000031033309    -0.000012187210
      10        0.000159493730    -0.000064269673    -0.000013631769
      11        0.000009539494     0.000009022685     0.000038966746
      12        0.000004326829    -0.000020653319    -0.000002734331
      13       -0.000034596321    -0.000006533531     0.000071509910
      14       -0.000040709347    -0.000006434909    -0.000000803632
      15       -0.000012287375     0.000018444847    -0.000006661721
      16        0.000029592190    -0.000005673838    -0.000004032967

  **** Optimization is complete! (in 4 steps) ****
    Final optimized geometry and variables:
    Molecular point group: c1

    Geometry (in Angstrom), charge = 0, multiplicity = 1:

    H           -2.457183351226     0.038442479338     1.807295322719
    C           -2.421037151061    -0.752333573527     1.061483453637
    O           -1.209450330491    -0.756841641693     0.383691532487
    H           -2.524775111145    -1.705116776579     1.559834660630
    H           -3.259991498858    -0.621132532064     0.380389106543
    C           -0.940916970626     0.411789116613    -0.319048195195
    C            0.438406292860     0.338263687286    -0.924396088081
    H           -1.669784519973     0.547505870119    -1.118187211152
    H           -0.997709688368     1.277232421653     0.337444536614
    O            1.394475418221     0.464587361135     0.077996951740
    H            0.546585837515    -0.609432567440    -1.445873002023
    H            0.543063054000     1.139892028577    -1.654744950194
    C            2.723554894025     0.316322046522    -0.317003140673
    H            2.812230207792     0.118653460939    -1.380337252665
    H            3.276438059334     1.221629003039    -0.093022463240
    H            3.175926211901    -0.508621555021     0.220948482843

  Mulliken Charges: (a.u.)
   Center  Symbol    Alpha    Beta     Spin     Total
       1     H     0.47016  0.47016  0.00000  0.05967
       2     C     3.03200  3.03200  0.00000 -0.06400
       3     O     4.17035  4.17035  0.00000 -0.34070
       4     H     0.44646  0.44646  0.00000  0.10708
       5     H     0.47375  0.47375  0.00000  0.05250
       6     C     2.96361  2.96361  0.00000  0.07279
       7     C     2.95848  2.95848  0.00000  0.08304
       8     H     0.47620  0.47620  0.00000  0.04760
       9     H     0.47119  0.47119  0.00000  0.05762
      10     O     4.17528  4.17528  0.00000 -0.35056
      11     H     0.47052  0.47052  0.00000  0.05897
      12     H     0.47620  0.47620  0.00000  0.04759
      13     C     3.02695  3.02695  0.00000 -0.05390
      14     H     0.47372  0.47372  0.00000  0.05256
      15     H     0.45914  0.45914  0.00000  0.08172
      16     H     0.45599  0.45599  0.00000  0.08803

   Total alpha = 25.00000, Total beta = 25.00000, Total charge = -0.00000
