  ==> Input File <==

--------------------------------------------------------------------------
set {
	reference rhf
	basis 6-31G*
}

set_num_threads( 4 )
memory 2 gb

molecule MOL {
0 1

O	 -2.042549	 -1.228399	 -0.269030
C	 -1.653912	 -0.146171	 0.050137
C	 -0.332303	 0.024011	 0.778412
C	 -2.438579	 1.106236	 -0.272369
C	 0.845713	 -0.001731	 -0.208243
H	 -0.323783	 0.953829	 1.340327
H	 -0.235459	 -0.796807	 1.480410
C	 2.200309	 0.136118	 0.488247
H	 0.733710	 0.800019	 -0.936072
H	 0.811185	 -0.933796	 -0.764304
C	 2.661213	 -1.163370	 1.147114
H	 2.946705	 0.460621	 -0.233567
H	 2.138344	 0.920427	 1.238973
H	 2.765536	 -1.959334	 0.415261
H	 1.949953	 -1.495582	 1.897572
H	 3.622089	 -1.035213	 1.635293
H	 -3.277823	 0.863061	 -0.908988
H	 -1.806773	 1.843019	 -0.759671
H	 -2.802853	 1.554979	 0.648059

	symmetry c1
}
set optking {
	frozen_dihedral = ("
		11 8 5 9
	")
}

ee = optimize('scf')
oeprop('DIPOLE', 'QUADRUPOLE', 'MULLIKEN_CHARGES')
f=open( 'psi4out.xyz', 'w' )
f.write( "19  " )
f.write( str(ee) + "\n" )
f.write( MOL.save_string_xyz() )
f.close()
--------------------------------------------------------------------------

    Molecular point group: c1
  Charge       = 0
  Multiplicity = 1
  Basis Set: 6-31G*
  Basis Set:
  @DF-RHF Final Energy:  -309.06290022839551
    Total Energy =                       -309.0629002283959039
    Molecular point group: c1
  Basis Set: 6-31G*
  Basis Set:
  Basis Set: 6-31G*
  Basis Set:
  @DF-RHF Final Energy:  -309.06312833600884
    Total Energy =                       -309.0631283360091857
  Basis Set: 6-31G*
  Basis Set:
  Basis Set: 6-31G*
  Basis Set:
  @DF-RHF Final Energy:  -309.06280349876783
    Total Energy =                       -309.0628034987674368
  Basis Set: 6-31G*
  Basis Set:
  Basis Set: 6-31G*
  Basis Set:
  @DF-RHF Final Energy:  -309.06283367477920
    Total Energy =                       -309.0628336747791991
  Basis Set: 6-31G*
  Basis Set:
  @DF-RHF Final Energy:  -309.06308080575269
    Total Energy =                       -309.0630808057526906
  Basis Set: 6-31G*
  Basis Set:
  @DF-RHF Final Energy:  -309.06314557402021
    Total Energy =                       -309.0631455740204387
  Basis Set: 6-31G*
  Basis Set:
  Basis Set: 6-31G*
  Basis Set:
  @DF-RHF Final Energy:  -309.06315648812284
    Total Energy =                       -309.0631564881226723
  Basis Set: 6-31G*
  Basis Set:
  Basis Set: 6-31G*
  Basis Set:
  @DF-RHF Final Energy:  -309.06316019416954
    Total Energy =                       -309.0631601941695408
  Basis Set: 6-31G*
  Basis Set:
  Charge       = 0
  Multiplicity = 1
  Basis Set: 6-31G*
  Basis Set:

    Orbital Energies (a.u.)
    -----------------------

    Doubly Occupied:

       1A    -20.547506     2A    -11.324650     3A    -11.230558
       4A    -11.229283     5A    -11.228282     6A    -11.224882
       7A    -11.213846     8A     -1.393279     9A     -1.090555
      10A     -1.027803    11A     -0.981635    12A     -0.896898
      13A     -0.800299    14A     -0.735400    15A     -0.655967
      16A     -0.651086    17A     -0.620472    18A     -0.600897
      19A     -0.597798    20A     -0.576163    21A     -0.546146
      22A     -0.540340    23A     -0.515398    24A     -0.499379
      25A     -0.479259    26A     -0.476906    27A     -0.461976
      28A     -0.397130

  @DF-RHF Final Energy:  -309.06316123929588

   => Energetics <=

    Nuclear Repulsion Energy =            303.9155088055007923
    One-Electron Energy =               -1020.8697515282508448
    Two-Electron Energy =                 407.8910814834541725
    DFT Exchange-Correlation Energy =       0.0000000000000000
    Empirical Dispersion Energy =           0.0000000000000000
    PCM Polarization Energy =               0.0000000000000000
    EFP Energy =                            0.0000000000000000
    Total Energy =                       -309.0631612392958232
    Molecular point group: c1
  Basis Set: 6-31G*
  Basis Set:

  -Total Gradient:
     Atom            X                  Y                   Z
    ------   -----------------  -----------------  -----------------
       1        0.000004150431     0.000005828101     0.000011872831
       2        0.000004793044    -0.000008537460    -0.000011148956
       3       -0.000006621346     0.000015232662     0.000000830691
       4        0.000007610863     0.000006845971     0.000000075706
       5       -0.000810366019     0.001369114319     0.001342248261
       6       -0.000013129445     0.000003180715     0.000006422830
       7        0.000003184017     0.000001459122    -0.000008434510
       8       -0.000812780648     0.000316460091     0.001547534368
       9        0.000884707967    -0.001268268375    -0.001533852273
      10        0.000002753165    -0.000000877575    -0.000012277299
      11        0.000730479086    -0.000439803814    -0.001349031520
      12        0.000000077874     0.000012389763    -0.000002300629
      13        0.000002386708    -0.000001394659    -0.000001025791
      14        0.000002541008     0.000001078893     0.000003218386
      15        0.000005063732    -0.000004145963     0.000001381847
      16       -0.000001051585    -0.000006885779     0.000001021734
      17        0.000000329253    -0.000001450773     0.000000819424
      18       -0.000002143256     0.000000362390     0.000001937231
      19       -0.000001984848    -0.000000587626     0.000000707670

  **** Optimization is complete! (in 9 steps) ****
    Final optimized geometry and variables:
    Molecular point group: c1

    Geometry (in Angstrom), charge = 0, multiplicity = 1:

    O           -1.940298998193    -1.032251333839    -0.542024626326
    C           -1.553940113070     0.045478440268    -0.205358800389
    C           -0.240918884055     0.205125224956     0.540777906622
    C           -2.333141932045     1.302866545532    -0.521746204219
    C            0.945933403695     0.189729471921    -0.436529494797
    H           -0.236350733469     1.130881068759     1.109432302071
    H           -0.160375657460    -0.621115886401     1.237101887139
    C            2.311878242862     0.317050297915     0.250594061677
    H            0.835727007975     0.993056170538    -1.161519750078
    H            0.911437797122    -0.734206215340    -1.006634540718
    C            2.794814660047    -0.973582677933     0.914168245276
    H            3.044952530119     0.614854646486    -0.494523144037
    H            2.280526404890     1.121315961057     0.982203645896
    H            2.878286294021    -1.774453963065     0.185709268923
    H            2.119492705024    -1.307545057466     1.695673996268
    H            3.771701336674    -0.833064310707     1.366137844646
    H           -3.164811806073     1.068769949578    -1.171579918542
    H           -1.694593786925     2.044972977942    -0.991829105240
    H           -2.708223599688     1.740351004045     0.399773169708

  Mulliken Charges: (a.u.)
   Center  Symbol    Alpha    Beta     Spin     Total
       1     O     4.26200  4.26200  0.00000 -0.52400
       2     C     2.73737  2.73737  0.00000  0.52526
       3     C     3.20070  3.20070  0.00000 -0.40141
       4     C     3.28953  3.28953  0.00000 -0.57906
       5     C     3.16413  3.16413  0.00000 -0.32826
       6     H     0.41701  0.41701  0.00000  0.16598
       7     H     0.39985  0.39985  0.00000  0.20029
       8     C     3.15368  3.15368  0.00000 -0.30736
       9     H     0.41888  0.41888  0.00000  0.16225
      10     H     0.40652  0.40652  0.00000  0.18695
      11     C     3.24105  3.24105  0.00000 -0.48210
      12     H     0.41778  0.41778  0.00000  0.16443
      13     H     0.42214  0.42214  0.00000  0.15572
      14     H     0.41819  0.41819  0.00000  0.16361
      15     H     0.41977  0.41977  0.00000  0.16046
      16     H     0.41782  0.41782  0.00000  0.16437
      17     H     0.39702  0.39702  0.00000  0.20596
      18     H     0.40978  0.40978  0.00000  0.18044
      19     H     0.40676  0.40676  0.00000  0.18647

   Total alpha = 28.00000, Total beta = 28.00000, Total charge = -0.00000
