                              Psi4 1.0.54 Driver

  ==> Input File <==

--------------------------------------------------------------------------
set {
	reference rhf
	basis cc-pvtz
}

set_num_threads( 4 )
memory 2 gb

molecule MOL {
0 1

H	 -2.816458	 -0.841657	 -0.064679
N	 -1.878861	 -0.711874	 0.250184
C	 -1.341419	 0.551458	 -0.220231
H	 -1.333674	 -1.468530	 -0.105118
C	 0.070357	 0.747093	 0.283019
H	 -1.334856	 0.642273	 -1.305705
H	 -1.954711	 1.356357	 0.169721
O	 0.889313	 -0.231575	 -0.281983
H	 0.427087	 1.738392	 0.006899
H	 0.085773	 0.669133	 1.367737
C	 2.207040	 -0.203427	 0.156223
H	 2.741552	 -0.996527	 -0.346445
H	 2.684925	 0.744705	 -0.081194
H	 2.272705	 -0.362160	 1.230026

	symmetry c1
}
set optking {
	frozen_dihedral = ("
		6 3 2 4
	")
}

ee,wfn = optimize('scf', return_wfn=True)
oeprop( wfn, 'DIPOLE', 'QUADRUPOLE', 'MULLIKEN_CHARGES')
f=open( 'psi4out.xyz', 'w' )
f.write( "14  " )
f.write( str(ee) + "\n" )
f.write( MOL.save_string_xyz() )
f.close()
--------------------------------------------------------------------------

    Molecular point group: c1
  Charge       = 0
  Multiplicity = 1
  Basis Set: CC-PVTZ
  Basis Set:
  @DF-RHF Final Energy:  -248.22619069792813
    Total Energy =                       -248.2261906979281889
    Molecular point group: c1
  Basis Set: CC-PVTZ
  Basis Set:
  Charge       = 0
  Multiplicity = 1
  Basis Set: CC-PVTZ
  Basis Set:

    Orbital Energies (a.u.)
    -----------------------

    Doubly Occupied:

       1A    -20.550595     2A    -15.523724     3A    -11.263717
       4A    -11.263498     5A    -11.239968     6A     -1.384485
       7A     -1.176142     8A     -1.000573     9A     -0.907520
      10A     -0.815677    11A     -0.685285    12A     -0.676298
      13A     -0.647118    14A     -0.612068    15A     -0.608069
      16A     -0.541843    17A     -0.530130    18A     -0.498030
      19A     -0.474537    20A     -0.420063    21A     -0.384081

  @DF-RHF Final Energy:  -248.22619141372044

   => Energetics <=

    Nuclear Repulsion Energy =            194.6902545720898559
    One-Electron Energy =                -723.4260519979534365
    Two-Electron Energy =                 280.5096060121434220
    DFT Exchange-Correlation Energy =       0.0000000000000000
    Empirical Dispersion Energy =           0.0000000000000000
    PCM Polarization Energy =               0.0000000000000000
    EFP Energy =                            0.0000000000000000
    Total Energy =                       -248.2261914137201302
    Molecular point group: c1
  Basis Set: CC-PVTZ
  Basis Set:

  -Total Gradient:
     Atom            X                  Y                   Z
    ------   -----------------  -----------------  -----------------
       1        0.000035425442     0.000020625638     0.000017151619
       2        0.000267756522    -0.000067195377     0.000164012234
       3       -0.000311900296     0.000110472605     0.000046951253
       4       -0.000168553375    -0.000020206462    -0.000166503447
       5       -0.000024630307    -0.000013392856    -0.000038790614
       6        0.000225677795    -0.000093387412     0.000004715983
       7       -0.000003110006     0.000053882047    -0.000006128929
       8        0.000002968284    -0.000000703286    -0.000002501718
       9        0.000011384052     0.000010004240    -0.000007825404
      10       -0.000029557845    -0.000004866765    -0.000013751139
      11        0.000004760446     0.000008318951     0.000000493603
      12       -0.000003339867    -0.000002266066     0.000001336952
      13       -0.000003125981     0.000000660468    -0.000000946979
      14       -0.000003754860    -0.000001945723     0.000001786587

  **** Optimization is complete! (in 2 steps) ****
    Final optimized geometry and variables:
    Molecular point group: c1

    Geometry (in Angstrom), charge = 0, multiplicity = 1:

    H           -2.813834042870    -0.855894360435    -0.099908166901
    N           -1.877463184671    -0.724787758772     0.218021951523
    C           -1.340492161131     0.538546567633    -0.253041565602
    H           -1.331278705992    -1.481702817549    -0.135085586624
    C            0.071463158129     0.734635214588     0.249661924700
    H           -1.332210081375     0.627871341613    -1.338624789087
    H           -1.954142821157     1.343743194955     0.135692308470
    O            0.890117486280    -0.243594216114    -0.316368704160
    H            0.428127230759     1.726174733777    -0.026030690228
    H            0.087067541596     0.655845801841     1.334247127326
    C            2.207570141728    -0.216962429825     0.122583817532
    H            2.741868431772    -1.009558065057    -0.381093491771
    H            2.686174742940     0.731291366466    -0.112968813506
    H            2.272499807048    -0.377522104723     1.196155950291

  Mulliken Charges: (a.u.)
   Center  Symbol    Alpha    Beta     Spin     Total
       1     H     0.43023  0.43023  0.00000  0.13955
       2     N     3.69394  3.69394  0.00000 -0.38787
       3     C     3.02251  3.02251  0.00000 -0.04502
       4     H     0.42255  0.42255  0.00000  0.15490
       5     C     2.96889  2.96889  0.00000  0.06223
       6     H     0.46445  0.46445  0.00000  0.07110
       7     H     0.45848  0.45848  0.00000  0.08305
       8     O     4.17995  4.17995  0.00000 -0.35990
       9     H     0.46986  0.46986  0.00000  0.06029
      10     H     0.46875  0.46875  0.00000  0.06250
      11     C     3.03180  3.03180  0.00000 -0.06359
      12     H     0.44760  0.44760  0.00000  0.10479
      13     H     0.47126  0.47126  0.00000  0.05747
      14     H     0.46975  0.46975  0.00000  0.06051

   Total alpha = 21.00000, Total beta = 21.00000, Total charge = -0.00000

*** Psi4 exiting successfully. Buy a developer a beer!
