  ==> Input File <==

--------------------------------------------------------------------------
set {
	reference rhf
	basis 6-31G*
}

set_num_threads( 4 )
memory 2 gb

molecule MOL {
0 1

H	 2.846088	 1.882313	 -2.471439
N	 2.081580	 1.235000	 -2.478975
C	 1.360556	 1.273284	 -1.214782
H	 2.474072	 0.325382	 -2.631863
C	 0.140813	 0.359226	 -1.264585
H	 1.035510	 2.296309	 -1.051615
H	 1.982144	 1.001896	 -0.357824
C	 -0.679275	 0.379305	 0.025956
H	 -0.477017	 0.657360	 -2.106747
H	 0.468067	 -0.660068	 -1.467758
C	 -1.903357	 -0.536963	 -0.023547
H	 -1.004134	 1.398232	 0.231148
H	 -0.047889	 0.086879	 0.863623
C	 -3.225172	 0.228290	 0.028445
H	 -1.867824	 -1.134999	 -0.931459
H	 -1.860449	 -1.239604	 0.805977
H	 -3.313397	 0.915643	 -0.808262
H	 -4.073500	 -0.448134	 -0.008893
H	 -3.306061	 0.809945	 0.942516

	symmetry c1
}
set optking {
	frozen_dihedral = ("
		12 8 11 15
	")
}

ee = optimize('scf')
oeprop('DIPOLE', 'QUADRUPOLE', 'MULLIKEN_CHARGES')
f=open( 'psi4out.xyz', 'w' )
f.write( "19  " )
f.write( str(ee) + "\n" )
f.write( MOL.save_string_xyz() )
f.close()
--------------------------------------------------------------------------

    Molecular point group: c1
  Charge       = 0
  Multiplicity = 1
  Basis Set: 6-31G*
  Basis Set:
  @DF-RHF Final Energy:  -251.34590535667351
    Total Energy =                       -251.3459053566734269
    Molecular point group: c1
  Basis Set: 6-31G*
  Basis Set:
  Basis Set: 6-31G*
  Basis Set:
  @DF-RHF Final Energy:  -251.34616069586534
    Total Energy =                       -251.3461606958655921
  Basis Set: 6-31G*
  Basis Set:
  Basis Set: 6-31G*
  Basis Set:
  @DF-RHF Final Energy:  -251.34624999495952
    Total Energy =                       -251.3462499949594076
  Basis Set: 6-31G*
  Basis Set:
  Basis Set: 6-31G*
  Basis Set:
  @DF-RHF Final Energy:  -251.34625121831687
    Total Energy =                       -251.3462512183167519
  Basis Set: 6-31G*
  Basis Set:
  Charge       = 0
  Multiplicity = 1
  Basis Set: 6-31G*
  Basis Set:

    Orbital Energies (a.u.)
    -----------------------

    Doubly Occupied:

       1A    -15.532501     2A    -11.239512     3A    -11.213601
       4A    -11.212442     5A    -11.209802     6A    -11.207117
       7A     -1.176542     8A     -1.070328     9A     -0.997137
      10A     -0.899617    11A     -0.815803    12A     -0.787393
      13A     -0.664490    14A     -0.635019    15A     -0.613316
      16A     -0.591160    17A     -0.580618    18A     -0.535362
      19A     -0.527433    20A     -0.500173    21A     -0.487633
      22A     -0.463222    23A     -0.454193    24A     -0.447821
      25A     -0.380954

  @DF-RHF Final Energy:  -251.34625144725112

   => Energetics <=

    Nuclear Repulsion Energy =            246.6624480467192484
    One-Electron Energy =                -827.5310263943613336
    Two-Electron Energy =                 329.5223269003910218
    DFT Exchange-Correlation Energy =       0.0000000000000000
    Empirical Dispersion Energy =           0.0000000000000000
    PCM Polarization Energy =               0.0000000000000000
    EFP Energy =                            0.0000000000000000
    Total Energy =                       -251.3462514472511202
    Molecular point group: c1
  Basis Set: 6-31G*
  Basis Set:

  -Total Gradient:
     Atom            X                  Y                   Z
    ------   -----------------  -----------------  -----------------
       1        0.000000499755    -0.000001241186    -0.000002873025
       2        0.000007777530    -0.000001872285    -0.000000355354
       3       -0.000000644439     0.000009259675    -0.000003379328
       4        0.000003389385     0.000000621829    -0.000003714171
       5       -0.000015360687     0.000005228425     0.000015842812
       6       -0.000003074419    -0.000001725071     0.000006905655
       7        0.000002153504    -0.000000881417    -0.000002783712
       8       -0.000019089690    -0.000057394731     0.001478421354
       9       -0.000001195609    -0.000006428412    -0.000000063777
      10        0.000000866581     0.000002126303     0.000007529868
      11        0.000811569093    -0.001137356129     0.000505925488
      12       -0.000108539319     0.000234157172    -0.001340405958
      13       -0.000007523058    -0.000012051036    -0.000000548504
      14        0.000010830069    -0.000011715402    -0.000000545551
      15       -0.000686168365     0.000980746980    -0.000664911622
      16        0.000001894565     0.000005933634     0.000004599867
      17        0.000005121044    -0.000001598316     0.000003302655
      18       -0.000006829038    -0.000001715530    -0.000000852016
      19        0.000004323098    -0.000004094503    -0.000002094679

  **** Optimization is complete! (in 5 steps) ****
    Final optimized geometry and variables:
    Molecular point group: c1

    Geometry (in Angstrom), charge = 0, multiplicity = 1:

    H            3.169927212260     1.398425351272    -1.649348294418
    N            2.413307958445     0.741875464455    -1.648683612304
    C            1.698589817525     0.779493089941    -0.380763891881
    H            2.816072576089    -0.163860380704    -1.797910409055
    C            0.490225278240    -0.149322629650    -0.417750267984
    H            1.362178238227     1.799616640226    -0.221879171140
    H            2.328095786853     0.521006391755     0.474516060133
    C           -0.321040059155    -0.136432753685     0.880354818328
    H           -0.139530709401     0.138279167089    -1.255195764720
    H            0.827065775748    -1.165458764398    -0.620652118365
    C           -1.570413888924    -1.044808961303     0.827963282620
    H           -0.626102902255     0.887583447762     1.085046338655
    H            0.321837282454    -0.431925615867     1.705462367404
    C           -2.885839280540    -0.264550544739     0.855707089858
    H           -1.545762749678    -1.644435384947    -0.078175763081
    H           -1.558140085954    -1.746413099070     1.656806795170
    H           -2.943820166488     0.432190642302     0.023887849368
    H           -3.740980665887    -0.930553686127     0.790002061689
    H           -2.981619992601     0.309136768667     1.773190254793

  Mulliken Charges: (a.u.)
   Center  Symbol    Alpha    Beta     Spin     Total
       1     H     0.33251  0.33251  0.00000  0.33499
       2     N     3.92181  3.92181  0.00000 -0.84362
       3     C     3.06080  3.06080  0.00000 -0.12159
       4     H     0.33536  0.33536  0.00000  0.32929
       5     C     3.15343  3.15343  0.00000 -0.30687
       6     H     0.42084  0.42084  0.00000  0.15831
       7     H     0.43484  0.43484  0.00000  0.13032
       8     C     3.15927  3.15927  0.00000 -0.31853
       9     H     0.41334  0.41334  0.00000  0.17333
      10     H     0.42715  0.42715  0.00000  0.14570
      11     C     3.15449  3.15449  0.00000 -0.30898
      12     H     0.42085  0.42085  0.00000  0.15830
      13     H     0.42168  0.42168  0.00000  0.15664
      14     C     3.23996  3.23996  0.00000 -0.47991
      15     H     0.41937  0.41937  0.00000  0.16125
      16     H     0.42054  0.42054  0.00000  0.15893
      17     H     0.42117  0.42117  0.00000  0.15766
      18     H     0.42073  0.42073  0.00000  0.15854
      19     H     0.42188  0.42188  0.00000  0.15624

   Total alpha = 25.00000, Total beta = 25.00000, Total charge = -0.00000
