                              Psi4 1.0.54 Driver

  ==> Input File <==

--------------------------------------------------------------------------
set {
	reference rhf
	basis cc-pvtz
}

set_num_threads( 4 )
memory 2 gb

molecule MOL {
0 1

H	 -3.941973	 0.934228	 -0.390224
C	 -3.240162	 0.342701	 0.161016
C	 -2.105997	 -0.000418	 -0.398703
H	 -3.485368	 0.047206	 1.162193
O	 -1.189946	 -0.765863	 0.237511
H	 -1.846458	 0.297311	 -1.398265
C	 0.026572	 -0.995256	 -0.379403
C	 1.057223	 0.049888	 -0.004615
H	 -0.054361	 -1.010670	 -1.459674
H	 0.397526	 -1.952058	 -0.044198
F	 0.915709	 1.104464	 -0.782383
F	 0.919337	 0.450935	 1.241040
F	 2.282742	 -0.393300	 -0.146554

	symmetry c1
}
set optking {
	frozen_dihedral = ("
		11 8 7 9
	")
}

ee,wfn = optimize('scf', return_wfn=True)
oeprop( wfn, 'DIPOLE', 'QUADRUPOLE', 'MULLIKEN_CHARGES')
f=open( 'psi4out.xyz', 'w' )
f.write( "13  " )
f.write( str(ee) + "\n" )
f.write( MOL.save_string_xyz() )
f.close()
--------------------------------------------------------------------------

    Molecular point group: c1
  Charge       = 0
  Multiplicity = 1
  Basis Set: CC-PVTZ
  Basis Set:
  @DF-RHF Final Energy:  -527.73929315586042
    Total Energy =                       -527.7392931558603095
    Molecular point group: c1
  Basis Set: CC-PVTZ
  Basis Set:
  Basis Set: CC-PVTZ
  Basis Set:
  @DF-RHF Final Energy:  -527.74003889324035
    Total Energy =                       -527.7400388932403530
  Basis Set: CC-PVTZ
  Basis Set:
  Basis Set: CC-PVTZ
  Basis Set:
  @DF-RHF Final Energy:  -527.74022880052814
    Total Energy =                       -527.7402288005280298
  Basis Set: CC-PVTZ
  Basis Set:
  Basis Set: CC-PVTZ
  Basis Set:
  @DF-RHF Final Energy:  -527.74025223222907
    Total Energy =                       -527.7402522322292953
  Basis Set: CC-PVTZ
  Basis Set:
  @DF-RHF Final Energy:  -527.74025987312075
    Total Energy =                       -527.7402598731210901
  Basis Set: CC-PVTZ
  Basis Set:
  @DF-RHF Final Energy:  -527.74026893319365
    Total Energy =                       -527.7402689331935335
  Basis Set: CC-PVTZ
  Basis Set:
  Basis Set: CC-PVTZ
  Basis Set:
  @DF-RHF Final Energy:  -527.74027285499210
    Total Energy =                       -527.7402728549923268
  Basis Set: CC-PVTZ
  Basis Set:
  Basis Set: CC-PVTZ
  Basis Set:
  @DF-RHF Final Energy:  -527.74027420699167
    Total Energy =                       -527.7402742069915575
  Basis Set: CC-PVTZ
  Basis Set:
  Charge       = 0
  Multiplicity = 1
  Basis Set: CC-PVTZ
  Basis Set:

    Orbital Energies (a.u.)
    -----------------------

    Doubly Occupied:

       1A    -26.339827     2A    -26.339643     3A    -26.339600
       4A    -20.603013     5A    -11.498109     6A    -11.320057
       7A    -11.298176     8A    -11.214728     9A     -1.750252
      10A     -1.646960    11A     -1.644440    12A     -1.443606
      13A     -1.086369    14A     -1.020509    15A     -0.932132
      16A     -0.843607    17A     -0.838156    18A     -0.827339
      19A     -0.798922    20A     -0.726650    21A     -0.719671
      22A     -0.701653    23A     -0.681601    24A     -0.668157
      25A     -0.661895    26A     -0.650446    27A     -0.641397
      28A     -0.587751    29A     -0.566708    30A     -0.527395
      31A     -0.517102    32A     -0.357662

  @DF-RHF Final Energy:  -527.74027443434761

   => Energetics <=

    Nuclear Repulsion Energy =            414.1270577702568403
    One-Electron Energy =               -1552.1476002080248691
    Two-Electron Energy =                 610.2802680034205878
    DFT Exchange-Correlation Energy =       0.0000000000000000
    Empirical Dispersion Energy =           0.0000000000000000
    PCM Polarization Energy =               0.0000000000000000
    EFP Energy =                            0.0000000000000000
    Total Energy =                       -527.7402744343473842
    Molecular point group: c1
  Basis Set: CC-PVTZ
  Basis Set:

  -Total Gradient:
     Atom            X                  Y                   Z
    ------   -----------------  -----------------  -----------------
       1       -0.000010745887    -0.000008242658    -0.000002131852
       2       -0.000009678817     0.000002484761     0.000003591197
       3        0.000035783612     0.000051711311     0.000006404836
       4       -0.000001743218     0.000001312611    -0.000007670100
       5       -0.000013795792    -0.000020792513    -0.000006992289
       6       -0.000008206856    -0.000014107212     0.000004716861
       7        0.004729740206    -0.004007292384    -0.001005906185
       8       -0.003847273443     0.002385938013     0.003171911059
       9       -0.003248354373     0.002925996546     0.000206367727
      10       -0.000005788691    -0.000000800834     0.000002720779
      11        0.002400728346    -0.001355589466    -0.002371787335
      12       -0.000008528453     0.000027163267    -0.000014540996
      13       -0.000012136632     0.000012218561     0.000013316296

  **** Optimization is complete! (in 9 steps) ****
    Final optimized geometry and variables:
    Molecular point group: c1

    Geometry (in Angstrom), charge = 0, multiplicity = 1:

    H           -3.839020939702     1.055208741431    -0.377185007894
    C           -3.163426843606     0.427288525376     0.166645225076
    C           -2.073290887314    -0.006381094647    -0.417286813741
    H           -3.400441523452     0.166052903564     1.179252024477
    O           -1.201392080814    -0.834434826779     0.202350162764
    H           -1.821594677248     0.256205629642    -1.429241583768
    C            0.041125818032    -1.033521464485    -0.376582191310
    C            1.037518086608     0.049929046576     0.007964735967
    H           -0.031330275366    -1.040710929574    -1.457489973838
    H            0.421769648617    -1.978402111199    -0.024008395664
    F            0.900688730786     1.127616046531    -0.739265795539
    F            0.933679153666     0.409234573586     1.260370647439
    F            2.263424671267    -0.397142056483    -0.188460668756

  Mulliken Charges: (a.u.)
   Center  Symbol    Alpha    Beta     Spin     Total
       1     H     0.42505  0.42505  0.00000  0.14990
       2     C     3.19487  3.19487  0.00000 -0.38975
       3     C     2.96253  2.96253  0.00000  0.07494
       4     H     0.42428  0.42428  0.00000  0.15144
       5     O     4.14322  4.14322  0.00000 -0.28644
       6     H     0.43418  0.43418  0.00000  0.13165
       7     C     3.02102  3.02102  0.00000 -0.04203
       8     C     2.67646  2.67646  0.00000  0.64707
       9     H     0.45516  0.45516  0.00000  0.08969
      10     H     0.43394  0.43394  0.00000  0.13212
      11     F     4.61286  4.61286  0.00000 -0.22572
      12     F     4.60372  4.60372  0.00000 -0.20745
      13     F     4.61270  4.61270  0.00000 -0.22541

   Total alpha = 32.00000, Total beta = 32.00000, Total charge =  0.00000

*** Psi4 exiting successfully. Buy a developer a beer!
