  ==> Input File <==

--------------------------------------------------------------------------
set {
	reference rhf
	basis 6-31G*
}

set_num_threads( 1 )
memory 2 gb

molecule MOL {
0 1

H	 -1.093408	 -0.276182	 -0.773293
C	 -0.790252	 0.431209	 0.000000
N	 0.538815	 0.649616	 0.000000
O	 -1.580949	 0.933115	 0.743034
C	 1.521968	 -0.411503	 0.000000
H	 0.852804	 1.592852	 0.000000
H	 2.150599	 -0.357004	 -0.881901
H	 0.999455	 -1.354525	 0.000000
H	 2.150599	 -0.357004	 0.881901

	symmetry c1
}
set optking {
	frozen_dihedral = ("
		6 3 5 7
	")
}

ee = energy('scf')
oeprop('DIPOLE', 'QUADRUPOLE', 'MULLIKEN_CHARGES')
f=open( 'psi4out.xyz', 'w' )
f.write( "9  " )
f.write( str(ee) + "\n" )
f.write( MOL.save_string_xyz() )
f.close()
--------------------------------------------------------------------------

    Molecular point group: c1

    Geometry (in Angstrom), charge = 0, multiplicity = 1:

       Center              X                  Y                   Z               Mass
    ------------   -----------------  -----------------  -----------------  -----------------
           H         -1.027994200786    -0.674244164955    -0.961402150922     1.007825032070
           C         -0.724838200786     0.033146835045    -0.188109150922    12.000000000000
           N          0.604228799214     0.251553835045    -0.188109150922    14.003074004780
           O         -1.515535200786     0.535052835045     0.554924849078    15.994914619560
           C          1.587381799214    -0.809565164955    -0.188109150922    12.000000000000
           H          0.918217799214     1.194789835045    -0.188109150922     1.007825032070
           H          2.216012799214    -0.755066164955    -1.070010150922     1.007825032070
           H          1.064868799214    -1.752587164955    -0.188109150922     1.007825032070
           H          2.216012799214    -0.755066164955     0.693791849078     1.007825032070

  Charge       = 0
  Multiplicity = 1
  Basis Set: 6-31G*
  Basis Set:

    Orbital Energies (a.u.)
    -----------------------

    Doubly Occupied:

       1A    -20.542983     2A    -15.570444     3A    -11.346455
       4A    -11.272212     5A     -1.395886     6A     -1.233476
       7A     -0.961718     8A     -0.837582     9A     -0.699338
      10A     -0.673977    11A     -0.636600    12A     -0.599630
      13A     -0.570602    14A     -0.519128    15A     -0.431287
      16A     -0.384121

  @DF-RHF Final Energy:  -207.93600323554816

   => Energetics <=

    Nuclear Repulsion Energy =            120.5851086117658895
    One-Electron Energy =                -521.6913373259304763
    Two-Electron Energy =                 193.1702254786162598
    DFT Exchange-Correlation Energy =       0.0000000000000000
    Empirical Dispersion Energy =           0.0000000000000000
    PCM Polarization Energy =               0.0000000000000000
    EFP Energy =                            0.0000000000000000
    Total Energy =                       -207.9360032355482986

  Mulliken Charges: (a.u.)
   Center  Symbol    Alpha    Beta     Spin     Total
       1     H     0.43122  0.43122  0.00000  0.13756
       2     C     2.75587  2.75587  0.00000  0.48826
       3     N     3.88286  3.88286  0.00000 -0.76571
       4     O     4.25394  4.25394  0.00000 -0.50788
       5     C     3.13825  3.13825  0.00000 -0.27650
       6     H     0.30522  0.30522  0.00000  0.38957
       7     H     0.41526  0.41526  0.00000  0.16948
       8     H     0.41021  0.41021  0.00000  0.17958
       9     H     0.40717  0.40717  0.00000  0.18565

   Total alpha = 16.00000, Total beta = 16.00000, Total charge = -0.00000
