                              Psi4 1.0.54 Driver

  ==> Input File <==

--------------------------------------------------------------------------
set {
	reference rhf
	basis cc-pvtz
}

set_num_threads( 4 )
memory 2 gb

molecule MOL {
0 1

O	 2.868453	 1.353349	 -0.000734
C	 2.841259	 0.166180	 -0.000295
C	 1.542794	 -0.614730	 -0.000853
C	 4.113372	 -0.651103	 0.000743
C	 0.288398	 0.247429	 0.000314
H	 1.557171	 -1.273139	 -0.866508
H	 1.557484	 -1.274998	 0.863344
C	 -0.993089	 -0.581367	 -0.000217
H	 0.305153	 0.900562	 -0.864701
H	 0.305567	 0.898805	 0.866656
C	 -2.258482	 0.271340	 0.000669
H	 -1.002280	 -1.233920	 -0.870484
H	 -1.002061	 -1.235367	 0.868958
C	 -2.440123	 1.087177	 1.277443
H	 -3.123939	 -0.371598	 -0.139790
H	 -2.238506	 0.943158	 -0.853958
C	 -3.706733	 1.936558	 1.270899
H	 -2.461394	 0.416363	 2.132132
H	 -1.576081	 1.731072	 1.417975
H	 -4.591962	 1.318081	 1.166502
H	 -3.805489	 2.502276	 2.190264
H	 -3.699992	 2.642667	 0.447244
H	 4.145311	 -1.294584	 -0.871587
H	 4.970080	 0.004978	 -0.000091
H	 4.145223	 -1.291980	 0.874988

	symmetry c1
}
set optking {
	frozen_dihedral = ("
		15 11 8 12
	")
}

ee,wfn = optimize('scf', return_wfn=True)
oeprop( wfn, 'DIPOLE', 'QUADRUPOLE', 'MULLIKEN_CHARGES')
f=open( 'psi4out.xyz', 'w' )
f.write( "25  " )
f.write( str(ee) + "\n" )
f.write( MOL.save_string_xyz() )
f.close()
--------------------------------------------------------------------------

    Molecular point group: c1
  Charge       = 0
  Multiplicity = 1
  Basis Set: CC-PVTZ
  Basis Set:
  @DF-RHF Final Energy:  -387.27239892336661
    Total Energy =                       -387.2723989233659267
    Molecular point group: c1
  Basis Set: CC-PVTZ
  Basis Set:
  Basis Set: CC-PVTZ
  Basis Set:
  @DF-RHF Final Energy:  -387.27246465228961
    Total Energy =                       -387.2724646522895000
  Basis Set: CC-PVTZ
  Basis Set:
  Basis Set: CC-PVTZ
  Basis Set:
  @DF-RHF Final Energy:  -387.27295582615898
    Total Energy =                       -387.2729558261592047
  Basis Set: CC-PVTZ
  Basis Set:
  Basis Set: CC-PVTZ
  Basis Set:
  @DF-RHF Final Energy:  -387.27296649225963
    Total Energy =                       -387.2729664922600250
  Basis Set: CC-PVTZ
  Basis Set:
  Basis Set: CC-PVTZ
  Basis Set:
  @DF-RHF Final Energy:  -387.27296950725702
    Total Energy =                       -387.2729695072572440
  Basis Set: CC-PVTZ
  Basis Set:
  Basis Set: CC-PVTZ
  Basis Set:
  @DF-RHF Final Energy:  -387.27297495054438
    Total Energy =                       -387.2729749505441532
  Basis Set: CC-PVTZ
  Basis Set:
  Charge       = 0
  Multiplicity = 1
  Basis Set: CC-PVTZ
  Basis Set:

    Orbital Energies (a.u.)
    -----------------------

    Doubly Occupied:

       1A    -20.538975     2A    -11.320586     3A    -11.230164
       4A    -11.226626     5A    -11.215453     6A    -11.214352
       7A    -11.212136     8A    -11.211455     9A    -11.205377
      10A     -1.398993    11A     -1.094951    12A     -1.056075
      13A     -1.014404    14A     -0.970056    15A     -0.889920
      16A     -0.829074    17A     -0.777614    18A     -0.732015
      19A     -0.656880    20A     -0.652031    21A     -0.637356
      22A     -0.622283    23A     -0.603246    24A     -0.581524
      25A     -0.569649    26A     -0.562647    27A     -0.548068
      28A     -0.522245    29A     -0.504032    30A     -0.498925
      31A     -0.491510    32A     -0.478431    33A     -0.460977
      34A     -0.458715    35A     -0.448257    36A     -0.401902

  @DF-RHF Final Energy:  -387.27297504288117

   => Energetics <=

    Nuclear Repulsion Energy =            445.1648274783249235
    One-Electron Energy =               -1407.2018007327137639
    Two-Electron Energy =                 574.7639982115078965
    DFT Exchange-Correlation Energy =       0.0000000000000000
    Empirical Dispersion Energy =           0.0000000000000000
    PCM Polarization Energy =               0.0000000000000000
    EFP Energy =                            0.0000000000000000
    Total Energy =                       -387.2729750428809439
    Molecular point group: c1
  Basis Set: CC-PVTZ
  Basis Set:

  -Total Gradient:
     Atom            X                  Y                   Z
    ------   -----------------  -----------------  -----------------
       1        0.000006448471    -0.000007319253    -0.000016106233
       2       -0.000002234316    -0.000004442190     0.000046978364
       3        0.000002217567     0.000012346369     0.000012708041
       4       -0.000003950148     0.000005910850    -0.000040111920
       5        0.000025323143     0.000001336560    -0.000018389882
       6        0.000000057371     0.000008072292    -0.000005836265
       7       -0.000004214897    -0.000005396645    -0.000005527685
       8       -0.000006277644    -0.000007913671     0.000002383073
       9        0.000002219395    -0.000003837033     0.000006244983
      10        0.000013477219    -0.000009346351    -0.000006012372
      11       -0.000005442381    -0.000006242070    -0.000023997056
      12        0.000006045443     0.000003243131    -0.000002856995
      13       -0.000011183769     0.000007303588    -0.000009055373
      14       -0.000031499052    -0.000006719266     0.000022214694
      15       -0.000006755036     0.000007339890     0.000011914481
      16        0.000006487666    -0.000013338424     0.000002167477
      17        0.000026984513     0.000010262333    -0.000004275988
      18       -0.000003362481     0.000002170305     0.000002021527
      19       -0.000020444284     0.000007873384     0.000000405844
      20        0.000003852154    -0.000012871619     0.000003189771
      21        0.000002642508     0.000004854403     0.000008574443
      22        0.000001616875     0.000001122260    -0.000006425509
      23       -0.000002051143    -0.000004048666     0.000008509197
      24        0.000002372523     0.000002396777     0.000001348861
      25       -0.000002329701     0.000007243047     0.000009934519

  **** Optimization is complete! (in 7 steps) ****
    Final optimized geometry and variables:
    Molecular point group: c1

    Geometry (in Angstrom), charge = 0, multiplicity = 1:

    O            2.676058351714     0.951419836387    -0.279450503153
    C            2.624196378257    -0.234785192836    -0.298056611868
    C            1.310269542703    -0.989236949190    -0.277258083722
    C            3.878678463832    -1.077689020781    -0.344168248548
    C            0.074337983705    -0.101210379151    -0.240151286386
    H            1.292224556072    -1.640275412529    -1.148279519996
    H            1.330478654016    -1.657092455986     0.581105802422
    C           -1.219923611203    -0.912440048078    -0.213154729571
    H            0.079689469467     0.551485467855    -1.106226705137
    H            0.136811689904     0.546797162888     0.624232960790
    C           -2.498755673413    -0.074585334677    -0.261640848270
    H           -1.224525892220    -1.592994479654    -1.060744348723
    H           -1.236969025866    -1.538804795031     0.676259514407
    C           -2.747616744724     0.795292324639     0.969305112997
    H           -3.343926451398    -0.746136376887    -0.386442598578
    H           -2.480308890579     0.555406256476    -1.147887633122
    C           -4.078060632366     1.538673192883     0.905581428978
    H           -2.727404633729     0.170003233283     1.858380444537
    H           -1.945749534798     1.516316895935     1.083975762363
    H           -4.910866370863     0.846885530276     0.833872584697
    H           -4.229688530656     2.148577736842     1.788748102185
    H           -4.118631432361     2.193404390805     0.041367421655
    H            3.875274968428    -1.704938974815    -1.228775257566
    H            4.748749053728    -0.439450969018    -0.354644137530
    H            3.918801404807    -1.735516733680     0.517062751929

  Mulliken Charges: (a.u.)
   Center  Symbol    Alpha    Beta     Spin     Total
       1     O     4.17084  4.17084  0.00000 -0.34169
       2     C     2.86171  2.86171  0.00000  0.27658
       3     C     3.11427  3.11427  0.00000 -0.22855
       4     C     3.15123  3.15123  0.00000 -0.30245
       5     C     3.08468  3.08468  0.00000 -0.16936
       6     H     0.44469  0.44469  0.00000  0.11061
       7     H     0.44524  0.44524  0.00000  0.10952
       8     C     3.10030  3.10030  0.00000 -0.20060
       9     H     0.44602  0.44602  0.00000  0.10797
      10     H     0.44412  0.44412  0.00000  0.11175
      11     C     3.09460  3.09460  0.00000 -0.18921
      12     H     0.44954  0.44954  0.00000  0.10092
      13     H     0.45468  0.45468  0.00000  0.09065
      14     C     3.08575  3.08575  0.00000 -0.17151
      15     H     0.44902  0.44902  0.00000  0.10195
      16     H     0.45336  0.45336  0.00000  0.09327
      17     C     3.15000  3.15000  0.00000 -0.30000
      18     H     0.45546  0.45546  0.00000  0.08908
      19     H     0.45035  0.45035  0.00000  0.09931
      20     H     0.45526  0.45526  0.00000  0.08949
      21     H     0.44822  0.44822  0.00000  0.10357
      22     H     0.45449  0.45449  0.00000  0.09102
      23     H     0.45032  0.45032  0.00000  0.09936
      24     H     0.43537  0.43537  0.00000  0.12926
      25     H     0.45048  0.45048  0.00000  0.09905

   Total alpha = 36.00000, Total beta = 36.00000, Total charge = -0.00000

*** Psi4 exiting successfully. Buy a developer a beer!
