                              Psi4 1.0.54 Driver

  ==> Input File <==

--------------------------------------------------------------------------
set {
	reference rhf
	basis cc-pvtz
}

set_num_threads( 4 )
memory 2 gb

molecule MOL {
0 1

H	 1.612364	 0.988475	 -1.166798
O	 0.824499	 0.469296	 -1.223267
C	 0.489979	 0.078084	 0.002623
C	 -0.763662	 -0.754014	 0.000816
O	 1.123843	 0.376272	 0.955100
C	 -2.038001	 0.074705	 -0.000833
H	 -0.712945	 -1.405886	 -0.864342
H	 -0.715137	 -1.405770	 0.866182
H	 -2.087267	 0.710831	 -0.874232
H	 -2.903419	 -0.576199	 -0.001922
H	 -2.089467	 0.710909	 0.872389

	symmetry c1
}
set optking {
	frozen_dihedral = ("
		2 3 4 7
	")
}

ee,wfn = optimize('scf', return_wfn=True)
oeprop( wfn, 'DIPOLE', 'QUADRUPOLE', 'MULLIKEN_CHARGES')
f=open( 'psi4out.xyz', 'w' )
f.write( "11  " )
f.write( str(ee) + "\n" )
f.write( MOL.save_string_xyz() )
f.close()
--------------------------------------------------------------------------

    Molecular point group: c1
  Charge       = 0
  Multiplicity = 1
  Basis Set: CC-PVTZ
  Basis Set:
  @DF-RHF Final Energy:  -266.95098407895466
    Total Energy =                       -266.9509840789547184
    Molecular point group: c1
  Basis Set: CC-PVTZ
  Basis Set:
  Basis Set: CC-PVTZ
  Basis Set:
  @DF-RHF Final Energy:  -266.95154901114927
    Total Energy =                       -266.9515490111493250
  Basis Set: CC-PVTZ
  Basis Set:
  Basis Set: CC-PVTZ
  Basis Set:
  @DF-RHF Final Energy:  -266.95081462010046
    Total Energy =                       -266.9508146201005729
  Basis Set: CC-PVTZ
  Basis Set:
  Basis Set: CC-PVTZ
  Basis Set:
  @DF-RHF Final Energy:  -266.95162697251089
    Total Energy =                       -266.9516269725107804
  Basis Set: CC-PVTZ
  Basis Set:
  Basis Set: CC-PVTZ
  Basis Set:
  @DF-RHF Final Energy:  -266.95163431245089
    Total Energy =                       -266.9516343124508353
  Basis Set: CC-PVTZ
  Basis Set:
  Charge       = 0
  Multiplicity = 1
  Basis Set: CC-PVTZ
  Basis Set:

    Orbital Energies (a.u.)
    -----------------------

    Doubly Occupied:

       1A    -20.605938     2A    -20.539875     3A    -11.373447
       4A    -11.241475     5A    -11.229407     6A     -1.478217
       7A     -1.369065     8A     -1.069068     9A     -0.914169
      10A     -0.818444    11A     -0.706509    12A     -0.688535
      13A     -0.643819    14A     -0.619539    15A     -0.594909
      16A     -0.545436    17A     -0.527933    18A     -0.513913
      19A     -0.480991    20A     -0.444001

  @DF-RHF Final Energy:  -266.95163523539179

   => Energetics <=

    Nuclear Repulsion Energy =            180.3850503602365620
    One-Electron Energy =                -721.8639914710314542
    Two-Electron Energy =                 274.5273058754030444
    DFT Exchange-Correlation Energy =       0.0000000000000000
    Empirical Dispersion Energy =           0.0000000000000000
    PCM Polarization Energy =               0.0000000000000000
    EFP Energy =                            0.0000000000000000
    Total Energy =                       -266.9516352353919046
    Molecular point group: c1
  Basis Set: CC-PVTZ
  Basis Set:

  -Total Gradient:
     Atom            X                  Y                   Z
    ------   -----------------  -----------------  -----------------
       1        0.000023422551     0.000019833506    -0.000007336706
       2        0.000105360910    -0.000257025107    -0.000040786017
       3       -0.000236369495     0.000322594520    -0.000109960412
       4        0.000183443153    -0.000313692310     0.000221787221
       5        0.000050466168     0.000034507377     0.000135003025
       6        0.000020550914    -0.000030937899     0.000008239293
       7       -0.000137462926     0.000212978117    -0.000209684282
       8        0.000016151413    -0.000017904044     0.000016531343
       9       -0.000007628583     0.000018505129    -0.000019620603
      10       -0.000005861889    -0.000000181396     0.000001058808
      11       -0.000012072215     0.000011322108     0.000004768328

  **** Optimization is complete! (in 6 steps) ****
    Final optimized geometry and variables:
    Molecular point group: c1

    Geometry (in Angstrom), charge = 0, multiplicity = 1:

    H            1.749222959823     0.805888572675    -1.012989271732
    O            0.954847178008     0.301042930324    -1.103335558394
    C            0.527773497690    -0.033060335587     0.110868068019
    C           -0.765414515861    -0.800760290779     0.075308022573
    O            1.112545928543     0.275548767562     1.091588451893
    C           -1.962218619742     0.142926853806    -0.077407990613
    H           -0.737003461631    -1.496563365868    -0.752896547118
    H           -0.837085449713    -1.354885177883     0.999377259891
    H           -1.902325892852     0.702815835472    -1.001902896264
    H           -2.882705019647    -0.426160743952    -0.086561519396
    H           -2.007780170352     0.844330000334     0.746324946755

  Mulliken Charges: (a.u.)
   Center  Symbol    Alpha    Beta     Spin     Total
       1     H     0.38014  0.38014  0.00000  0.23972
       2     O     4.16445  4.16445  0.00000 -0.32890
       3     C     2.79799  2.79799  0.00000  0.40403
       4     C     3.08955  3.08955  0.00000 -0.17909
       5     O     4.19633  4.19633  0.00000 -0.39266
       6     C     3.15038  3.15038  0.00000 -0.30075
       7     H     0.44368  0.44368  0.00000  0.11263
       8     H     0.43720  0.43720  0.00000  0.12560
       9     H     0.44724  0.44724  0.00000  0.10553
      10     H     0.44666  0.44666  0.00000  0.10668
      11     H     0.44639  0.44639  0.00000  0.10722

   Total alpha = 20.00000, Total beta = 20.00000, Total charge =  0.00000

*** Psi4 exiting successfully. Buy a developer a beer!
