  ==> Input File <==

--------------------------------------------------------------------------
set {
	reference rhf
	basis 6-31G*
}

set_num_threads( 4 )
memory 2 gb

molecule MOL {
0 1

H	 -3.365496	 -0.906124	 -0.519177
O	 -3.517110	 -0.026191	 -0.205115
C	 -2.306886	 0.532354	 0.237577
C	 -1.177863	 -0.397191	 -0.171080
H	 -2.156308	 1.517575	 -0.201710
H	 -2.315015	 0.655684	 1.319734
C	 0.198102	 0.111031	 0.262842
H	 -1.208843	 -0.518759	 -1.250427
H	 -1.368741	 -1.376554	 0.258909
C	 1.331804	 -0.827780	 -0.158768
H	 0.361943	 1.100838	 -0.156218
H	 0.217265	 0.229072	 1.345532
C	 2.723619	 -0.410569	 0.329459
H	 1.342964	 -0.912588	 -1.244120
H	 1.116806	 -1.824343	 0.220779
C	 3.243875	 0.895854	 -0.272975
H	 3.424222	 -1.207124	 0.091250
H	 2.714788	 -0.329854	 1.414619
H	 3.251977	 0.848779	 -1.358681
H	 2.637085	 1.747371	 0.016682
H	 4.259473	 1.094070	 0.055697

	symmetry c1
}
set optking {
	frozen_dihedral = ("
		1 2 3 5
	")
}

ee = optimize('scf')
oeprop('DIPOLE', 'QUADRUPOLE', 'MULLIKEN_CHARGES')
f=open( 'psi4out.xyz', 'w' )
f.write( "21  " )
f.write( str(ee) + "\n" )
f.write( MOL.save_string_xyz() )
f.close()
--------------------------------------------------------------------------

    Molecular point group: c1
  Charge       = 0
  Multiplicity = 1
  Basis Set: 6-31G*
  Basis Set:
  @DF-RHF Final Energy:  -310.20865347415952
    Total Energy =                       -310.2086534741595187
    Molecular point group: c1
  Basis Set: 6-31G*
  Basis Set:
  Basis Set: 6-31G*
  Basis Set:
  @DF-RHF Final Energy:  -310.20993716604738
    Total Energy =                       -310.2099371660482348
  Basis Set: 6-31G*
  Basis Set:
  Basis Set: 6-31G*
  Basis Set:
  @DF-RHF Final Energy:  -310.21031988250149
    Total Energy =                       -310.2103198825015511
  Basis Set: 6-31G*
  Basis Set:
  Basis Set: 6-31G*
  Basis Set:
  @DF-RHF Final Energy:  -310.21032459476481
    Total Energy =                       -310.2103245947649839
  Basis Set: 6-31G*
  Basis Set:
  Basis Set: 6-31G*
  Basis Set:
  @DF-RHF Final Energy:  -310.21032073812523
    Total Energy =                       -310.2103207381253469
  Basis Set: 6-31G*
  Basis Set:
  Basis Set: 6-31G*
  Basis Set:
  @DF-RHF Final Energy:  -310.21032571980578
    Total Energy =                       -310.2103257198060646
  Basis Set: 6-31G*
  Basis Set:
  Charge       = 0
  Multiplicity = 1
  Basis Set: 6-31G*
  Basis Set:

    Orbital Energies (a.u.)
    -----------------------

    Doubly Occupied:

       1A    -20.548483     2A    -11.265938     3A    -11.224650
       4A    -11.223183     5A    -11.220184     6A    -11.219432
       7A    -11.211623     8A     -1.355929     9A     -1.092803
      10A     -1.037917    11A     -0.957075    12A     -0.881532
      13A     -0.826609    14A     -0.784224    15A     -0.667981
      16A     -0.661792    17A     -0.625776    18A     -0.619754
      19A     -0.592747    20A     -0.576665    21A     -0.546122
      22A     -0.532671    23A     -0.508162    24A     -0.496574
      25A     -0.488574    26A     -0.467139    27A     -0.461786
      28A     -0.442145    29A     -0.430740

  @DF-RHF Final Energy:  -310.21032567882168

   => Energetics <=

    Nuclear Repulsion Energy =            312.4457011314984243
    One-Electron Energy =               -1039.3756299222084181
    Two-Electron Energy =                 416.7196031118882047
    DFT Exchange-Correlation Energy =       0.0000000000000000
    Empirical Dispersion Energy =           0.0000000000000000
    PCM Polarization Energy =               0.0000000000000000
    EFP Energy =                            0.0000000000000000
    Total Energy =                       -310.2103256788217323
    Molecular point group: c1
  Basis Set: 6-31G*
  Basis Set:

  -Total Gradient:
     Atom            X                  Y                   Z
    ------   -----------------  -----------------  -----------------
       1        0.000142651483     0.000353084202    -0.000877902959
       2       -0.000109130383    -0.000535317894     0.000918146034
       3       -0.000400667989     0.000531677122     0.000604047803
       4        0.000022222134     0.000005875572    -0.000002132122
       5        0.000356911624    -0.000344959858    -0.000652721959
       6        0.000006922654    -0.000000657201    -0.000000208750
       7        0.000000007686    -0.000003323534     0.000010130093
       8        0.000000558584    -0.000003581807    -0.000001178733
       9       -0.000000999567     0.000001611799     0.000007404719
      10        0.000007355402    -0.000006455697    -0.000011787562
      11        0.000000429162     0.000003890779     0.000003263952
      12       -0.000006309970    -0.000005107972     0.000006259357
      13       -0.000009609507     0.000010713246    -0.000003232550
      14       -0.000004001977    -0.000004312337    -0.000003078495
      15        0.000006365386     0.000000110618     0.000004556581
      16        0.000001186341    -0.000001812691    -0.000001243532
      17       -0.000006793748    -0.000002318775    -0.000001769951
      18       -0.000003209694     0.000001415626     0.000000801637
      19       -0.000002246247     0.000000553339    -0.000000262619
      20       -0.000003434394    -0.000000196706     0.000002297918
      21        0.000001793028    -0.000000887832    -0.000001388862

  **** Optimization is complete! (in 7 steps) ****
    Final optimized geometry and variables:
    Molecular point group: c1

    Geometry (in Angstrom), charge = 0, multiplicity = 1:

    H           -3.498700717842    -0.827729278334    -0.521003803044
    O           -3.573268819904     0.050498377541    -0.178445397027
    C           -2.312514391005     0.518408816402     0.234421420578
    C           -1.172773931099    -0.406970284767    -0.172977148764
    H           -2.162848315499     1.497871439188    -0.208166676658
    H           -2.319764548998     0.643600363983     1.313770511580
    C            0.200224984952     0.107369572976     0.263275800944
    H           -1.191687291247    -0.529730286705    -1.254638746539
    H           -1.346267621191    -1.391838439278     0.259761979098
    C            1.340895568668    -0.825084784045    -0.153325495162
    H            0.356144405967     1.097003656154    -0.157602000552
    H            0.212309198542     0.227291175906     1.345226108782
    C            2.728237030459    -0.394440031517     0.336024451221
    H            1.355091267037    -0.913587715575    -1.238409196720
    H            1.133535175657    -1.821955990554     0.230089972782
    C            3.238451436187     0.914028164410    -0.270433919165
    H            3.435308391568    -1.186294607149     0.101802512751
    H            2.716483157447    -0.310139071664     1.420772286428
    H            3.248397668316     0.863329595887    -1.355934468381
    H            2.624963875087     1.761844044636     0.015792032761
    H            4.251939754710     1.121074888647     0.058856331967

  Mulliken Charges: (a.u.)
   Center  Symbol    Alpha    Beta     Spin     Total
       1     H     0.27967  0.27967  0.00000  0.44066
       2     O     4.37963  4.37963  0.00000 -0.75926
       3     C     2.96777  2.96777  0.00000  0.06447
       4     C     3.18822  3.18822  0.00000 -0.37643
       5     H     0.42429  0.42429  0.00000  0.15143
       6     H     0.42733  0.42733  0.00000  0.14534
       7     C     3.15951  3.15951  0.00000 -0.31903
       8     H     0.41853  0.41853  0.00000  0.16295
       9     H     0.42231  0.42231  0.00000  0.15538
      10     C     3.15243  3.15243  0.00000 -0.30485
      11     H     0.41799  0.41799  0.00000  0.16402
      12     H     0.42075  0.42075  0.00000  0.15849
      13     C     3.15289  3.15289  0.00000 -0.30578
      14     H     0.42302  0.42302  0.00000  0.15395
      15     H     0.42156  0.42156  0.00000  0.15688
      16     C     3.24165  3.24165  0.00000 -0.48330
      17     H     0.41997  0.41997  0.00000  0.16006
      18     H     0.42259  0.42259  0.00000  0.15482
      19     H     0.42177  0.42177  0.00000  0.15646
      20     H     0.41989  0.41989  0.00000  0.16022
      21     H     0.41824  0.41824  0.00000  0.16351

   Total alpha = 29.00000, Total beta = 29.00000, Total charge =  0.00000
