  ==> Input File <==

--------------------------------------------------------------------------
set {
	reference rhf
	basis 6-31G*
}

set_num_threads( 4 )
memory 2 gb

molecule MOL {
0 1

O	 -0.291628	 1.323815	 -0.000732
C	 -0.449655	 0.146360	 0.000961
C	 -1.783294	 -0.549321	 -0.000296
O	 0.550821	 -0.724572	 0.000672
H	 -1.863538	 -1.185371	 -0.874187
H	 -2.574672	 0.185258	 -0.002793
H	 -1.866414	 -1.182381	 0.875436
C	 0.749680	 -1.473174	 -1.185217
H	 -0.125351	 -2.065171	 -1.411525
H	 1.595259	 -2.114235	 -0.990831
H	 0.960152	 -0.816912	 -2.017301

	symmetry c1
}
set optking {
	frozen_dihedral = ("
		8 4 2 1
	")
}

ee = optimize('scf')
oeprop('DIPOLE', 'QUADRUPOLE', 'MULLIKEN_CHARGES')
f=open( 'psi4out.xyz', 'w' )
f.write( "11  " )
f.write( str(ee) + "\n" )
f.write( MOL.save_string_xyz() )
f.close()
--------------------------------------------------------------------------

    Molecular point group: c1
  Charge       = 0
  Multiplicity = 1
  Basis Set: 6-31G*
  Basis Set:
  @DF-RHF Final Energy:  -266.81228616615158
    Total Energy =                       -266.8122861661514094
    Molecular point group: c1
  Basis Set: 6-31G*
  Basis Set:
  Basis Set: 6-31G*
  Basis Set:
  @DF-RHF Final Energy:  -266.81146206292681
    Total Energy =                       -266.8114620629269211
  Basis Set: 6-31G*
  Basis Set:
  Basis Set: 6-31G*
  Basis Set:
  @DF-RHF Final Energy:  -266.81404939120887
    Total Energy =                       -266.8140493912087550
  Basis Set: 6-31G*
  Basis Set:
  Basis Set: 6-31G*
  Basis Set:
  @DF-RHF Final Energy:  -266.81518151309001
    Total Energy =                       -266.8151815130898399
  Basis Set: 6-31G*
  Basis Set:
  @DF-RHF Final Energy:  -266.81523561640086
    Total Energy =                       -266.8152356164008552
  @DF-RHF Final Energy:  -266.81524607899303
    Total Energy =                       -266.8152460789931411
  Basis Set: 6-31G*
  Basis Set:
  @DF-RHF Final Energy:  -266.81524913881753
    Total Energy =                       -266.8152491388176486
  Basis Set: 6-31G*
  Basis Set:
  Basis Set: 6-31G*
  Basis Set:
  @DF-RHF Final Energy:  -266.81525151746791
    Total Energy =                       -266.8152515174678570
  Basis Set: 6-31G*
  Basis Set:
  Basis Set: 6-31G*
  Basis Set:
  @DF-RHF Final Energy:  -266.81525330315822
    Total Energy =                       -266.8152533031579878
  Basis Set: 6-31G*
  Basis Set:
  Charge       = 0
  Multiplicity = 1
  Basis Set: 6-31G*
  Basis Set:

    Orbital Energies (a.u.)
    -----------------------

    Doubly Occupied:

       1A    -20.589508     2A    -20.556924     3A    -11.379416
       4A    -11.295728     5A    -11.240541     6A     -1.460932
       7A     -1.369953     8A     -1.024138     9A     -0.970920
      10A     -0.780280    11A     -0.695195    12A     -0.683625
      13A     -0.671063    14A     -0.616355    15A     -0.589874
      16A     -0.580077    17A     -0.543695    18A     -0.492305
      19A     -0.462152    20A     -0.440478

  @DF-RHF Final Energy:  -266.81525395678136

   => Energetics <=

    Nuclear Repulsion Energy =            182.3485339507554102
    One-Electron Energy =                -725.4412591963858858
    Two-Electron Energy =                 276.2774712888489717
    DFT Exchange-Correlation Energy =       0.0000000000000000
    Empirical Dispersion Energy =           0.0000000000000000
    PCM Polarization Energy =               0.0000000000000000
    EFP Energy =                            0.0000000000000000
    Total Energy =                       -266.8152539567815325
    Molecular point group: c1
  Basis Set: 6-31G*
  Basis Set:

  -Total Gradient:
     Atom            X                  Y                   Z
    ------   -----------------  -----------------  -----------------
       1        0.000024511470    -0.000015131767    -0.001121612910
       2        0.000197917852     0.000385155738     0.001476796176
       3        0.000003737708    -0.000008273670     0.000004214542
       4       -0.000796266585    -0.001011968903    -0.000035765883
       5        0.000000680204     0.000001654961     0.000000163123
       6       -0.000001162808    -0.000002663280    -0.000000305417
       7        0.000001153524     0.000002489798    -0.000000829940
       8        0.000566814935     0.000633808205    -0.000334935670
       9        0.000003508596     0.000009057807     0.000008362243
      10       -0.000000872431     0.000004379116     0.000003732305
      11       -0.000000022468     0.000001491994     0.000000181429

  **** Optimization is complete! (in 10 steps) ****
    Final optimized geometry and variables:
    Molecular point group: c1

    Geometry (in Angstrom), charge = 0, multiplicity = 1:

    O           -0.050532118343     1.574026440665     0.245334283979
    C           -0.236550467535     0.408248854491     0.235789462135
    C           -1.604395274961    -0.226864100139     0.273199055150
    O            0.796785262084    -0.462318171753     0.243897585968
    H           -1.801396448972    -0.768540090802    -0.645809645999
    H           -2.354406221095     0.539844049410     0.397656253726
    H           -1.655263513622    -0.936988359004     1.090579926400
    C            1.048869655338    -1.210373044103    -0.925032798174
    H            0.249423639501    -1.913038614592    -1.131914349137
    H            1.960465774221    -1.757842777793    -0.744396358847
    H            1.188712110483    -0.555063898061    -1.776812651649

  Mulliken Charges: (a.u.)
   Center  Symbol    Alpha    Beta     Spin     Total
       1     O     4.24618  4.24618  0.00000 -0.49237
       2     C     2.62868  2.62868  0.00000  0.74263
       3     C     3.29416  3.29416  0.00000 -0.58831
       4     O     4.30655  4.30655  0.00000 -0.61310
       5     H     0.40564  0.40564  0.00000  0.18871
       6     H     0.39334  0.39334  0.00000  0.21332
       7     H     0.39854  0.39854  0.00000  0.20292
       8     C     3.09286  3.09286  0.00000 -0.18573
       9     H     0.42118  0.42118  0.00000  0.15764
      10     H     0.40037  0.40037  0.00000  0.19926
      11     H     0.41249  0.41249  0.00000  0.17502

   Total alpha = 20.00000, Total beta = 20.00000, Total charge =  0.00000
