  ==> Input File <==

--------------------------------------------------------------------------
set {
	reference rhf
	basis 6-31G*
}

set_num_threads( 4 )
memory 2 gb

molecule MOL {
0 1

H	 2.866480	 -0.465706	 0.876907
C	 2.405773	 -0.024801	 0.000000
N	 0.988830	 -0.304158	 0.000000
H	 2.866480	 -0.465706	 -0.876907
H	 2.629928	 1.045948	 0.000000
C	 0.202100	 0.825660	 0.458842
C	 0.660222	 -1.498008	 0.756773
H	 0.449317	 1.096018	 1.490486
H	 0.416845	 1.685429	 -0.167997
C	 -1.277700	 0.490189	 0.371435
H	 1.210425	 -2.339734	 0.348093
H	 0.940822	 -1.396975	 1.810127
C	 -0.831727	 -1.771859	 0.661465
H	 -1.876667	 1.287012	 0.792538
H	 -1.560639	 0.356877	 -0.671227
O	 -1.572377	 -0.667993	 1.100635
H	 -1.109016	 -2.606633	 1.291766
H	 -1.093683	 -2.011597	 -0.367551

	symmetry c1
}
set optking {
	frozen_dihedral = ("
		6 3 2 5
	")
}

ee = optimize('scf')
oeprop('DIPOLE', 'QUADRUPOLE', 'MULLIKEN_CHARGES')
f=open( 'psi4out.xyz', 'w' )
f.write( "18  " )
f.write( str(ee) + "\n" )
f.write( MOL.save_string_xyz() )
f.close()
--------------------------------------------------------------------------

    Molecular point group: c1
  Charge       = 0
  Multiplicity = 1
  Basis Set: 6-31G*
  Basis Set:
  @DF-RHF Final Energy:  -325.02342902570831
    Total Energy =                       -325.0234290257086514
    Molecular point group: c1
  Basis Set: 6-31G*
  Basis Set:
  Basis Set: 6-31G*
  Basis Set:
  @DF-RHF Final Energy:  -325.02445746789351
    Total Energy =                       -325.0244574678935123
  Basis Set: 6-31G*
  Basis Set:
  Basis Set: 6-31G*
  Basis Set:
  @DF-RHF Final Energy:  -325.02461497553219
    Total Energy =                       -325.0246149755328702
  Basis Set: 6-31G*
  Basis Set:
  Basis Set: 6-31G*
  Basis Set:
  @DF-RHF Final Energy:  -325.02462510729976
    Total Energy =                       -325.0246251072998120
  Basis Set: 6-31G*
  Basis Set:
  Charge       = 0
  Multiplicity = 1
  Basis Set: 6-31G*
  Basis Set:

    Orbital Energies (a.u.)
    -----------------------

    Doubly Occupied:

       1A    -20.553535     2A    -15.545682     3A    -11.265591
       4A    -11.265522     5A    -11.244240     6A    -11.243853
       7A    -11.241044     8A     -1.382764     9A     -1.228448
      10A     -1.038441    11A     -0.980579    12A     -0.882939
      13A     -0.869385    14A     -0.773102    15A     -0.682960
      16A     -0.644509    17A     -0.643204    18A     -0.632597
      19A     -0.626358    20A     -0.570180    21A     -0.558110
      22A     -0.545223    23A     -0.526934    24A     -0.500375
      25A     -0.485309    26A     -0.451995    27A     -0.407578
      28A     -0.345278

  @DF-RHF Final Energy:  -325.02462630742059

   => Energetics <=

    Nuclear Repulsion Energy =            341.0539807495022160
    One-Electron Energy =               -1117.8857446706342671
    Two-Electron Energy =                 451.8071376137119159
    DFT Exchange-Correlation Energy =       0.0000000000000000
    Empirical Dispersion Energy =           0.0000000000000000
    PCM Polarization Energy =               0.0000000000000000
    EFP Energy =                            0.0000000000000000
    Total Energy =                       -325.0246263074201352
    Molecular point group: c1
  Basis Set: 6-31G*
  Basis Set:

  -Total Gradient:
     Atom            X                  Y                   Z
    ------   -----------------  -----------------  -----------------
       1        0.000024396978    -0.000001483850     0.000002182926
       2       -0.000302962014     0.000211282702    -0.007080211055
       3        0.000470831524    -0.001401903202     0.005835703759
       4       -0.000032760001    -0.000004564985     0.000048611487
       5        0.000186600737     0.000202168382     0.004504306936
       6       -0.000324098832     0.001031938236    -0.003267585795
       7       -0.000008425350     0.000000669351    -0.000049395501
       8        0.000022165732    -0.000010433323    -0.000007736860
       9       -0.000005633741    -0.000008337491    -0.000000164571
      10       -0.000029630474    -0.000020993329    -0.000032593768
      11        0.000003384310     0.000003697204     0.000003724121
      12       -0.000007909293     0.000002760730    -0.000012272216
      13       -0.000005085709    -0.000035693538     0.000053091975
      14       -0.000008668876    -0.000008515273     0.000005693967
      15        0.000000346110     0.000011473192    -0.000009202363
      16        0.000031109983     0.000029920995    -0.000008259538
      17       -0.000031169167    -0.000012336646     0.000003054760
      18        0.000017508084     0.000010350846     0.000011051736

  **** Optimization is complete! (in 5 steps) ****
    Final optimized geometry and variables:
    Molecular point group: c1

    Geometry (in Angstrom), charge = 0, multiplicity = 1:

    H            2.858307365602     0.021397157758     0.381059226652
    C            2.336027023712     0.380625309433    -0.507983581969
    N            0.910572360882     0.128880854049    -0.441642606800
    H            2.776359858158    -0.103223008240    -1.373548694070
    H            2.528293872053     1.445494632269    -0.560709084681
    C            0.114125864768     1.259076989005    -0.007743083245
    C            0.573451304311    -1.082650497553     0.274873284731
    H            0.334960051894     1.547209445167     1.025411486111
    H            0.331970480263     2.111098588032    -0.642778806746
    C           -1.361498729271     0.911891476255    -0.120933223583
    H            1.126464266336    -1.913385933033    -0.152974760734
    H            0.846716207741    -1.013494564111     1.332879837745
    C           -0.917651431778    -1.352648701309     0.158788780438
    H           -1.974647593141     1.703061642335     0.290585677206
    H           -1.624027480095     0.777584898627    -1.168806071451
    O           -1.660086982108    -0.250643914890     0.599935899243
    H           -1.205418494142    -2.193277729717     0.776675756157
    H           -1.168091378775    -1.579979632266    -0.875815268526

  Mulliken Charges: (a.u.)
   Center  Symbol    Alpha    Beta     Spin     Total
       1     H     0.42891  0.42891  0.00000  0.14218
       2     C     3.13790  3.13790  0.00000 -0.27580
       3     N     3.79428  3.79428  0.00000 -0.58856
       4     H     0.41491  0.41491  0.00000  0.17018
       5     H     0.41870  0.41870  0.00000  0.16261
       6     C     3.06463  3.06463  0.00000 -0.12926
       7     C     3.06510  3.06510  0.00000 -0.13020
       8     H     0.42924  0.42924  0.00000  0.14151
       9     H     0.41692  0.41692  0.00000  0.16615
      10     C     2.99802  2.99802  0.00000  0.00395
      11     H     0.41693  0.41693  0.00000  0.16614
      12     H     0.42866  0.42866  0.00000  0.14268
      13     C     2.99768  2.99768  0.00000  0.00464
      14     H     0.41356  0.41356  0.00000  0.17289
      15     H     0.42442  0.42442  0.00000  0.15116
      16     O     4.31222  4.31222  0.00000 -0.62443
      17     H     0.41351  0.41351  0.00000  0.17298
      18     H     0.42441  0.42441  0.00000  0.15118

   Total alpha = 28.00000, Total beta = 28.00000, Total charge =  0.00000
