  ==> Input File <==

--------------------------------------------------------------------------
set {
	reference rhf
	basis cc-pvtz
}

set_num_threads( 4 )
memory 2 gb

molecule MOL {
0 1

H	 1.839237	 -0.689783	 -1.144883
O	 1.025216	 -0.684580	 -0.676922
C	 0.700177	 0.619554	 -0.266242
C	 -0.713111	 0.588314	 0.266177
H	 0.757568	 1.309926	 -1.102315
H	 1.376243	 0.960947	 0.513350
O	 -1.421673	 -0.521378	 -0.196983
H	 -1.244794	 1.469161	 -0.069059
H	 -0.685100	 0.604721	 1.352683
H	 -0.933408	 -1.297830	 0.014544

	symmetry c1
}
set optking {
	frozen_dihedral = ("
		5 3 4 7
	")
}

ee = optimize('scf')
oeprop('DIPOLE', 'QUADRUPOLE', 'MULLIKEN_CHARGES')
f=open( 'psi4out.xyz', 'w' )
f.write( "10  " )
f.write( str(ee) + "\n" )
f.write( MOL.save_string_xyz() )
f.close()
--------------------------------------------------------------------------

    Molecular point group: c1
  Charge       = 0
  Multiplicity = 1
  Basis Set: CC-PVTZ
  Basis Set:
  @DF-RHF Final Energy:  -229.01805766551888
    Total Energy =                       -229.0180576655188247
    Molecular point group: c1
  Basis Set: CC-PVTZ
  Basis Set:
  Basis Set: CC-PVTZ
  Basis Set:
  @DF-RHF Final Energy:  -229.02048922268600
    Total Energy =                       -229.0204892226859670
  Basis Set: CC-PVTZ
  Basis Set:
  Basis Set: CC-PVTZ
  Basis Set:
  @DF-RHF Final Energy:  -229.02101981476514
    Total Energy =                       -229.0210198147653387
  Basis Set: CC-PVTZ
  Basis Set:
  Basis Set: CC-PVTZ
  Basis Set:
  @DF-RHF Final Energy:  -229.02115076422254
    Total Energy =                       -229.0211507642225399
  Basis Set: CC-PVTZ
  Basis Set:
  Basis Set: CC-PVTZ
  Basis Set:
  @DF-RHF Final Energy:  -229.02126167486938
    Total Energy =                       -229.0212616748692653
  Basis Set: CC-PVTZ
  Basis Set:
  Basis Set: CC-PVTZ
  Basis Set:
  @DF-RHF Final Energy:  -229.02127869950672
    Total Energy =                       -229.0212786995068655
  Basis Set: CC-PVTZ
  Basis Set:
  Basis Set: CC-PVTZ
  Basis Set:
  @DF-RHF Final Energy:  -229.02128238061456
    Total Energy =                       -229.0212823806147071
  Basis Set: CC-PVTZ
  Basis Set:
  Charge       = 0
  Multiplicity = 1
  Basis Set: CC-PVTZ
  Basis Set:

    Orbital Energies (a.u.)
    -----------------------

    Doubly Occupied:

       1A    -20.568104     2A    -20.535347     3A    -11.279218
       4A    -11.267360     5A     -1.392769     6A     -1.351019
       7A     -1.000153     8A     -0.848046     9A     -0.731486
      10A     -0.682468    11A     -0.659743    12A     -0.593133
      13A     -0.582951    14A     -0.544682    15A     -0.487189
      16A     -0.463319    17A     -0.422548

  @DF-RHF Final Energy:  -229.02128301114178

   => Energetics <=

    Nuclear Repulsion Energy =            135.0114322160922882
    One-Electron Energy =                -581.2463603642323733
    Two-Electron Energy =                 217.2136451369982240
    DFT Exchange-Correlation Energy =       0.0000000000000000
    Empirical Dispersion Energy =           0.0000000000000000
    PCM Polarization Energy =               0.0000000000000000
    EFP Energy =                            0.0000000000000000
    Total Energy =                       -229.0212830111418327
    Molecular point group: c1
  Basis Set: CC-PVTZ
  Basis Set:

  -Total Gradient:
     Atom            X                  Y                   Z
    ------   -----------------  -----------------  -----------------
       1        0.000013685277     0.000005749798     0.000026971305
       2       -0.000000499054    -0.000103518165    -0.000057555557
       3       -0.001673740661    -0.008158794570    -0.004024621772
       4       -0.002349257684     0.005678313331    -0.005188972855
       5        0.001933634569     0.005714386268     0.004581332417
       6       -0.000007876493    -0.000019130780    -0.000013694070
       7        0.002078279313    -0.003095219610     0.004653766221
       8       -0.000015618967    -0.000012356871     0.000009197512
       9        0.000012281899     0.000019229098    -0.000002186979
      10        0.000009111799    -0.000028658499     0.000015763777

  **** Optimization is complete! (in 8 steps) ****
    Final optimized geometry and variables:
    Molecular point group: c1

    Geometry (in Angstrom), charge = 0, multiplicity = 1:

    H            2.018251755435    -0.680062659089    -0.803576222928
    O            1.150667362080    -0.661473432732    -0.445464059920
    C            0.782284161224     0.648548671658    -0.115158421356
    C           -0.624920149015     0.633851444879     0.502656680298
    H            0.824264604362     1.316634932384    -0.969937519953
    H            1.470542359882     1.058525004487     0.619114567309
    O           -1.383239187147    -0.469146306979     0.116764325035
    H           -1.158704982252     1.529019417319     0.213406782617
    H           -0.531957245676     0.644855662229     1.585481504543
    H           -0.805019189082    -1.194535109149    -0.041661171891

  Mulliken Charges: (a.u.)
   Center  Symbol    Alpha    Beta     Spin     Total
       1     H     0.39380  0.39380  0.00000  0.21239
       2     O     4.19852  4.19852  0.00000 -0.39705
       3     C     2.96797  2.96797  0.00000  0.06407
       4     C     2.95778  2.95778  0.00000  0.08443
       5     H     0.47428  0.47428  0.00000  0.05144
       6     H     0.47462  0.47462  0.00000  0.05075
       7     O     4.20817  4.20817  0.00000 -0.41634
       8     H     0.46473  0.46473  0.00000  0.07055
       9     H     0.47805  0.47805  0.00000  0.04390
      10     H     0.38207  0.38207  0.00000  0.23585

   Total alpha = 17.00000, Total beta = 17.00000, Total charge = -0.00000
