  ==> Input File <==

--------------------------------------------------------------------------
set {
	reference rhf
	basis 6-31G*
}

set_num_threads( 4 )
memory 2 gb

molecule MOL {
0 1

H	 2.591676	 2.013956	 0.335017
O	 3.341076	 1.666752	 -0.126416
C	 3.569581	 0.339145	 0.272707
C	 5.038165	 -0.064916	 0.203984
H	 3.220310	 0.274973	 1.295236
H	 2.964082	 -0.346289	 -0.319180
C	 5.621047	 -0.054128	 -1.211290
H	 5.610471	 0.605856	 0.839513
H	 5.135320	 -1.063190	 0.627513
C	 7.080335	 -0.516221	 -1.253330
H	 5.546335	 0.949492	 -1.620594
H	 5.023121	 -0.700391	 -1.854073
C	 7.687190	 -0.605768	 -2.658338
H	 7.684975	 0.151333	 -0.642079
H	 7.146406	 -1.496830	 -0.786701
C	 7.846734	 0.736200	 -3.378160
H	 8.665670	 -1.074859	 -2.578664
H	 7.081572	 -1.273224	 -3.269539
C	 8.551834	 0.607368	 -4.730075
H	 8.410195	 1.419058	 -2.743868
H	 6.873659	 1.196307	 -3.532207
C	 8.706648	 1.944603	 -5.453609
H	 9.533094	 0.161247	 -4.583131
H	 7.995513	 -0.082103	 -5.361757
H	 9.287099	 2.646108	 -4.860995
H	 9.211322	 1.820459	 -6.406776
H	 7.739539	 2.399609	 -5.648627

	symmetry c1
}
set optking {
	frozen_dihedral = ("
		4 3 2 1
	")
}

ee = optimize('scf')
oeprop('DIPOLE', 'QUADRUPOLE', 'MULLIKEN_CHARGES')
f=open( 'psi4out.xyz', 'w' )
f.write( "27  " )
f.write( str(ee) + "\n" )
f.write( MOL.save_string_xyz() )
f.close()
--------------------------------------------------------------------------

    Molecular point group: c1
  Charge       = 0
  Multiplicity = 1
  Basis Set: 6-31G*
  Basis Set:
  @DF-RHF Final Energy:  -388.27952435866627
    Total Energy =                       -388.2795243586660945
    Molecular point group: c1
  Basis Set: 6-31G*
  Basis Set:
  Basis Set: 6-31G*
  Basis Set:
  @DF-RHF Final Energy:  -388.28087114949437
    Total Energy =                       -388.2808711494946010
  Basis Set: 6-31G*
  Basis Set:
  Basis Set: 6-31G*
  Basis Set:
  @DF-RHF Final Energy:  -388.28127058130599
    Total Energy =                       -388.2812705813056482
  Basis Set: 6-31G*
  Basis Set:
  Basis Set: 6-31G*
  Basis Set:
  @DF-RHF Final Energy:  -388.28127624740591
    Total Energy =                       -388.2812762474056854
  Basis Set: 6-31G*
  Basis Set:
  Basis Set: 6-31G*
  Basis Set:
  @DF-RHF Final Energy:  -388.28127523526649
    Total Energy =                       -388.2812752352659800
  Basis Set: 6-31G*
  Basis Set:
  Basis Set: 6-31G*
  Basis Set:
  @DF-RHF Final Energy:  -388.28127731135743
    Total Energy =                       -388.2812773113574849
  Basis Set: 6-31G*
  Basis Set:
  Charge       = 0
  Multiplicity = 1
  Basis Set: 6-31G*
  Basis Set:

    Orbital Energies (a.u.)
    -----------------------

    Doubly Occupied:

       1A    -20.552113     2A    -11.268021     3A    -11.211420
       4A    -11.209987     5A    -11.208520     6A    -11.207935
       7A    -11.206439     8A    -11.205069     9A    -11.204007
      10A     -1.358634    11A     -1.087129    12A     -1.055414
      13A     -1.007112    14A     -0.942111    15A     -0.878815
      16A     -0.810817    17A     -0.794102    18A     -0.770282
      19A     -0.702365    20A     -0.644955    21A     -0.639232
      22A     -0.610673    23A     -0.585872    24A     -0.580170
      25A     -0.568533    26A     -0.543818    27A     -0.537517
      28A     -0.518498    29A     -0.503524    30A     -0.495942
      31A     -0.475362    32A     -0.469689    33A     -0.459129
      34A     -0.452738    35A     -0.441391    36A     -0.429391
      37A     -0.429073

  @DF-RHF Final Energy:  -388.28127727116532

   => Energetics <=

    Nuclear Repulsion Energy =            460.0789159008472780
    One-Electron Energy =               -1438.5887907019077829
    Two-Electron Energy =                 590.2285975298957510
    DFT Exchange-Correlation Energy =       0.0000000000000000
    Empirical Dispersion Energy =           0.0000000000000000
    PCM Polarization Energy =               0.0000000000000000
    EFP Energy =                            0.0000000000000000
    Total Energy =                       -388.2812772711647540
    Molecular point group: c1
  Basis Set: 6-31G*
  Basis Set:

  -Total Gradient:
     Atom            X                  Y                   Z
    ------   -----------------  -----------------  -----------------
       1        0.001138941601     0.000567629093     0.001355175326
       2       -0.001378284845    -0.000453791353    -0.001294335693
       3        0.000058412942    -0.000392115295    -0.001203230753
       4        0.000153805952     0.000332227623     0.001106492850
       5        0.000019211104    -0.000021684381    -0.000004148628
       6       -0.000022865976    -0.000039256447     0.000023049306
       7       -0.000005013820     0.000012681752     0.000025256759
       8        0.000018139774    -0.000006063220    -0.000004095740
       9        0.000012271438    -0.000004200836    -0.000007651581
      10        0.000000156025    -0.000014920564     0.000000184059
      11       -0.000006779383     0.000008705200    -0.000000776554
      12        0.000005491358     0.000009588793     0.000003865796
      13       -0.000002850278    -0.000007200416     0.000000732248
      14        0.000002743561     0.000000272419    -0.000007036834
      15       -0.000001915370     0.000001519679     0.000008283951
      16        0.000007713333     0.000001944520     0.000004639299
      17       -0.000000587233     0.000004434803     0.000003264295
      18        0.000007455655    -0.000003904592    -0.000003457794
      19       -0.000006106949     0.000001494558    -0.000004760361
      20        0.000004707735    -0.000001648289    -0.000002460608
      21       -0.000000747289     0.000004845605     0.000003023123
      22       -0.000003338041    -0.000001116964    -0.000002161698
      23       -0.000001209202     0.000003327529     0.000001584843
      24        0.000001258505    -0.000002516025    -0.000000742892
      25       -0.000000493709    -0.000001178655     0.000000602778
      26       -0.000000255053     0.000000200850    -0.000000562212
      27        0.000000138174     0.000000724614    -0.000000733284

  **** Optimization is complete! (in 7 steps) ****
    Final optimized geometry and variables:
    Molecular point group: c1

    Geometry (in Angstrom), charge = 0, multiplicity = 1:

    H           -3.584418680620     1.625489975141     2.257845579192
    O           -2.860815489341     1.194049303090     1.828884270183
    C           -2.763874417937    -0.138387737192     2.272683297114
    C           -1.311393875057    -0.583029665927     2.218318823485
    H           -3.128238037938    -0.225773379880     3.293948934784
    H           -3.380710616998    -0.784417507115     1.650539010228
    C           -0.720224850040    -0.558752841144     0.807480893651
    H           -0.731248318317     0.063428830232     2.871683914595
    H           -1.247293234234    -1.590055772536     2.627163609925
    C            0.746572036971    -0.996682758121     0.778518345317
    H           -0.824978435535     0.441390621468     0.403680243735
    H           -1.303662653586    -1.217007812298     0.164527165946
    C            1.361605168299    -1.084312100609    -0.623136173484
    H            1.337917204880    -0.314318368816     1.387145924038
    H            0.830258756043    -1.973347109264     1.251913554057
    C            1.497219779454     0.256413372676    -1.349910464170
    H            2.348677194793    -1.534701708947    -0.538037593869
    H            0.770116769067    -1.766068285155    -1.232432463762
    C            2.200289890105     0.132508661754    -2.703330855857
    H            2.051985570163     0.950938820088    -0.720468276210
    H            0.516479914053     0.699631000904    -1.501700202869
    C            2.333061168337     1.469015195226    -3.432665668712
    H            3.188656903251    -0.298697903767    -2.558258119962
    H            1.652062337092    -0.567287683148    -3.330806264694
    H            2.905492763770     2.181078816132    -2.844756497324
    H            2.835913496669     1.348842673364    -4.387477098352
    H            1.358643584148     1.909122613727    -3.625058353545

  Mulliken Charges: (a.u.)
   Center  Symbol    Alpha    Beta     Spin     Total
       1     H     0.27973  0.27973  0.00000  0.44054
       2     O     4.37146  4.37146  0.00000 -0.74292
       3     C     2.99794  2.99794  0.00000  0.00413
       4     C     3.15744  3.15744  0.00000 -0.31489
       5     H     0.43033  0.43033  0.00000  0.13934
       6     H     0.42928  0.42928  0.00000  0.14144
       7     C     3.15756  3.15756  0.00000 -0.31512
       8     H     0.41794  0.41794  0.00000  0.16411
       9     H     0.42530  0.42530  0.00000  0.14940
      10     C     3.15322  3.15322  0.00000 -0.30645
      11     H     0.40441  0.40441  0.00000  0.19119
      12     H     0.42683  0.42683  0.00000  0.14634
      13     C     3.15270  3.15270  0.00000 -0.30540
      14     H     0.42386  0.42386  0.00000  0.15228
      15     H     0.42456  0.42456  0.00000  0.15088
      16     C     3.15282  3.15282  0.00000 -0.30564
      17     H     0.42329  0.42329  0.00000  0.15342
      18     H     0.42477  0.42477  0.00000  0.15045
      19     C     3.15098  3.15098  0.00000 -0.30195
      20     H     0.42476  0.42476  0.00000  0.15048
      21     H     0.41992  0.41992  0.00000  0.16016
      22     C     3.23898  3.23898  0.00000 -0.47797
      23     H     0.42409  0.42409  0.00000  0.15183
      24     H     0.42371  0.42371  0.00000  0.15259
      25     H     0.42212  0.42212  0.00000  0.15576
      26     H     0.42043  0.42043  0.00000  0.15914
      27     H     0.42157  0.42157  0.00000  0.15687

   Total alpha = 37.00000, Total beta = 37.00000, Total charge =  0.00000
