  ==> Input File <==

--------------------------------------------------------------------------
set {
	reference rhf
	basis 6-31G*
}

set_num_threads( 4 )
memory 2 gb

molecule MOL {
0 1

H	 3.298851	 -0.435647	 0.020682
C	 2.239168	 -0.252690	 0.016235
C	 1.599665	 0.070262	 -1.174394
C	 1.520508	 -0.340375	 1.196836
H	 2.164389	 0.136402	 -2.086665
C	 0.238900	 0.305838	 -1.183661
H	 2.018616	 -0.590427	 2.115860
C	 0.155410	 -0.103812	 1.186216
H	 -0.274098	 0.556730	 -2.093076
C	 -0.488460	 0.219100	 0.000000
H	 -0.408682	 -0.170459	 2.100713
C	 -1.949954	 0.470334	 0.000000
O	 -2.781584	 -0.381627	 0.000000
H	 -2.238022	 1.526388	 0.000000

	symmetry c1
}
set optking {
	frozen_dihedral = ("
		8 10 12 14
	")
}

ee = optimize('scf')
oeprop('DIPOLE', 'QUADRUPOLE', 'MULLIKEN_CHARGES')
f=open( 'psi4out.xyz', 'w' )
f.write( "14  " )
f.write( str(ee) + "\n" )
f.write( MOL.save_string_xyz() )
f.close()
--------------------------------------------------------------------------

    Molecular point group: c1
  Charge       = 0
  Multiplicity = 1
  Basis Set: 6-31G*
  Basis Set:
  @DF-RHF Final Energy:  -343.41885040166977
    Total Energy =                       -343.4188504016695447
    Molecular point group: c1
  Basis Set: 6-31G*
  Basis Set:
  Basis Set: 6-31G*
  Basis Set:
  @DF-RHF Final Energy:  -343.41869210566483
    Total Energy =                       -343.4186921056648316
  Basis Set: 6-31G*
  Basis Set:
  Basis Set: 6-31G*
  Basis Set:
  @DF-RHF Final Energy:  -343.41892203120227
    Total Energy =                       -343.4189220312023849
  Basis Set: 6-31G*
  Basis Set:
  Basis Set: 6-31G*
  Basis Set:
  @DF-RHF Final Energy:  -343.41940992897082
    Total Energy =                       -343.4194099289703104
  Basis Set: 6-31G*
  Basis Set:
  Charge       = 0
  Multiplicity = 1
  Basis Set: 6-31G*
  Basis Set:

    Orbital Energies (a.u.)
    -----------------------

    Doubly Occupied:

       1A    -20.572483     2A    -11.335978     3A    -11.251531
       4A    -11.247693     5A    -11.246793     6A    -11.244330
       7A    -11.243602     8A    -11.242441     9A     -1.411331
      10A     -1.169115    11A     -1.044893    12A     -1.028959
      13A     -0.886934    14A     -0.840736    15A     -0.794456
      16A     -0.720562    17A     -0.677028    18A     -0.651409
      19A     -0.639544    20A     -0.616504    21A     -0.600545
      22A     -0.533461    23A     -0.528493    24A     -0.511582
      25A     -0.501672    26A     -0.421934    27A     -0.346828
      28A     -0.345933

  @DF-RHF Final Energy:  -343.41941265939010

   => Energetics <=

    Nuclear Repulsion Energy =            322.1976128194287412
    One-Electron Energy =               -1103.9205116459975216
    Two-Electron Energy =                 438.3034861671790736
    DFT Exchange-Correlation Energy =       0.0000000000000000
    Empirical Dispersion Energy =           0.0000000000000000
    PCM Polarization Energy =               0.0000000000000000
    EFP Energy =                            0.0000000000000000
    Total Energy =                       -343.4194126593897067
    Molecular point group: c1
  Basis Set: 6-31G*
  Basis Set:

  -Total Gradient:
     Atom            X                  Y                   Z
    ------   -----------------  -----------------  -----------------
       1        0.000005823668     0.000006349110    -0.000024098089
       2       -0.000017228407    -0.000088381713     0.000232580673
       3       -0.000219114944     0.000049871117    -0.000120612276
       4        0.000232670829     0.000058656220    -0.000136433335
       5        0.000031055746    -0.000004692244     0.000020702879
       6        0.000236055848     0.000022475060    -0.000133997846
       7       -0.000012275218    -0.000003985797    -0.000004694890
       8        0.000321110376     0.002953553809     0.000279937162
       9       -0.000026460478    -0.000008155943     0.000014516144
      10       -0.000862302039    -0.004308313027     0.000865146373
      11       -0.000001035112    -0.000002186249    -0.000002286500
      12        0.000293477747     0.001368204666    -0.004645032597
      13       -0.000036310858    -0.000087597895    -0.000008347105
      14        0.000054532839     0.000044202886     0.003662619406

  **** Optimization is complete! (in 5 steps) ****
    Final optimized geometry and variables:
    Molecular point group: c1

    Geometry (in Angstrom), charge = 0, multiplicity = 1:

    H            3.313207587863    -0.416210641892     0.011683900642
    C            2.252279355539    -0.242092615150     0.003171971146
    C            1.611624136616     0.077387182828    -1.183717077250
    C            1.524864052537    -0.332996456422     1.178443821926
    H            2.173690936677     0.149639352112    -2.097334834081
    C            0.246577057141     0.309039487300    -1.194170011481
    H            2.019374413572    -0.576945038998     2.101362547673
    C            0.156857919753    -0.113251665823     1.168132934732
    H           -0.246223532647     0.565188744696    -2.116015332310
    C           -0.487455979595     0.197476841571    -0.020737381826
    H           -0.408273072910    -0.193426598463     2.079634743487
    C           -1.960324853250     0.484365268214    -0.018830555885
    O           -2.799858094360    -0.352498195535     0.054668481863
    H           -2.237452661988     1.542418232921    -0.040792205818

  Mulliken Charges: (a.u.)
   Center  Symbol    Alpha    Beta     Spin     Total
       1     H     0.39586  0.39586  0.00000  0.20829
       2     C     3.09825  3.09825  0.00000 -0.19651
       3     C     3.09802  3.09802  0.00000 -0.19604
       4     C     3.09808  3.09808  0.00000 -0.19617
       5     H     0.39531  0.39531  0.00000  0.20938
       6     C     3.10569  3.10569  0.00000 -0.21137
       7     H     0.39514  0.39514  0.00000  0.20972
       8     C     3.10294  3.10294  0.00000 -0.20587
       9     H     0.39315  0.39315  0.00000  0.21369
      10     C     3.03081  3.03081  0.00000 -0.06162
      11     H     0.38994  0.38994  0.00000  0.22012
      12     C     2.85181  2.85181  0.00000  0.29637
      13     O     4.22228  4.22228  0.00000 -0.44456
      14     H     0.42271  0.42271  0.00000  0.15458

   Total alpha = 28.00000, Total beta = 28.00000, Total charge =  0.00000
