  ==> Input File <==

--------------------------------------------------------------------------
set {
	reference rhf
	basis cc-pvtz
}

set_num_threads( 4 )
memory 2 gb

molecule MOL {
0 1

H	 -1.676773	 -1.146858	 0.494797
O	 -1.432053	 -0.565244	 -0.200812
C	 -0.727158	 0.534527	 0.310686
C	 0.680222	 0.664433	 -0.252229
H	 -1.306802	 1.408001	 0.044211
H	 -0.690821	 0.490158	 1.397609
C	 1.605391	 -0.489360	 0.123098
H	 0.615089	 0.745647	 -1.332226
H	 1.101414	 1.597893	 0.110950
H	 1.247627	 -1.432485	 -0.275204
H	 2.601435	 -0.332816	 -0.273062
H	 1.691776	 -0.589902	 1.200774

	symmetry c1
}
set optking {
	frozen_dihedral = ("
		1 2 3 4
	")
}

ee = optimize('scf')
oeprop('DIPOLE', 'QUADRUPOLE', 'MULLIKEN_CHARGES')
f=open( 'psi4out.xyz', 'w' )
f.write( "12  " )
f.write( str(ee) + "\n" )
f.write( MOL.save_string_xyz() )
f.close()
--------------------------------------------------------------------------

    Molecular point group: c1
  Charge       = 0
  Multiplicity = 1
  Basis Set: CC-PVTZ
  Basis Set:
  @DF-RHF Final Energy:  -193.18923549078750
    Total Energy =                       -193.1892354907875244
    Molecular point group: c1
  Basis Set: CC-PVTZ
  Basis Set:
  Basis Set: CC-PVTZ
  Basis Set:
  @DF-RHF Final Energy:  -193.18969526935152
    Total Energy =                       -193.1896952693516596
  Basis Set: CC-PVTZ
  Basis Set:
  Basis Set: CC-PVTZ
  Basis Set:
  @DF-RHF Final Energy:  -193.18978263465155
    Total Energy =                       -193.1897826346514080
  Basis Set: CC-PVTZ
  Basis Set:
  Basis Set: CC-PVTZ
  Basis Set:
  @DF-RHF Final Energy:  -193.18978653836055
    Total Energy =                       -193.1897865383605790
  Basis Set: CC-PVTZ
  Basis Set:
  Basis Set: CC-PVTZ
  Basis Set:
  @DF-RHF Final Energy:  -193.18978802542372
    Total Energy =                       -193.1897880254236384
  Basis Set: CC-PVTZ
  Basis Set:
  Charge       = 0
  Multiplicity = 1
  Basis Set: CC-PVTZ
  Basis Set:

    Orbital Energies (a.u.)
    -----------------------

    Doubly Occupied:

       1A    -20.545613     2A    -11.266661     3A    -11.213096
       4A    -11.205971     5A     -1.363143     6A     -1.049045
       7A     -0.923013     8A     -0.802194     9A     -0.707971
      10A     -0.638598    11A     -0.594713    12A     -0.585914
      13A     -0.523833    14A     -0.514237    15A     -0.488109
      16A     -0.468057    17A     -0.432065

  @DF-RHF Final Energy:  -193.18978810399801

   => Energetics <=

    Nuclear Repulsion Energy =            133.1981824751167096
    One-Electron Energy =                -526.1314805733993580
    Two-Electron Energy =                 199.7435099942846364
    DFT Exchange-Correlation Energy =       0.0000000000000000
    Empirical Dispersion Energy =           0.0000000000000000
    PCM Polarization Energy =               0.0000000000000000
    EFP Energy =                            0.0000000000000000
    Total Energy =                       -193.1897881039980120
    Molecular point group: c1
  Basis Set: CC-PVTZ
  Basis Set:

  -Total Gradient:
     Atom            X                  Y                   Z
    ------   -----------------  -----------------  -----------------
       1        0.000123945400    -0.000072782217    -0.000010771259
       2       -0.000135657887     0.000080214931     0.000043406748
       3       -0.000017456359     0.000041559317    -0.000103852378
       4        0.000031600783    -0.000037587826     0.000075872735
       5        0.000002883892    -0.000003938715    -0.000002790280
       6        0.000001760125     0.000002917258     0.000004536730
       7       -0.000003405955    -0.000001552544    -0.000004338095
       8        0.000000662576     0.000000378317    -0.000003635719
       9       -0.000005493335    -0.000003894210     0.000001301382
      10        0.000000895045    -0.000005290279     0.000003234309
      11       -0.000000806241    -0.000002084251    -0.000000728048
      12        0.000001071955     0.000002060220    -0.000002236125

  **** Optimization is complete! (in 6 steps) ****
    Final optimized geometry and variables:
    Molecular point group: c1

    Geometry (in Angstrom), charge = 0, multiplicity = 1:

    H           -1.638031682484    -1.176775556349     0.444685404352
    O           -1.392189305445    -0.574072914513    -0.229706393889
    C           -0.723473177398     0.538006116349     0.314469245531
    C            0.680105091921     0.662837429181    -0.252419816629
    H           -1.294577441272     1.428362663032     0.075409027789
    H           -0.679756304961     0.464050951222     1.397832616157
    C            1.597124706128    -0.493326438135     0.129710567189
    H            0.606779418930     0.731802571282    -1.332939717610
    H            1.103376677921     1.601512802003     0.094968682348
    H            1.198254034079    -1.435928943748    -0.223098669840
    H            2.583140218007    -0.366863372507    -0.301685253626
    H            1.715555745822    -0.559492355704     1.207181653434

  Mulliken Charges: (a.u.)
   Center  Symbol    Alpha    Beta     Spin     Total
       1     H     0.39019  0.39019  0.00000  0.21961
       2     O     4.20819  4.20819  0.00000 -0.41639
       3     C     2.97623  2.97623  0.00000  0.04753
       4     C     3.07503  3.07503  0.00000 -0.15005
       5     H     0.45686  0.45686  0.00000  0.08628
       6     H     0.47183  0.47183  0.00000  0.05634
       7     C     3.15616  3.15616  0.00000 -0.31232
       8     H     0.45282  0.45282  0.00000  0.09436
       9     H     0.45655  0.45655  0.00000  0.08691
      10     H     0.44891  0.44891  0.00000  0.10217
      11     H     0.44832  0.44832  0.00000  0.10336
      12     H     0.45890  0.45890  0.00000  0.08220

   Total alpha = 17.00000, Total beta = 17.00000, Total charge =  0.00000
