  ==> Input File <==

--------------------------------------------------------------------------
set {
	reference rhf
	basis cc-pvtz
}

set_num_threads( 4 )
memory 2 gb

molecule MOL {
0 1

H	 -3.294565	 0.569785	 0.000000
C	 -2.246225	 0.343737	 0.000000
C	 -1.809462	 -0.973484	 0.000000
C	 -1.312577	 1.353775	 0.000000
H	 -2.523539	 -1.775124	 0.000000
C	 -0.467257	 -1.267606	 0.000000
H	 -1.631287	 2.379013	 0.000000
C	 0.046966	 1.074396	 0.000000
H	 -0.119372	 -2.281828	 0.000000
C	 0.471772	 -0.241514	 0.000000
H	 0.748162	 1.882966	 0.000000
O	 1.760432	 -0.625184	 0.000000
C	 2.368589	 -1.025341	 -1.190873
H	 1.878240	 -1.894212	 -1.615525
H	 3.386072	 -1.282473	 -0.941918
H	 2.375157	 -0.225179	 -1.922587

	symmetry c1
}
set optking {
	frozen_dihedral = ("
		13 12 10 8
	")
}

ee = optimize('scf')
oeprop('DIPOLE', 'QUADRUPOLE', 'MULLIKEN_CHARGES')
f=open( 'psi4out.xyz', 'w' )
f.write( "16  " )
f.write( str(ee) + "\n" )
f.write( MOL.save_string_xyz() )
f.close()
--------------------------------------------------------------------------

    Molecular point group: c1
  Charge       = 0
  Multiplicity = 1
  Basis Set: CC-PVTZ
  Basis Set:
  @DF-RHF Final Energy:  -344.69837033946646
    Total Energy =                       -344.6983703394663507
    Molecular point group: c1
  Basis Set: CC-PVTZ
  Basis Set:
  Basis Set: CC-PVTZ
  Basis Set:
  @DF-RHF Final Energy:  -344.70082458412452
    Total Energy =                       -344.7008245841245753
  Basis Set: CC-PVTZ
  Basis Set:
  Basis Set: CC-PVTZ
  Basis Set:
  @DF-RHF Final Energy:  -344.70104618099492
    Total Energy =                       -344.7010461809951494
  Basis Set: CC-PVTZ
  Basis Set:
  Basis Set: CC-PVTZ
  Basis Set:
  @DF-RHF Final Energy:  -344.70108009542793
    Total Energy =                       -344.7010800954279830
  Basis Set: CC-PVTZ
  Basis Set:
  Basis Set: CC-PVTZ
  Basis Set:
  @DF-RHF Final Energy:  -344.70108534555175
    Total Energy =                       -344.7010853455517463
  Basis Set: CC-PVTZ
  Basis Set:
  Charge       = 0
  Multiplicity = 1
  Basis Set: CC-PVTZ
  Basis Set:

    Orbital Energies (a.u.)
    -----------------------

    Doubly Occupied:

       1A    -20.566587     2A    -11.285394     3A    -11.273992
       4A    -11.232173     5A    -11.231784     6A    -11.224720
       7A    -11.224269     8A    -11.223760     9A     -1.405010
      10A     -1.153093    11A     -1.021301    12A     -1.019072
      13A     -0.935183    14A     -0.839218    15A     -0.810311
      16A     -0.718351    17A     -0.669656    18A     -0.668096
      19A     -0.638707    20A     -0.614681    21A     -0.601814
      22A     -0.588865    23A     -0.533034    24A     -0.509424
      25A     -0.508037    26A     -0.488826    27A     -0.440457
      28A     -0.340426    29A     -0.326368

  @DF-RHF Final Energy:  -344.70108615865365

   => Energetics <=

    Nuclear Repulsion Energy =            348.7669448117314914
    One-Electron Energy =               -1158.7508462011360280
    Two-Electron Energy =                 465.2828152307508844
    DFT Exchange-Correlation Energy =       0.0000000000000000
    Empirical Dispersion Energy =           0.0000000000000000
    PCM Polarization Energy =               0.0000000000000000
    EFP Energy =                            0.0000000000000000
    Total Energy =                       -344.7010861586536521
    Molecular point group: c1
  Basis Set: CC-PVTZ
  Basis Set:

  -Total Gradient:
     Atom            X                  Y                   Z
    ------   -----------------  -----------------  -----------------
       1       -0.000003156703    -0.000023230531    -0.000004782670
       2        0.000014563006     0.000059262767    -0.000027645074
       3        0.000013843252    -0.000041855730     0.000029011133
       4       -0.000025113707    -0.000050995988     0.000032119376
       5       -0.000030887165     0.000006873772    -0.000002755371
       6       -0.000009749059    -0.000086710217    -0.000014091805
       7        0.000012618517    -0.000000122942    -0.000003101032
       8        0.000051456429    -0.000040746341     0.000087130820
       9       -0.000009295787     0.000029896835    -0.000004241055
      10       -0.000136870755     0.000155617106    -0.000130891548
      11        0.000004284403    -0.000005958475    -0.000006406039
      12        0.000129673524     0.000099571237     0.000075874837
      13       -0.000011701039    -0.000100286759    -0.000083869213
      14        0.000000125456     0.000002706933     0.000014562528
      15       -0.000003573912     0.000006331672     0.000013995461
      16        0.000003783540    -0.000010353339     0.000025089651

  **** Optimization is complete! (in 6 steps) ****
    Final optimized geometry and variables:
    Molecular point group: c1

    Geometry (in Angstrom), charge = 0, multiplicity = 1:

    H           -3.220233007979     0.805058455990     0.155269995721
    C           -2.177257466852     0.553729604895     0.157409529521
    C           -1.780589265456    -0.770632139667     0.178766927622
    C           -1.220552066334     1.550662781661     0.147733459073
    H           -2.517278791005    -1.551180128869     0.196244037370
    C           -0.438742324180    -1.099004440628     0.186565004927
    H           -1.519277173315     2.581628804298     0.138935688868
    C            0.124111675877     1.230151154355     0.152373396974
    H           -0.123637187313    -2.124094031674     0.219643789971
    C            0.513011012136    -0.095539349848     0.168591165899
    H            0.875772476765     1.995538183017     0.154638181578
    O            1.836220170944    -0.403345397068     0.210953468790
    C            2.425554644074    -0.759935284742    -1.011611799032
    H            1.956221094498    -1.641568992792    -1.433794396862
    H            3.464668040290    -0.972294684782    -0.810820665714
    H            2.357180658029     0.051890246515    -1.727912966731

  Mulliken Charges: (a.u.)
   Center  Symbol    Alpha    Beta     Spin     Total
       1     H     0.42354  0.42354  0.00000  0.15292
       2     C     3.08826  3.08826  0.00000 -0.17652
       3     C     3.06756  3.06756  0.00000 -0.13511
       4     C     3.06551  3.06551  0.00000 -0.13102
       5     H     0.42216  0.42216  0.00000  0.15569
       6     C     3.11712  3.11712  0.00000 -0.23425
       7     H     0.42206  0.42206  0.00000  0.15588
       8     C     3.11440  3.11440  0.00000 -0.22880
       9     H     0.41898  0.41898  0.00000  0.16204
      10     C     2.84980  2.84980  0.00000  0.30041
      11     H     0.41771  0.41771  0.00000  0.16458
      12     O     4.18413  4.18413  0.00000 -0.36825
      13     C     3.03225  3.03225  0.00000 -0.06451
      14     H     0.46561  0.46561  0.00000  0.06879
      15     H     0.44531  0.44531  0.00000  0.10938
      16     H     0.46561  0.46561  0.00000  0.06878

   Total alpha = 29.00000, Total beta = 29.00000, Total charge = -0.00000
