                              Psi4 1.0.54 Driver

  ==> Input File <==

--------------------------------------------------------------------------
set {
	reference rhf
	basis cc-pvtz
}

set_num_threads( 4 )
memory 2 gb

molecule MOL {
0 1

O	 2.868453	 1.353349	 -0.000734
C	 2.841259	 0.166180	 -0.000295
C	 1.542794	 -0.614730	 -0.000853
C	 4.113372	 -0.651103	 0.000743
C	 0.288398	 0.247429	 0.000314
H	 1.557171	 -1.273139	 -0.866508
H	 1.557484	 -1.274998	 0.863344
C	 -0.923762	 -0.481276	 0.573699
H	 0.078537	 0.571048	 -1.012772
H	 0.478341	 1.150585	 0.568966
C	 -2.188528	 0.372334	 0.580319
H	 -1.106806	 -1.387178	 0.000016
H	 -0.705339	 -0.804628	 1.589079
C	 -3.405419	 -0.349560	 1.151967
H	 -2.407818	 0.695838	 -0.434260
H	 -2.006803	 1.277748	 1.154192
C	 -4.665324	 0.509752	 1.155180
H	 -3.588533	 -1.254111	 0.578210
H	 -3.187583	 -0.672169	 2.166556
H	 -4.929709	 0.820152	 0.149798
H	 -5.509489	 -0.031739	 1.566512
H	 -4.525892	 1.406244	 1.750078
H	 4.145311	 -1.294584	 -0.871587
H	 4.970080	 0.004978	 -0.000091
H	 4.145223	 -1.291980	 0.874988

	symmetry c1
}
set optking {
	frozen_dihedral = ("
		9 5 3 6
	")
}

ee,wfn = optimize('scf', return_wfn=True)
oeprop( wfn, 'DIPOLE', 'QUADRUPOLE', 'MULLIKEN_CHARGES')
f=open( 'psi4out.xyz', 'w' )
f.write( "25  " )
f.write( str(ee) + "\n" )
f.write( MOL.save_string_xyz() )
f.close()
--------------------------------------------------------------------------

    Molecular point group: c1
  Charge       = 0
  Multiplicity = 1
  Basis Set: CC-PVTZ
  Basis Set:
  @DF-RHF Final Energy:  -387.27294303177382
    Total Energy =                       -387.2729430317740480
    Molecular point group: c1
  Basis Set: CC-PVTZ
  Basis Set:
  Basis Set: CC-PVTZ
  Basis Set:
  @DF-RHF Final Energy:  -387.27312556675292
    Total Energy =                       -387.2731255667526966
  Basis Set: CC-PVTZ
  Basis Set:
  Basis Set: CC-PVTZ
  Basis Set:
  @DF-RHF Final Energy:  -387.27307224728355
    Total Energy =                       -387.2730722472826983
  Basis Set: CC-PVTZ
  Basis Set:
  Basis Set: CC-PVTZ
  Basis Set:
  @DF-RHF Final Energy:  -387.27315981490716
    Total Energy =                       -387.2731598149068759
  Basis Set: CC-PVTZ
  Basis Set:
  Basis Set: CC-PVTZ
  Basis Set:
  @DF-RHF Final Energy:  -387.27317023342533
    Total Energy =                       -387.2731702334256170
  Basis Set: CC-PVTZ
  Basis Set:
  Charge       = 0
  Multiplicity = 1
  Basis Set: CC-PVTZ
  Basis Set:

    Orbital Energies (a.u.)
    -----------------------

    Doubly Occupied:

       1A    -20.538979     2A    -11.320667     3A    -11.230447
       4A    -11.226634     5A    -11.214958     6A    -11.214313
       7A    -11.213422     8A    -11.211311     9A    -11.206371
      10A     -1.399078    11A     -1.094659    12A     -1.057331
      13A     -1.015519    14A     -0.969760    15A     -0.891649
      16A     -0.814674    17A     -0.791163    18A     -0.730311
      19A     -0.664905    20A     -0.651514    21A     -0.633885
      22A     -0.626506    23A     -0.596930    24A     -0.584937
      25A     -0.569004    26A     -0.559915    27A     -0.540150
      28A     -0.526949    29A     -0.514222    30A     -0.494441
      31A     -0.487433    32A     -0.473766    33A     -0.463849
      34A     -0.462589    35A     -0.451528    36A     -0.401253

  @DF-RHF Final Energy:  -387.27317108637141

   => Energetics <=

    Nuclear Repulsion Energy =            439.1855268142369937
    One-Electron Energy =               -1395.2273503156961851
    Two-Electron Energy =                 568.7686524150881269
    DFT Exchange-Correlation Energy =       0.0000000000000000
    Empirical Dispersion Energy =           0.0000000000000000
    PCM Polarization Energy =               0.0000000000000000
    EFP Energy =                            0.0000000000000000
    Total Energy =                       -387.2731710863711214
    Molecular point group: c1
  Basis Set: CC-PVTZ
  Basis Set:

  -Total Gradient:
     Atom            X                  Y                   Z
    ------   -----------------  -----------------  -----------------
       1        0.000024789677     0.000021305893     0.000023600878
       2        0.000026860006    -0.000056379238    -0.000034238202
       3       -0.002411824263    -0.003473805248     0.001993338318
       4        0.000036943389     0.000019655285     0.000029420714
       5        0.002654775339     0.003791577167     0.000237112596
       6        0.001593754076     0.002282230770    -0.001704989423
       7        0.000010890845    -0.000020562666     0.000023051722
       8       -0.000020230968     0.000029349549    -0.000099440254
       9       -0.001902865840    -0.002653340676    -0.000436467717
      10       -0.000004733095     0.000064086898    -0.000012776967
      11       -0.000033836393    -0.000021408528     0.000003029016
      12       -0.000018907361    -0.000041131726    -0.000017427729
      13        0.000040622943     0.000016411508    -0.000008594538
      14        0.000003024895     0.000022494366     0.000011558387
      15       -0.000002299310    -0.000002131981    -0.000015277319
      16       -0.000005032990     0.000016262024     0.000008823651
      17       -0.000020921721    -0.000002918267     0.000012064110
      18        0.000006094552    -0.000007555524    -0.000015062875
      19        0.000006026660    -0.000011334622     0.000023456325
      20       -0.000005836946     0.000003643429    -0.000015788300
      21       -0.000008786697     0.000003177445     0.000000601140
      22       -0.000003695709     0.000016472635     0.000013287240
      23       -0.000009977258    -0.000006396352    -0.000021108645
      24        0.000047357679     0.000008131461     0.000005730349
      25       -0.000002191513     0.000002166396    -0.000003902478

  **** Optimization is complete! (in 6 steps) ****
    Final optimized geometry and variables:
    Molecular point group: c1

    Geometry (in Angstrom), charge = 0, multiplicity = 1:

    O            2.854907919573     1.275485104328    -0.420326794011
    C            2.806162551681     0.089443900861    -0.396029662172
    C            1.495840535596    -0.674715403442    -0.346063006244
    C            4.064284570349    -0.749702333878    -0.418388661647
    C            0.248420770182     0.204056656663    -0.323305636180
    H            1.492619296161    -1.325356707271    -1.217057906426
    H            1.533017012265    -1.329311421777     0.520668160692
    C           -0.975336155283    -0.534828865832     0.215990379386
    H            0.031511794563     0.538590081049    -1.332174422027
    H            0.438531905135     1.089182110708     0.268782499151
    C           -2.244341739921     0.311987148915     0.195575571816
    H           -1.139878014023    -1.440538576934    -0.364112338702
    H           -0.778085933513    -0.859236564558     1.235240728235
    C           -3.467765823488    -0.413125680929     0.749010148913
    H           -2.447602659806     0.629593250863    -0.824352076316
    H           -2.077109169386     1.221115703706     0.768057527732
    C           -4.731909092575     0.439705822290     0.725143312769
    H           -3.635930349526    -1.321639825286     0.176829706835
    H           -3.266576124646    -0.729270133468     1.769062763992
    H           -4.980006027485     0.743396190155    -0.286489026379
    H           -5.580545293026    -0.103916821544     1.124342542710
    H           -4.607596983362     1.340071179741     1.317578488906
    H            4.060698154688    -1.405878141517    -1.281819160715
    H            4.931657765510    -0.108617195146    -0.453289442519
    H            4.110254379731    -1.378567258494     0.463882414834

  Mulliken Charges: (a.u.)
   Center  Symbol    Alpha    Beta     Spin     Total
       1     O     4.17022  4.17022  0.00000 -0.34044
       2     C     2.86176  2.86176  0.00000  0.27648
       3     C     3.11446  3.11446  0.00000 -0.22892
       4     C     3.15148  3.15148  0.00000 -0.30297
       5     C     3.08623  3.08623  0.00000 -0.17246
       6     H     0.44379  0.44379  0.00000  0.11241
       7     H     0.44544  0.44544  0.00000  0.10911
       8     C     3.09106  3.09106  0.00000 -0.18212
       9     H     0.45127  0.45127  0.00000  0.09746
      10     H     0.43941  0.43941  0.00000  0.12118
      11     C     3.08670  3.08670  0.00000 -0.17341
      12     H     0.45591  0.45591  0.00000  0.08818
      13     H     0.45574  0.45574  0.00000  0.08853
      14     C     3.08394  3.08394  0.00000 -0.16787
      15     H     0.45440  0.45440  0.00000  0.09119
      16     H     0.45308  0.45308  0.00000  0.09383
      17     C     3.15043  3.15043  0.00000 -0.30086
      18     H     0.45536  0.45536  0.00000  0.08927
      19     H     0.45503  0.45503  0.00000  0.08993
      20     H     0.45503  0.45503  0.00000  0.08993
      21     H     0.44867  0.44867  0.00000  0.10265
      22     H     0.45460  0.45460  0.00000  0.09080
      23     H     0.45022  0.45022  0.00000  0.09956
      24     H     0.43531  0.43531  0.00000  0.12938
      25     H     0.45043  0.45043  0.00000  0.09913

   Total alpha = 36.00000, Total beta = 36.00000, Total charge =  0.00000

*** Psi4 exiting successfully. Buy a developer a beer!
