                              Psi4 1.0.54 Driver

  ==> Input File <==

--------------------------------------------------------------------------
set {
	reference rhf
	basis cc-pvtz
}

set_num_threads( 4 )
memory 2 gb

molecule MOL {
0 1

H	 1.854676	 -1.496068	 -0.200966
O	 1.675515	 -0.612943	 -0.465627
C	 1.135873	 0.113391	 0.608264
C	 0.027642	 1.012027	 0.090274
H	 1.902972	 0.727968	 1.072615
H	 0.756163	 -0.561896	 1.370018
C	 -1.138737	 0.285728	 -0.581921
H	 0.464661	 1.708096	 -0.618252
H	 -0.340737	 1.603071	 0.925246
C	 -1.933983	 -0.631436	 0.343653
H	 -0.763151	 -0.285569	 -1.422081
H	 -1.808359	 1.035291	 -0.992333
H	 -2.789188	 -1.049673	 -0.174718
H	 -1.335629	 -1.461368	 0.700418
H	 -2.305435	 -0.092167	 1.209725

	symmetry c1
}
set optking {
	frozen_dihedral = ("
		1 2 3 4
	")
}

ee,wfn = optimize('scf', return_wfn=True)
oeprop( wfn, 'DIPOLE', 'QUADRUPOLE', 'MULLIKEN_CHARGES')
f=open( 'psi4out.xyz', 'w' )
f.write( "15  " )
f.write( str(ee) + "\n" )
f.write( MOL.save_string_xyz() )
f.close()
--------------------------------------------------------------------------

    Molecular point group: c1
  Charge       = 0
  Multiplicity = 1
  Basis Set: CC-PVTZ
  Basis Set:
  @DF-RHF Final Energy:  -232.23625651065225
    Total Energy =                       -232.2362565106524244
    Molecular point group: c1
  Basis Set: CC-PVTZ
  Basis Set:
  Basis Set: CC-PVTZ
  Basis Set:
  @DF-RHF Final Energy:  -232.23635915929322
    Total Energy =                       -232.2363591592932721
  Basis Set: CC-PVTZ
  Basis Set:
  Basis Set: CC-PVTZ
  Basis Set:
  @DF-RHF Final Energy:  -232.23640938776964
    Total Energy =                       -232.2364093877696973
  Basis Set: CC-PVTZ
  Basis Set:
  Basis Set: CC-PVTZ
  Basis Set:
  @DF-RHF Final Energy:  -232.23640666688354
    Total Energy =                       -232.2364066668836813
  Basis Set: CC-PVTZ
  Basis Set:
  Charge       = 0
  Multiplicity = 1
  Basis Set: CC-PVTZ
  Basis Set:

    Orbital Energies (a.u.)
    -----------------------

    Doubly Occupied:

       1A    -20.545749     2A    -11.265710     3A    -11.210871
       4A    -11.209475     5A    -11.206585     6A     -1.363190
       7A     -1.066684     8A     -0.973348     9A     -0.871902
      10A     -0.777419    11A     -0.707899    12A     -0.648490
      13A     -0.609353    14A     -0.581187    15A     -0.564017
      16A     -0.536741    17A     -0.509044    18A     -0.481206
      19A     -0.469998    20A     -0.455263    21A     -0.430839

  @DF-RHF Final Energy:  -232.23641256072699

   => Energetics <=

    Nuclear Repulsion Energy =            191.5559278789583004
    One-Electron Energy =                -694.6147440307750003
    Two-Electron Energy =                 270.8224035910898806
    DFT Exchange-Correlation Energy =       0.0000000000000000
    Empirical Dispersion Energy =           0.0000000000000000
    PCM Polarization Energy =               0.0000000000000000
    EFP Energy =                            0.0000000000000000
    Total Energy =                       -232.2364125607268193
    Molecular point group: c1
  Basis Set: CC-PVTZ
  Basis Set:

  -Total Gradient:
     Atom            X                  Y                   Z
    ------   -----------------  -----------------  -----------------
       1       -0.001225796672    -0.000383697153    -0.000443235927
       2        0.001308457125     0.000201195325     0.000536616802
       3        0.000474621301     0.000804020463    -0.000218025069
       4       -0.000509596779    -0.000639185206     0.000116294582
       5       -0.000040112009     0.000021254732     0.000009927826
       6       -0.000013340356     0.000005191582    -0.000008021759
       7        0.000005541428     0.000001202542     0.000007931922
       8       -0.000003160821    -0.000005682886     0.000005168340
       9       -0.000000230376     0.000003897308     0.000000119875
      10       -0.000011085992    -0.000001819695     0.000007554206
      11       -0.000003489492    -0.000002665977     0.000000280920
      12        0.000009520317    -0.000009458986     0.000006205672
      13        0.000001178257     0.000001630039     0.000006822073
      14       -0.000003114082     0.000016518740    -0.000010174243
      15        0.000010608150    -0.000012400827    -0.000017465218

  **** Optimization is complete! (in 5 steps) ****
    Final optimized geometry and variables:
    Molecular point group: c1

    Geometry (in Angstrom), charge = 0, multiplicity = 1:

    H            1.927644822517    -1.464963865550    -0.239566051792
    O            1.734005999170    -0.578515541367    -0.476169628873
    C            1.139326554936     0.103489995336     0.601043713404
    C            0.022935449856     1.000532668873     0.094341125241
    H            1.888055815592     0.709638473539     1.101983073654
    H            0.756951256190    -0.601417726075     1.332155035200
    C           -1.142858810784     0.273645518878    -0.576689480017
    H            0.455310273843     1.701199919515    -0.612815286823
    H           -0.343205704069     1.588980943506     0.932505438168
    C           -1.960507147466    -0.615212056297     0.357422383033
    H           -0.762806248858    -0.316982665209    -1.401808711826
    H           -1.800833170039     1.019759816251    -1.010959899276
    H           -2.807960510643    -1.043606078070    -0.165246848682
    H           -1.375713597478    -1.438834774995     0.750723759167
    H           -2.344984249959    -0.050747063548     1.201134666972

  Mulliken Charges: (a.u.)
   Center  Symbol    Alpha    Beta     Spin     Total
       1     H     0.39224  0.39224  0.00000  0.21551
       2     O     4.20512  4.20512  0.00000 -0.41023
       3     C     2.97841  2.97841  0.00000  0.04319
       4     C     3.09029  3.09029  0.00000 -0.18057
       5     H     0.45872  0.45872  0.00000  0.08257
       6     H     0.47111  0.47111  0.00000  0.05778
       7     C     3.09180  3.09180  0.00000 -0.18361
       8     H     0.44784  0.44784  0.00000  0.10432
       9     H     0.45478  0.45478  0.00000  0.09043
      10     C     3.15371  3.15371  0.00000 -0.30742
      11     H     0.44716  0.44716  0.00000  0.10567
      12     H     0.44957  0.44957  0.00000  0.10085
      13     H     0.44606  0.44606  0.00000  0.10787
      14     H     0.45753  0.45753  0.00000  0.08494
      15     H     0.45565  0.45565  0.00000  0.08870

   Total alpha = 21.00000, Total beta = 21.00000, Total charge = -0.00000

*** Psi4 exiting successfully. Buy a developer a beer!
