  ==> Input File <==

--------------------------------------------------------------------------
set {
	reference rhf
	basis 6-31G*
}

set_num_threads( 1 )
memory 2 gb

molecule MOL {
0 1

H	 2.591676	 2.013956	 0.335017
O	 3.341076	 1.666752	 -0.126416
C	 3.569581	 0.339145	 0.272707
C	 2.539767	 -0.640285	 -0.279495
H	 4.553106	 0.084646	 -0.100901
H	 3.608576	 0.269204	 1.359154
C	 3.098532	 -2.036815	 -0.562967
H	 1.718358	 -0.712663	 0.428611
H	 2.131279	 -0.221013	 -1.197490
C	 2.054320	 -2.980171	 -1.166721
H	 3.481247	 -2.462491	 0.360447
H	 3.944549	 -1.956584	 -1.245725
C	 2.584117	 -4.367009	 -1.549259
H	 1.226235	 -3.091184	 -0.469011
H	 1.639251	 -2.512618	 -2.057120
C	 3.028084	 -5.235408	 -0.368897
H	 1.802101	 -4.893710	 -2.092264
H	 3.412876	 -4.255310	 -2.246768
C	 3.448541	 -6.644910	 -0.790747
H	 2.214458	 -5.304867	 0.351727
H	 3.857214	 -4.762992	 0.152321
C	 3.898267	 -7.511782	 0.384814
H	 2.619058	 -7.130570	 -1.300238
H	 4.254911	 -6.577267	 -1.518123
H	 3.102061	 -7.625703	 1.115089
H	 4.187749	 -8.504443	 0.053970
H	 4.751192	 -7.071292	 0.893589

	symmetry c1
}
set optking {
	frozen_dihedral = ("
		14 10 7 4,
		14 10 13 16,
		10 7 4 8,
		10 13 16 20,
		20 16 19 22,
		4 3 2 1
	")
}

ee = energy('scf')
oeprop('DIPOLE', 'QUADRUPOLE', 'MULLIKEN_CHARGES')
f=open( 'psi4out.xyz', 'w' )
f.write( "27  " )
f.write( str(ee) + "\n" )
f.write( MOL.save_string_xyz() )
f.close()
--------------------------------------------------------------------------

    Molecular point group: c1

    Geometry (in Angstrom), charge = 0, multiplicity = 1:

       Center              X                  Y                   Z               Mass
    ------------   -----------------  -----------------  -----------------  -----------------
           H         -0.479130529735     4.991527620359     0.780572254460     1.007825032070
           O          0.270269470265     4.644323620359     0.319139254460    15.994914619560
           C          0.498774470265     3.316716620359     0.718262254460    12.000000000000
           C         -0.531039529735     2.337286620359     0.166060254460    12.000000000000
           H          1.482299470265     3.062217620359     0.344654254460     1.007825032070
           H          0.537769470265     3.246775620359     1.804709254460     1.007825032070
           C          0.027725470265     0.940756620359    -0.117411745540    12.000000000000
           H         -1.352448529735     2.264908620359     0.874166254460     1.007825032070
           H         -0.939527529735     2.756558620359    -0.751934745540     1.007825032070
           C         -1.016486529735    -0.002599379641    -0.721165745540    12.000000000000
           H          0.410440470265     0.515080620359     0.806002254460     1.007825032070
           H          0.873742470265     1.020987620359    -0.800169745540     1.007825032070
           C         -0.486689529735    -1.389437379641    -1.103703745540    12.000000000000
           H         -1.844571529735    -0.113612379641    -0.023455745540     1.007825032070
           H         -1.431555529735     0.464953620359    -1.611564745540     1.007825032070
           C         -0.042722529735    -2.257836379641     0.076658254460    12.000000000000
           H         -1.268705529735    -1.916138379641    -1.646708745540     1.007825032070
           H          0.342069470265    -1.277738379641    -1.801212745540     1.007825032070
           C          0.377734470265    -3.667338379641    -0.345191745540    12.000000000000
           H         -0.856348529735    -2.327295379641     0.797282254460     1.007825032070
           H          0.786407470265    -1.785420379641     0.597876254460     1.007825032070
           C          0.827460470265    -4.534210379641     0.830369254460    12.000000000000
           H         -0.451748529735    -4.152998379641    -0.854682745540     1.007825032070
           H          1.184104470265    -3.599695379641    -1.072567745540     1.007825032070
           H          0.031254470265    -4.648131379641     1.560644254460     1.007825032070
           H          1.116942470265    -5.526871379641     0.499525254460     1.007825032070
           H          1.680385470265    -4.093720379641     1.339144254460     1.007825032070

  Charge       = 0
  Multiplicity = 1
  Basis Set: 6-31G*
  Basis Set:

    Orbital Energies (a.u.)
    -----------------------

    Doubly Occupied:

       1A    -20.552001     2A    -11.266031     3A    -11.217681
       4A    -11.215349     5A    -11.214953     6A    -11.214063
       7A    -11.213288     8A    -11.212930     9A    -11.208595
      10A     -1.358511    11A     -1.093996    12A     -1.061080
      13A     -1.010655    14A     -0.944967    15A     -0.882755
      16A     -0.821888    17A     -0.803671    18A     -0.777000
      19A     -0.694415    20A     -0.646850    21A     -0.635906
      22A     -0.610154    23A     -0.606082    24A     -0.582399
      25A     -0.575574    26A     -0.554563    27A     -0.540411
      28A     -0.523415    29A     -0.508438    30A     -0.486040
      31A     -0.483227    32A     -0.474665    33A     -0.465651
      34A     -0.459853    35A     -0.455920    36A     -0.442379
      37A     -0.419386

  @DF-RHF Final Energy:  -388.27864342848449

   => Energetics <=

    Nuclear Repulsion Energy =            453.0926599584034307
    One-Electron Energy =               -1424.2731102448847196
    Two-Electron Energy =                 582.9018068579964620
    DFT Exchange-Correlation Energy =       0.0000000000000000
    Empirical Dispersion Energy =           0.0000000000000000
    PCM Polarization Energy =               0.0000000000000000
    EFP Energy =                            0.0000000000000000
    Total Energy =                       -388.2786434284848838

  Mulliken Charges: (a.u.)
   Center  Symbol    Alpha    Beta     Spin     Total
       1     H     0.28304  0.28304  0.00000  0.43392
       2     O     4.36998  4.36998  0.00000 -0.73996
       3     C     2.99240  2.99240  0.00000  0.01520
       4     C     3.17108  3.17108  0.00000 -0.34216
       5     H     0.41634  0.41634  0.00000  0.16733
       6     H     0.43076  0.43076  0.00000  0.13848
       7     C     3.16070  3.16070  0.00000 -0.32139
       8     H     0.42548  0.42548  0.00000  0.14903
       9     H     0.41214  0.41214  0.00000  0.17572
      10     C     3.15291  3.15291  0.00000 -0.30582
      11     H     0.42136  0.42136  0.00000  0.15727
      12     H     0.42087  0.42087  0.00000  0.15825
      13     C     3.15345  3.15345  0.00000 -0.30690
      14     H     0.42407  0.42407  0.00000  0.15186
      15     H     0.42067  0.42067  0.00000  0.15867
      16     C     3.15272  3.15272  0.00000 -0.30544
      17     H     0.42158  0.42158  0.00000  0.15684
      18     H     0.42338  0.42338  0.00000  0.15324
      19     C     3.15117  3.15117  0.00000 -0.30233
      20     H     0.42491  0.42491  0.00000  0.15018
      21     H     0.42242  0.42242  0.00000  0.15517
      22     C     3.23916  3.23916  0.00000 -0.47833
      23     H     0.42312  0.42312  0.00000  0.15376
      24     H     0.42288  0.42288  0.00000  0.15424
      25     H     0.42204  0.42204  0.00000  0.15591
      26     H     0.41933  0.41933  0.00000  0.16135
      27     H     0.42205  0.42205  0.00000  0.15591

   Total alpha = 37.00000, Total beta = 37.00000, Total charge =  0.00000
