                              Psi4 1.0.54 Driver

  ==> Input File <==

--------------------------------------------------------------------------
set {
	reference rhf
	basis cc-pvtz
}

set_num_threads( 4 )
memory 2 gb

molecule MOL {
0 1

H	 3.535154	 -1.382112	 -3.283796
C	 2.951285	 -1.590123	 -2.395012
C	 1.687946	 -0.737392	 -2.356590
H	 2.709756	 -2.647801	 -2.399557
H	 3.582777	 -1.399820	 -1.533607
C	 0.837058	 -0.997276	 -1.122322
H	 1.085543	 -0.923384	 -3.238794
H	 1.962731	 0.314370	 -2.386040
N	 -0.364475	 -0.191031	 -1.127019
H	 0.541154	 -2.041927	 -1.104587
H	 1.440874	 -0.832875	 -0.224846
C	 -1.215959	 -0.382435	 0.027143
H	 -0.122305	 0.774193	 -1.210775
C	 -2.451944	 0.502410	 -0.038737
H	 -1.521868	 -1.424094	 0.050475
H	 -0.686430	 -0.195796	 0.966208
C	 -3.752217	 -0.292550	 0.005776
H	 -2.407325	 1.093801	 -0.946480
H	 -2.431979	 1.206234	 0.790023
H	 -3.817783	 -0.982946	 -0.828547
H	 -4.612613	 0.364348	 -0.042306
H	 -3.830160	 -0.871666	 0.919868

	symmetry c1
}
set optking {
	frozen_dihedral = ("
		15 12 14 18
	")
}

ee,wfn = optimize('scf', return_wfn=True)
oeprop( wfn, 'DIPOLE', 'QUADRUPOLE', 'MULLIKEN_CHARGES')
f=open( 'psi4out.xyz', 'w' )
f.write( "22  " )
f.write( str(ee) + "\n" )
f.write( MOL.save_string_xyz() )
f.close()
--------------------------------------------------------------------------

    Molecular point group: c1
  Charge       = 0
  Multiplicity = 1
  Basis Set: CC-PVTZ
  Basis Set:
  @DF-RHF Final Energy:  -290.48397788217079
    Total Energy =                       -290.4839778821707910
    Molecular point group: c1
  Basis Set: CC-PVTZ
  Basis Set:
  Basis Set: CC-PVTZ
  Basis Set:
  @DF-RHF Final Energy:  -290.48424940254557
    Total Energy =                       -290.4842494025457427
  Basis Set: CC-PVTZ
  Basis Set:
  Basis Set: CC-PVTZ
  Basis Set:
  @DF-RHF Final Energy:  -290.48432987115729
    Total Energy =                       -290.4843298711573425
  Basis Set: CC-PVTZ
  Basis Set:
  Charge       = 0
  Multiplicity = 1
  Basis Set: CC-PVTZ
  Basis Set:

    Orbital Energies (a.u.)
    -----------------------

    Doubly Occupied:

       1A    -15.528966     2A    -11.236246     3A    -11.236016
       4A    -11.211953     5A    -11.211533     6A    -11.207636
       7A    -11.205857     8A     -1.207090     9A     -1.058417
      10A     -1.025474    11A     -0.927809    12A     -0.869486
      13A     -0.812303    14A     -0.794542    15A     -0.664038
      16A     -0.632137    17A     -0.615654    18A     -0.609280
      19A     -0.573987    20A     -0.563262    21A     -0.538894
      22A     -0.526207    23A     -0.510093    24A     -0.487512
      25A     -0.476672    26A     -0.475140    27A     -0.465790
      28A     -0.451144    29A     -0.360680

  @DF-RHF Final Energy:  -290.48433053624478

   => Energetics <=

    Nuclear Repulsion Energy =            314.3038692569981549
    One-Electron Energy =               -1014.6087789021664776
    Two-Electron Energy =                 409.8205791089234253
    DFT Exchange-Correlation Energy =       0.0000000000000000
    Empirical Dispersion Energy =           0.0000000000000000
    PCM Polarization Energy =               0.0000000000000000
    EFP Energy =                            0.0000000000000000
    Total Energy =                       -290.4843305362448973
    Molecular point group: c1
  Basis Set: CC-PVTZ
  Basis Set:

  -Total Gradient:
     Atom            X                  Y                   Z
    ------   -----------------  -----------------  -----------------
       1        0.000011660535    -0.000007206047    -0.000001638732
       2        0.000016173786     0.000005929411    -0.000024008154
       3        0.000024628578    -0.000032588554     0.000007300405
       4       -0.000001327071     0.000002716706     0.000000017632
       5       -0.000003577659     0.000001019074    -0.000001529159
       6       -0.000015375911     0.000041276654    -0.000030304551
       7        0.000002463404    -0.000001101433     0.000003134188
       8       -0.000000224251    -0.000002056225     0.000004595409
       9       -0.000036303908    -0.000044780283     0.000114969158
      10        0.000008811848     0.000002145265    -0.000003078193
      11        0.000006255686    -0.000011251606     0.000003092672
      12        0.000094269848     0.000150980925    -0.000729305878
      13       -0.000024856241    -0.000018218658     0.000012210826
      14       -0.000377995803    -0.000510808922    -0.000179233587
      15       -0.000002609844     0.000013408276     0.000528622993
      16        0.000011483031    -0.000012183626     0.000019539130
      17        0.000014905152     0.000025274102     0.000013026239
      18        0.000272782075     0.000399421675     0.000255059598
      19       -0.000004877759    -0.000001435230    -0.000003746880
      20        0.000011152793     0.000000585096     0.000009281523
      21       -0.000001575414     0.000002345986    -0.000004934066
      22       -0.000005862872    -0.000003472588     0.000006929430

  **** Optimization is complete! (in 4 steps) ****
    Final optimized geometry and variables:
    Molecular point group: c1

    Geometry (in Angstrom), charge = 0, multiplicity = 1:

    H            3.867028399244    -0.853559239340    -2.288766014787
    C            3.285161415036    -1.058319008346    -1.397888944540
    C            2.018679529608    -0.210142762996    -1.362818476609
    H            3.047557707125    -2.116887329434    -1.395572580461
    H            3.917050046123    -0.860280720796    -0.538524857489
    C            1.169785100298    -0.466631639108    -0.126333827085
    H            1.416290916910    -0.403254941358    -2.243474059984
    H            2.289558246179     0.842448817922    -1.398091005828
    N           -0.035659053760     0.333539264969    -0.134988542378
    H            0.878806315906    -1.512617291399    -0.101952955546
    H            1.773221925547    -0.294180712214     0.769916421328
    C           -0.882411316411     0.143108720791     1.025913960778
    H            0.203637472740     1.299485109449    -0.220190362110
    C           -2.135037049773     1.034745848829     0.972865119078
    H           -1.176517500214    -0.900649155543     1.050253226210
    H           -0.338528041722     0.323021116938     1.956130850370
    C           -3.442267623256     0.249450163208     1.004497286773
    H           -2.099202236973     1.627280694160     0.065797504860
    H           -2.122342162508     1.737619343568     1.799246981547
    H           -3.503233433597    -0.430709831761     0.162039344868
    H           -4.299486074072     0.911767931133     0.962202854673
    H           -3.524006845365    -0.339008111810     1.912571100594

  Mulliken Charges: (a.u.)
   Center  Symbol    Alpha    Beta     Spin     Total
       1     H     0.44770  0.44770  0.00000  0.10459
       2     C     3.15359  3.15359  0.00000 -0.30718
       3     C     3.08029  3.08029  0.00000 -0.16058
       4     H     0.45473  0.45473  0.00000  0.09054
       5     H     0.45614  0.45614  0.00000  0.08772
       6     C     3.02138  3.02138  0.00000 -0.04275
       7     H     0.44914  0.44914  0.00000  0.10172
       8     H     0.45971  0.45971  0.00000  0.08058
       9     N     3.63840  3.63840  0.00000 -0.27680
      10     H     0.45932  0.45932  0.00000  0.08135
      11     H     0.47438  0.47438  0.00000  0.05123
      12     C     3.03046  3.03046  0.00000 -0.06092
      13     H     0.44438  0.44438  0.00000  0.11124
      14     C     3.08546  3.08546  0.00000 -0.17092
      15     H     0.45991  0.45991  0.00000  0.08018
      16     H     0.47056  0.47056  0.00000  0.05888
      17     C     3.14978  3.14978  0.00000 -0.29956
      18     H     0.45436  0.45436  0.00000  0.09128
      19     H     0.45236  0.45236  0.00000  0.09527
      20     H     0.45170  0.45170  0.00000  0.09659
      21     H     0.45038  0.45038  0.00000  0.09925
      22     H     0.45586  0.45586  0.00000  0.08827

   Total alpha = 29.00000, Total beta = 29.00000, Total charge = -0.00000

*** Psi4 exiting successfully. Buy a developer a beer!
