                              Psi4 1.0.54 Driver

  ==> Input File <==

--------------------------------------------------------------------------
set {
	reference rhf
	basis cc-pvtz
}

set_num_threads( 4 )
memory 2 gb

molecule MOL {
0 1

O	 -1.547818	 -0.443429	 -2.205332
C	 -1.993970	 -0.793158	 -1.165590
C	 -3.200307	 -1.682506	 -1.031071
O	 -1.481217	 -0.452708	 0.001092
H	 -3.005068	 -2.608732	 -1.554584
H	 -3.438457	 -1.885344	 0.000811
H	 -4.038480	 -1.200685	 -1.516240
C	 -0.332055	 0.384012	 -0.000250
C	 0.892252	 -0.506059	 -0.000295
H	 -0.360822	 1.020205	 -0.874146
H	 -0.359817	 1.021310	 0.872861
C	 2.188199	 0.299473	 -0.001416
H	 0.857046	 -1.152781	 -0.871031
H	 0.857910	 -1.151798	 0.871202
C	 3.437151	 -0.577593	 -0.000991
H	 2.209565	 0.950707	 -0.871712
H	 2.210062	 0.952234	 0.867721
C	 4.732399	 0.226982	 -0.000914
H	 3.417321	 -1.229122	 -0.869998
H	 3.416993	 -1.228707	 0.868337
H	 4.797903	 0.863451	 -0.876963
H	 5.598517	 -0.424436	 -0.000420
H	 4.797415	 0.864118	 0.874691

	symmetry c1
}
set optking {
	frozen_dihedral = ("
		2 4 8 10
	")
}

ee,wfn = optimize('scf', return_wfn=True)
oeprop( wfn, 'DIPOLE', 'QUADRUPOLE', 'MULLIKEN_CHARGES')
f=open( 'psi4out.xyz', 'w' )
f.write( "23  " )
f.write( str(ee) + "\n" )
f.write( MOL.save_string_xyz() )
f.close()
--------------------------------------------------------------------------

    Molecular point group: c1
  Charge       = 0
  Multiplicity = 1
  Basis Set: CC-PVTZ
  Basis Set:
  @DF-RHF Final Energy:  -423.13252324855517
    Total Energy =                       -423.1325232485550032
    Molecular point group: c1
  Basis Set: CC-PVTZ
  Basis Set:
  Basis Set: CC-PVTZ
  Basis Set:
  @DF-RHF Final Energy:  -423.13369151364060
    Total Energy =                       -423.1336915136407697
  Basis Set: CC-PVTZ
  Basis Set:
  Basis Set: CC-PVTZ
  Basis Set:
  @DF-RHF Final Energy:  -423.13352312150676
    Total Energy =                       -423.1335231215068688
  Basis Set: CC-PVTZ
  Basis Set:
  Basis Set: CC-PVTZ
  Basis Set:
  @DF-RHF Final Energy:  -423.13379064311084
    Total Energy =                       -423.1337906431110696
  Basis Set: CC-PVTZ
  Basis Set:
  Basis Set: CC-PVTZ
  Basis Set:
  @DF-RHF Final Energy:  -423.13380383402671
    Total Energy =                       -423.1338038340267076
  Basis Set: CC-PVTZ
  Basis Set:
  Charge       = 0
  Multiplicity = 1
  Basis Set: CC-PVTZ
  Basis Set:

    Orbital Energies (a.u.)
    -----------------------

    Doubly Occupied:

       1A    -20.595339     2A    -20.529461     3A    -11.367633
       4A    -11.278750     5A    -11.230449     6A    -11.219817
       7A    -11.219071     8A    -11.217578     9A    -11.209398
      10A     -1.469783    11A     -1.364291    12A     -1.092766
      13A     -1.041845    14A     -1.003107    15A     -0.931943
      16A     -0.850539    17A     -0.799190    18A     -0.768619
      19A     -0.701339    20A     -0.682099    21A     -0.658943
      22A     -0.650920    23A     -0.605156    24A     -0.590161
      25A     -0.585285    26A     -0.574097    27A     -0.550259
      28A     -0.540548    29A     -0.523114    30A     -0.512215
      31A     -0.486134    32A     -0.479956    33A     -0.474353
      34A     -0.469230    35A     -0.440967    36A     -0.439336

  @DF-RHF Final Energy:  -423.13380436827248

   => Energetics <=

    Nuclear Repulsion Energy =            456.1979029222670192
    One-Electron Energy =               -1480.3560338163752022
    Two-Electron Energy =                 601.0243265258359315
    DFT Exchange-Correlation Energy =       0.0000000000000000
    Empirical Dispersion Energy =           0.0000000000000000
    PCM Polarization Energy =               0.0000000000000000
    EFP Energy =                            0.0000000000000000
    Total Energy =                       -423.1338043682721946
    Molecular point group: c1
  Basis Set: CC-PVTZ
  Basis Set:

  -Total Gradient:
     Atom            X                  Y                   Z
    ------   -----------------  -----------------  -----------------
       1       -0.000028469157    -0.000039970427    -0.000015982155
       2       -0.000428278820     0.000644605673     0.000074800708
       3        0.000000461367     0.000021110236    -0.000034154731
       4        0.000694381935    -0.001123008877    -0.000159373301
       5        0.000004778658     0.000018095887     0.000012181937
       6        0.000016328536     0.000010879230    -0.000004498024
       7        0.000014864298    -0.000014135541     0.000001872573
       8       -0.000678853683     0.001088567911     0.000613456244
       9       -0.000035001974    -0.000001895408    -0.000013005779
      10        0.000437500586    -0.000589670912    -0.000458139204
      11       -0.000013828973    -0.000018145878    -0.000008281919
      12        0.000002796395     0.000000734225    -0.000006126773
      13        0.000007573168    -0.000002110710     0.000001684235
      14       -0.000004228980     0.000007999283    -0.000004264098
      15        0.000019466278    -0.000002745574     0.000000378368
      16        0.000002405200     0.000002141928     0.000002847303
      17       -0.000004580932    -0.000002755942    -0.000001318422
      18       -0.000002785585    -0.000001187635    -0.000003472511
      19        0.000000379125     0.000000116886    -0.000001620540
      20       -0.000002516142    -0.000000004353     0.000002310287
      21        0.000002100655     0.000001688460    -0.000001189879
      22       -0.000004510577    -0.000001108004    -0.000000591648
      23        0.000000018615     0.000000799544     0.000002487327

  **** Optimization is complete! (in 6 steps) ****
    Final optimized geometry and variables:
    Molecular point group: c1

    Geometry (in Angstrom), charge = 0, multiplicity = 1:

    O           -1.936741601568    -0.059542891768    -1.709224000762
    C           -2.335572889025    -0.412666834590    -0.651267302934
    C           -3.568208779162    -1.256395349160    -0.467910252483
    O           -1.754927850500    -0.114184228010     0.495601926054
    H           -3.439309005939    -2.177880194750    -1.019586079963
    H           -3.758501038253    -1.471650666839     0.571295311985
    H           -4.410550081081    -0.730799933315    -0.897420469012
    C           -0.586985065605     0.698847126407     0.485600492728
    C            0.670540868614    -0.148922160143     0.441430845848
    H           -0.626709092844     1.370110398569    -0.357479358204
    H           -0.635257385632     1.271476491953     1.400585141086
    C            1.936306590221     0.701485782638     0.498973610740
    H            0.664067139307    -0.737472719444    -0.469443503392
    H            0.653309945553    -0.845737690581     1.273730640845
    C            3.216841573459    -0.127817898766     0.459255554055
    H            1.938599971653     1.401555453900    -0.332651671029
    H            1.928870028754     1.303086651844     1.405122077179
    C            4.481369457889     0.722396697568     0.515086649973
    H            3.225550156920    -0.728202506949    -0.445864666750
    H            3.216053211150    -0.828105988707     1.289886878345
    H            4.527954629750     1.409901157733    -0.322804213161
    H            5.370919379719     0.103996237319     0.484755736915
    H            4.518356830794     1.310254958744     1.426270287327

  Mulliken Charges: (a.u.)
   Center  Symbol    Alpha    Beta     Spin     Total
       1     O     4.20466  4.20466  0.00000 -0.40932
       2     C     2.80881  2.80881  0.00000  0.38238
       3     C     3.14066  3.14066  0.00000 -0.28133
       4     O     4.15434  4.15434  0.00000 -0.30868
       5     H     0.44265  0.44265  0.00000  0.11469
       6     H     0.44159  0.44159  0.00000  0.11682
       7     H     0.44220  0.44220  0.00000  0.11560
       8     C     2.98463  2.98463  0.00000  0.03074
       9     C     3.09304  3.09304  0.00000 -0.18608
      10     H     0.44658  0.44658  0.00000  0.10685
      11     H     0.44253  0.44253  0.00000  0.11493
      12     C     3.09802  3.09802  0.00000 -0.19603
      13     H     0.44556  0.44556  0.00000  0.10888
      14     H     0.45143  0.45143  0.00000  0.09714
      15     C     3.08391  3.08391  0.00000 -0.16782
      16     H     0.45067  0.45067  0.00000  0.09866
      17     H     0.45500  0.45500  0.00000  0.09000
      18     C     3.15016  3.15016  0.00000 -0.30032
      19     H     0.45217  0.45217  0.00000  0.09566
      20     H     0.45409  0.45409  0.00000  0.09182
      21     H     0.45417  0.45417  0.00000  0.09166
      22     H     0.44774  0.44774  0.00000  0.10452
      23     H     0.45538  0.45538  0.00000  0.08925

   Total alpha = 36.00000, Total beta = 36.00000, Total charge = -0.00000

*** Psi4 exiting successfully. Buy a developer a beer!
