  ==> Input File <==

--------------------------------------------------------------------------
set {
	reference rhf
	basis cc-pvtz
}

set_num_threads( 4 )
memory 2 gb

molecule MOL {
0 1

H	 -2.503913	 -0.626993	 0.769958
O	 -2.174657	 0.124748	 1.227536
C	 -1.100346	 0.685851	 0.526707
C	 0.149375	 -0.162722	 0.652852
H	 -1.339056	 0.828037	 -0.522545
H	 -0.918183	 1.660567	 0.956157
O	 1.172093	 0.457955	 -0.054438
H	 -0.037865	 -1.162176	 0.256710
H	 0.410182	 -0.271762	 1.703406
C	 2.395478	 -0.199028	 -0.000366
H	 2.505946	 -0.901710	 -0.823354
H	 3.174616	 0.545641	 -0.071768
H	 2.513730	 -0.742241	 0.934223

	symmetry c1
}
set optking {
	frozen_dihedral = ("
		4 7 10 13
	")
}

ee = optimize('scf')
oeprop('DIPOLE', 'QUADRUPOLE', 'MULLIKEN_CHARGES')
f=open( 'psi4out.xyz', 'w' )
f.write( "13  " )
f.write( str(ee) + "\n" )
f.write( MOL.save_string_xyz() )
f.close()
--------------------------------------------------------------------------

    Molecular point group: c1
  Charge       = 0
  Multiplicity = 1
  Basis Set: CC-PVTZ
  Basis Set:
  @DF-RHF Final Energy:  -268.06036700593882
    Total Energy =                       -268.0603670059388719
    Molecular point group: c1
  Basis Set: CC-PVTZ
  Basis Set:
  Basis Set: CC-PVTZ
  Basis Set:
  @DF-RHF Final Energy:  -268.06046163979823
    Total Energy =                       -268.0604616397983477
  Basis Set: CC-PVTZ
  Basis Set:
  Basis Set: CC-PVTZ
  Basis Set:
  @DF-RHF Final Energy:  -268.06049203291047
    Total Energy =                       -268.0604920329108154
  Basis Set: CC-PVTZ
  Basis Set:
  Charge       = 0
  Multiplicity = 1
  Basis Set: CC-PVTZ
  Basis Set:

    Orbital Energies (a.u.)
    -----------------------

    Doubly Occupied:

       1A    -20.554300     2A    -20.552744     3A    -11.269620
       4A    -11.267597     5A    -11.267231     6A     -1.389839
       7A     -1.368861     8A     -1.019620     9A     -0.914150
      10A     -0.842744    11A     -0.711811    12A     -0.674481
      13A     -0.662021    14A     -0.639544    15A     -0.596729
      16A     -0.572597    17A     -0.547084    18A     -0.492641
      19A     -0.482872    20A     -0.441437    21A     -0.421587

  @DF-RHF Final Energy:  -268.06049229320371

   => Energetics <=

    Nuclear Repulsion Energy =            190.3329421163336406
    One-Electron Energy =                -743.4078521159774482
    Two-Electron Energy =                 285.0144177064403266
    DFT Exchange-Correlation Energy =       0.0000000000000000
    Empirical Dispersion Energy =           0.0000000000000000
    PCM Polarization Energy =               0.0000000000000000
    EFP Energy =                            0.0000000000000000
    Total Energy =                       -268.0604922932034242
    Molecular point group: c1
  Basis Set: CC-PVTZ
  Basis Set:

  -Total Gradient:
     Atom            X                  Y                   Z
    ------   -----------------  -----------------  -----------------
       1        0.000003290483     0.000006686754     0.000000420598
       2       -0.000049215100     0.000007826661     0.000028328900
       3       -0.000002552224    -0.000043055090     0.000001156139
       4        0.000517329064     0.001171133610     0.001846318917
       5        0.000013618764     0.000005875548     0.000003518416
       6       -0.000007019782    -0.000003881867    -0.000000881521
       7       -0.001024782933    -0.002357857476    -0.002988891389
       8        0.000001051242     0.000008454599     0.000003995190
       9        0.000001571713     0.000009164056    -0.000015359767
      10        0.001714527177     0.003455076198     0.002302504131
      11       -0.000011016063    -0.000001251059     0.000003500527
      12        0.000017873184     0.000003876589     0.000004187605
      13       -0.001174675523    -0.002262048523    -0.001188797743

  **** Optimization is complete! (in 4 steps) ****
    Final optimized geometry and variables:
    Molecular point group: c1

    Geometry (in Angstrom), charge = 0, multiplicity = 1:

    H           -2.577461901617    -0.787807840762     0.290691676262
    O           -2.247094053855    -0.035742636011     0.746946881774
    C           -1.168905524445     0.519600949551     0.047249881657
    C            0.077377798881    -0.333006646764     0.179332318041
    H           -1.404591930442     0.660262385652    -1.002847737267
    H           -0.983740168172     1.494633704363     0.474751451953
    O            1.105499719969     0.289472811724    -0.519182354207
    H           -0.113781770576    -1.331045513086    -0.219097850155
    H            0.332044874729    -0.443792439361     1.230521025974
    C            2.338201438177    -0.357212499490    -0.476559197750
    H            2.433648573044    -1.062843722019    -1.298176285515
    H            3.118923125605     0.384925271361    -0.563377135731
    H            2.468959390239    -0.909692223691     0.449179808006

  Mulliken Charges: (a.u.)
   Center  Symbol    Alpha    Beta     Spin     Total
       1     H     0.39419  0.39419  0.00000  0.21161
       2     O     4.20209  4.20209  0.00000 -0.40417
       3     C     2.97432  2.97432  0.00000  0.05136
       4     C     2.96524  2.96524  0.00000  0.06951
       5     H     0.46659  0.46659  0.00000  0.06682
       6     H     0.45290  0.45290  0.00000  0.09420
       7     O     4.17803  4.17803  0.00000 -0.35607
       8     H     0.48291  0.48291  0.00000  0.03418
       9     H     0.46833  0.46833  0.00000  0.06334
      10     C     3.02978  3.02978  0.00000 -0.05956
      11     H     0.46462  0.46462  0.00000  0.07076
      12     H     0.44892  0.44892  0.00000  0.10216
      13     H     0.47207  0.47207  0.00000  0.05586

   Total alpha = 21.00000, Total beta = 21.00000, Total charge = -0.00000
