  ==> Input File <==

--------------------------------------------------------------------------
set {
	reference rhf
	basis 6-31G*
}

set_num_threads( 4 )
memory 2 gb

molecule MOL {
0 1

O	 -1.276010	 1.052711	 -0.768302
C	 -1.204840	 0.067374	 -0.106123
C	 -2.388195	 -0.672128	 0.458071
O	 -0.067104	 -0.527208	 0.221609
H	 -2.388023	 -1.694060	 0.097175
H	 -3.300579	 -0.174919	 0.164318
H	 -2.315377	 -0.706351	 1.539059
C	 1.170111	 0.034140	 -0.238951
C	 0.827096	 1.409979	 -0.782087
C	 1.792061	 -0.880228	 -1.282865
H	 1.831302	 0.121645	 0.610564
H	 0.372584	 2.023156	 -0.012230
H	 1.725278	 1.908430	 -1.131583
H	 0.132691	 1.332498	 -1.611817
H	 2.717360	 -0.449671	 -1.652268
H	 2.016971	 -1.850399	 -0.858412
H	 1.116923	 -1.011437	 -2.122497

	symmetry c1
}
set optking {
	frozen_dihedral = ("
		11 8 4 2
	")
}

ee = optimize('scf')
oeprop('DIPOLE', 'QUADRUPOLE', 'MULLIKEN_CHARGES')
f=open( 'psi4out.xyz', 'w' )
f.write( "17  " )
f.write( str(ee) + "\n" )
f.write( MOL.save_string_xyz() )
f.close()
--------------------------------------------------------------------------

    Molecular point group: c1
  Charge       = 0
  Multiplicity = 1
  Basis Set: 6-31G*
  Basis Set:
  @DF-RHF Final Energy:  -344.84596994448913
    Total Energy =                       -344.8459699444892976
    Molecular point group: c1
  Basis Set: 6-31G*
  Basis Set:
  Basis Set: 6-31G*
  Basis Set:
  @DF-RHF Final Energy:  -344.88816420807359
    Total Energy =                       -344.8881642080734764
  Basis Set: 6-31G*
  Basis Set:
  Basis Set: 6-31G*
  Basis Set:
  @DF-RHF Final Energy:  -344.89823345086177
    Total Energy =                       -344.8982334508621079
  Basis Set: 6-31G*
  Basis Set:
  Basis Set: 6-31G*
  Basis Set:
  @DF-RHF Final Energy:  -344.89779650700643
    Total Energy =                       -344.8977965070062623
  Basis Set: 6-31G*
  Basis Set:
  @DF-RHF Final Energy:  -344.90286361725202
    Total Energy =                       -344.9028636172517963
  @DF-RHF Final Energy:  -344.90348599670011
    Total Energy =                       -344.9034859966999420
  @DF-RHF Final Energy:  -344.90354764973557
    Total Energy =                       -344.9035476497358559
  Basis Set: 6-31G*
  Basis Set:
  @DF-RHF Final Energy:  -344.90355743830611
    Total Energy =                       -344.9035574383059384
  Basis Set: 6-31G*
  Basis Set:
  Basis Set: 6-31G*
  Basis Set:
  @DF-RHF Final Energy:  -344.90356014878961
    Total Energy =                       -344.9035601487897793
  Basis Set: 6-31G*
  Basis Set:
  Basis Set: 6-31G*
  Basis Set:
  @DF-RHF Final Energy:  -344.90356147431839
    Total Energy =                       -344.9035614743184510
  Basis Set: 6-31G*
  Basis Set:
  Charge       = 0
  Multiplicity = 1
  Basis Set: 6-31G*
  Basis Set:

    Orbital Energies (a.u.)
    -----------------------

    Doubly Occupied:

       1A    -20.595683     2A    -20.538662     3A    -11.374818
       4A    -11.297223     5A    -11.229283     6A    -11.219789
       7A    -11.212879     8A     -1.458132     9A     -1.360436
      10A     -1.079552    11A     -1.001867    12A     -0.946329
      13A     -0.866146    14A     -0.737359    15A     -0.688066
      16A     -0.673882    17A     -0.657315    18A     -0.615373
      19A     -0.583211    20A     -0.579527    21A     -0.564936
      22A     -0.549616    23A     -0.532525    24A     -0.516097
      25A     -0.506999    26A     -0.481364    27A     -0.438064
      28A     -0.427691

  @DF-RHF Final Energy:  -344.90356172345321

   => Energetics <=

    Nuclear Repulsion Energy =            323.9831873601525558
    One-Electron Energy =               -1112.3078481188149453
    Two-Electron Energy =                 443.4210990352093518
    DFT Exchange-Correlation Energy =       0.0000000000000000
    Empirical Dispersion Energy =           0.0000000000000000
    PCM Polarization Energy =               0.0000000000000000
    EFP Energy =                            0.0000000000000000
    Total Energy =                       -344.9035617234530378
    Molecular point group: c1
  Basis Set: 6-31G*
  Basis Set:

  -Total Gradient:
     Atom            X                  Y                   Z
    ------   -----------------  -----------------  -----------------
       1       -0.000013257630    -0.000023537114     0.000003874104
       2        0.000066680951     0.001610654263     0.002592174967
       3        0.000007310518     0.000024150143     0.000013781704
       4       -0.000317038880    -0.002048830952    -0.003912709633
       5        0.000000250745    -0.000001815601    -0.000010641950
       6       -0.000001024058    -0.000000368628    -0.000004946434
       7        0.000004467275    -0.000006440392    -0.000007815960
       8        0.001290949499    -0.002344519850     0.000714682330
       9        0.000004281052     0.000004991826    -0.000023870259
      10        0.000017477197     0.000003483376     0.000005462066
      11       -0.001068130050     0.002772016611     0.000612689804
      12       -0.000001444215     0.000009530647     0.000000739398
      13       -0.000003756183    -0.000004033885     0.000002960043
      14        0.000012595965     0.000007691317     0.000015173035
      15        0.000004556960    -0.000004684166    -0.000005631130
      16       -0.000000576191    -0.000003063365    -0.000001650937
      17       -0.000003342951     0.000004775768     0.000005728853

  **** Optimization is complete! (in 11 steps) ****
    Final optimized geometry and variables:
    Molecular point group: c1

    Geometry (in Angstrom), charge = 0, multiplicity = 1:

    O           -1.392133754634     0.854752935216    -0.468377970695
    C           -1.133168945408    -0.059718029596     0.244226424004
    C           -2.167650069526    -0.870962561613     0.982407599438
    O            0.078476961840    -0.529666685906     0.494980974248
    H           -2.085210825893    -1.914371349096     0.701322473656
    H           -3.153888853094    -0.500006872322     0.746148350364
    H           -1.991586147183    -0.804312285020     2.049905410786
    C            1.338484469447     0.043859258168     0.096072022262
    C            1.310099738533     1.475216106712    -0.428338400276
    C            1.978000523117    -0.924606111482    -0.885216116612
    H            1.898401224585     0.055626099859     1.022488538683
    H            0.805250359490     2.144228921598     0.255596930151
    H            2.342549199784     1.801406747453    -0.518624183195
    H            0.833683233490     1.555162250426    -1.393636007854
    H            2.991991524825    -0.614308633434    -1.115763348589
    H            2.010776866891    -1.924551025066    -0.468655181592
    H            1.411054758939    -0.955017739391    -1.809957639926

  Mulliken Charges: (a.u.)
   Center  Symbol    Alpha    Beta     Spin     Total
       1     O     4.28295  4.28295  0.00000 -0.56590
       2     C     2.61872  2.61872  0.00000  0.76256
       3     C     3.28007  3.28007  0.00000 -0.56015
       4     O     4.32316  4.32316  0.00000 -0.64632
       5     H     0.40162  0.40162  0.00000  0.19676
       6     H     0.39850  0.39850  0.00000  0.20300
       7     H     0.40250  0.40250  0.00000  0.19499
       8     C     2.91397  2.91397  0.00000  0.17205
       9     C     3.24816  3.24816  0.00000 -0.49633
      10     C     3.24361  3.24361  0.00000 -0.48722
      11     H     0.41222  0.41222  0.00000  0.17557
      12     H     0.40877  0.40877  0.00000  0.18245
      13     H     0.42250  0.42250  0.00000  0.15500
      14     H     0.40106  0.40106  0.00000  0.19787
      15     H     0.41848  0.41848  0.00000  0.16305
      16     H     0.41091  0.41091  0.00000  0.17819
      17     H     0.41278  0.41278  0.00000  0.17443

   Total alpha = 28.00000, Total beta = 28.00000, Total charge =  0.00000
