  ==> Input File <==

--------------------------------------------------------------------------
set {
	reference rhf
	basis 6-31G*
}

set_num_threads( 4 )
memory 2 gb

molecule MOL {
0 1

H	 -4.233122	 0.555804	 0.009411
O	 -3.513806	 -0.008705	 -0.235167
C	 -2.305144	 0.541400	 0.222120
C	 -1.176190	 -0.388251	 -0.186487
H	 -2.147751	 1.530155	 -0.206712
H	 -2.321271	 0.654616	 1.305292
C	 0.198102	 0.111031	 0.262842
H	 -1.199186	 -0.499594	 -1.267136
H	 -1.373788	 -1.370919	 0.232790
C	 1.331804	 -0.827780	 -0.158768
H	 0.368616	 1.104137	 -0.145619
H	 0.209244	 0.218858	 1.346709
C	 2.723619	 -0.410569	 0.329459
H	 1.342964	 -0.912588	 -1.244120
H	 1.116806	 -1.824343	 0.220779
C	 3.243875	 0.895854	 -0.272975
H	 3.424222	 -1.207124	 0.091250
H	 2.714788	 -0.329854	 1.414619
H	 3.251977	 0.848779	 -1.358681
H	 2.637085	 1.747371	 0.016682
H	 4.259473	 1.094070	 0.055697

	symmetry c1
}
set optking {
	frozen_dihedral = ("
		4 7 10 14
	")
}

ee = optimize('scf')
oeprop('DIPOLE', 'QUADRUPOLE', 'MULLIKEN_CHARGES')
f=open( 'psi4out.xyz', 'w' )
f.write( "21  " )
f.write( str(ee) + "\n" )
f.write( MOL.save_string_xyz() )
f.close()
--------------------------------------------------------------------------

    Molecular point group: c1
  Charge       = 0
  Multiplicity = 1
  Basis Set: 6-31G*
  Basis Set:
  @DF-RHF Final Energy:  -310.21283574309285
    Total Energy =                       -310.2128357430929668
    Molecular point group: c1
  Basis Set: 6-31G*
  Basis Set:
  Basis Set: 6-31G*
  Basis Set:
  @DF-RHF Final Energy:  -310.21283268081072
    Total Energy =                       -310.2128326808108909
  Basis Set: 6-31G*
  Basis Set:
  Basis Set: 6-31G*
  Basis Set:
  @DF-RHF Final Energy:  -310.21283599764155
    Total Energy =                       -310.2128359976415481
  Basis Set: 6-31G*
  Basis Set:
  Charge       = 0
  Multiplicity = 1
  Basis Set: 6-31G*
  Basis Set:

    Orbital Energies (a.u.)
    -----------------------

    Doubly Occupied:

       1A    -20.551840     2A    -11.267062     3A    -11.215690
       4A    -11.215179     5A    -11.213597     6A    -11.210671
       7A    -11.208209     8A     -1.358662     9A     -1.086243
      10A     -1.033210    11A     -0.954452    12A     -0.875650
      13A     -0.807173    14A     -0.779105    15A     -0.692445
      16A     -0.661487    17A     -0.621987    18A     -0.607472
      19A     -0.586538    20A     -0.569320    21A     -0.536448
      22A     -0.519921    23A     -0.510740    24A     -0.486784
      25A     -0.479599    26A     -0.460700    27A     -0.455833
      28A     -0.443140    29A     -0.433988

  @DF-RHF Final Energy:  -310.21283615610724

   => Energetics <=

    Nuclear Repulsion Energy =            312.4396687366270839
    One-Electron Energy =               -1039.6187170207401778
    Two-Electron Energy =                 416.9662121280059637
    DFT Exchange-Correlation Energy =       0.0000000000000000
    Empirical Dispersion Energy =           0.0000000000000000
    PCM Polarization Energy =               0.0000000000000000
    EFP Energy =                            0.0000000000000000
    Total Energy =                       -310.2128361561071870
    Molecular point group: c1
  Basis Set: 6-31G*
  Basis Set:

  -Total Gradient:
     Atom            X                  Y                   Z
    ------   -----------------  -----------------  -----------------
       1       -0.000001065945     0.000001363583    -0.000000885362
       2        0.000002294327     0.000000761367    -0.000001899627
       3        0.000001130778    -0.000000267875    -0.000000767127
       4        0.000008612923     0.000050939251    -0.000089485212
       5       -0.000000735336     0.000003329694    -0.000000004417
       6        0.000000520127    -0.000002459716    -0.000001364720
       7       -0.000038635394    -0.000105483756     0.000129690580
       8        0.000001562102    -0.000002614855     0.000004753943
       9       -0.000003329396    -0.000001069244     0.000002895051
      10        0.000115569213     0.000171054306    -0.000054488426
      11       -0.000010728087    -0.000005269355    -0.000000857494
      12        0.000009846231    -0.000000209625    -0.000001514466
      13        0.000005637888     0.000001791586     0.000010046336
      14       -0.000092386016    -0.000117333463     0.000009261909
      15       -0.000007392077     0.000003488300    -0.000006872960
      16        0.000001171233     0.000001041906     0.000000023604
      17       -0.000000691071     0.000000842182     0.000000288541
      18        0.000001913227     0.000000229735     0.000001349674
      19        0.000000020076    -0.000000160387     0.000001428885
      20        0.000006405131    -0.000000165924    -0.000001247540
      21        0.000000280080     0.000000192293    -0.000000351172

  **** Optimization is complete! (in 4 steps) ****
    Final optimized geometry and variables:
    Molecular point group: c1

    Geometry (in Angstrom), charge = 0, multiplicity = 1:

    H           -4.235047122534     0.548414563188     0.019723497349
    O           -3.515309059232    -0.015064881614    -0.226011712163
    C           -2.307062080056     0.534870646759     0.232581014847
    C           -1.177443929305    -0.393069552963    -0.178053549089
    H           -2.150375185186     1.524694595332    -0.194061319469
    H           -2.323316010429     0.645649304926     1.315998734951
    C            0.196599633171     0.106846754555     0.271343890074
    H           -1.200742717898    -0.502522897102    -1.258856380171
    H           -1.374040077183    -1.376665902311     0.239558603644
    C            1.330688709112    -0.831512379309    -0.150082589063
    H            0.366276860067     1.099866655609    -0.137691394842
    H            0.208143683566     0.215235829094     1.355118963139
    C            2.722263890744    -0.415172674449     0.339583421876
    H            1.342137451798    -0.916556686462    -1.235412605228
    H            1.114891876011    -1.828178981212     0.228839234526
    C            3.245485274373     0.889331991996    -0.264479315786
    H            3.422163479499    -1.213089529966     0.103928439817
    H            2.711882167005    -0.332510480586     1.424589689070
    H            3.255384547410     0.840065708069    -1.350060198454
    H            2.639604137718     1.742412964354     0.022414700889
    H            4.260831199384     1.086609813676     0.065541464371

  Mulliken Charges: (a.u.)
   Center  Symbol    Alpha    Beta     Spin     Total
       1     H     0.28118  0.28118  0.00000  0.43765
       2     O     4.37179  4.37179  0.00000 -0.74359
       3     C     2.98972  2.98972  0.00000  0.02056
       4     C     3.15897  3.15897  0.00000 -0.31794
       5     H     0.43294  0.43294  0.00000  0.13412
       6     H     0.43287  0.43287  0.00000  0.13427
       7     C     3.16186  3.16186  0.00000 -0.32373
       8     H     0.41475  0.41475  0.00000  0.17049
       9     H     0.41483  0.41483  0.00000  0.17033
      10     C     3.15180  3.15180  0.00000 -0.30360
      11     H     0.42157  0.42157  0.00000  0.15685
      12     H     0.42406  0.42406  0.00000  0.15188
      13     C     3.15252  3.15252  0.00000 -0.30505
      14     H     0.42299  0.42299  0.00000  0.15402
      15     H     0.42099  0.42099  0.00000  0.15801
      16     C     3.24115  3.24115  0.00000 -0.48229
      17     H     0.42060  0.42060  0.00000  0.15879
      18     H     0.42355  0.42355  0.00000  0.15290
      19     H     0.42195  0.42195  0.00000  0.15610
      20     H     0.42065  0.42065  0.00000  0.15869
      21     H     0.41924  0.41924  0.00000  0.16152

   Total alpha = 29.00000, Total beta = 29.00000, Total charge = -0.00000
