  ==> Input File <==

--------------------------------------------------------------------------
set {
	reference rhf
	basis 6-31G*
}

set_num_threads( 4 )
memory 2 gb

molecule MOL {
0 1

O	 1.454908	 -0.068075	 0.775218
C	 0.576249	 0.131685	 -0.000108
C	 -0.766779	 -0.556801	 -0.000461
O	 0.667016	 1.009576	 -0.990932
C	 -1.945214	 0.412366	 0.000161
H	 -0.796911	 -1.211249	 -0.867467
H	 -0.796854	 -1.212390	 0.865687
C	 -3.287791	 -0.317055	 0.000105
H	 -1.876087	 1.060580	 -0.866812
H	 -1.875822	 1.059691	 0.867761
H	 -3.394745	 -0.949193	 -0.877058
H	 -4.111778	 0.388953	 0.000015
H	 -3.394954	 -0.949187	 0.877259
C	 1.882227	 1.727686	 -1.104011
H	 2.065582	 2.307293	 -0.210714
H	 1.761355	 2.379954	 -1.954776
H	 2.709618	 1.051632	 -1.264900

	symmetry c1
}
set optking {
	frozen_dihedral = ("
		1 2 3 6
	")
}

ee = optimize('scf')
oeprop('DIPOLE', 'QUADRUPOLE', 'MULLIKEN_CHARGES')
f=open( 'psi4out.xyz', 'w' )
f.write( "17  " )
f.write( str(ee) + "\n" )
f.write( MOL.save_string_xyz() )
f.close()
--------------------------------------------------------------------------

    Molecular point group: c1
  Charge       = 0
  Multiplicity = 1
  Basis Set: 6-31G*
  Basis Set:
  @DF-RHF Final Energy:  -344.90510794457344
    Total Energy =                       -344.9051079445735581
    Molecular point group: c1
  Basis Set: 6-31G*
  Basis Set:
  Basis Set: 6-31G*
  Basis Set:
  @DF-RHF Final Energy:  -344.90448804214083
    Total Energy =                       -344.9044880421408834
  Basis Set: 6-31G*
  Basis Set:
  Basis Set: 6-31G*
  Basis Set:
  @DF-RHF Final Energy:  -344.90525329269218
    Total Energy =                       -344.9052532926921799
  Basis Set: 6-31G*
  Basis Set:
  Basis Set: 6-31G*
  Basis Set:
  @DF-RHF Final Energy:  -344.90540350924027
    Total Energy =                       -344.9054035092399317
  Basis Set: 6-31G*
  Basis Set:
  Charge       = 0
  Multiplicity = 1
  Basis Set: 6-31G*
  Basis Set:

    Orbital Energies (a.u.)
    -----------------------

    Doubly Occupied:

       1A    -20.604829     2A    -20.544005     3A    -11.371663
       4A    -11.281317     5A    -11.235203     6A    -11.229982
       7A    -11.218124     8A     -1.469471     9A     -1.361799
      10A     -1.084125    11A     -0.998525    12A     -0.942062
      13A     -0.831496    14A     -0.774519    15A     -0.696854
      16A     -0.680760    17A     -0.672646    18A     -0.637342
      19A     -0.596015    20A     -0.577059    21A     -0.551540
      22A     -0.542817    23A     -0.525164    24A     -0.510593
      25A     -0.489642    26A     -0.482523    27A     -0.455226
      28A     -0.431541

  @DF-RHF Final Energy:  -344.90540415569507

   => Energetics <=

    Nuclear Repulsion Energy =            314.2125176714192207
    One-Electron Energy =               -1092.6421582598634359
    Two-Electron Energy =                 433.5242364327490350
    DFT Exchange-Correlation Energy =       0.0000000000000000
    Empirical Dispersion Energy =           0.0000000000000000
    PCM Polarization Energy =               0.0000000000000000
    EFP Energy =                            0.0000000000000000
    Total Energy =                       -344.9054041556952370
    Molecular point group: c1
  Basis Set: 6-31G*
  Basis Set:

  -Total Gradient:
     Atom            X                  Y                   Z
    ------   -----------------  -----------------  -----------------
       1        0.000219229585    -0.000291700792    -0.000468521053
       2       -0.000203722035     0.000386228804     0.000710333877
       3       -0.000282206119     0.000491678185    -0.000604192392
       4       -0.000000013892     0.000012652668     0.000042742645
       5        0.000073540880    -0.000037023243     0.000008160613
       6        0.000221729999    -0.000455339243     0.000365526572
       7       -0.000018230351    -0.000079838608    -0.000011935948
       8       -0.000011053530    -0.000006575213     0.000046156711
       9        0.000034527432     0.000021421441    -0.000003731276
      10       -0.000006811246    -0.000011505153    -0.000080000356
      11       -0.000012220824     0.000020235573    -0.000004881092
      12       -0.000014018876     0.000002376005     0.000022016865
      13       -0.000004598234    -0.000038395284    -0.000015229828
      14       -0.000045104647    -0.000039853401    -0.000018467526
      15        0.000001816742     0.000004980402     0.000010121011
      16        0.000032107069     0.000016888767     0.000002864031
      17        0.000015028047     0.000003769090    -0.000000962855

  **** Optimization is complete! (in 5 steps) ****
    Final optimized geometry and variables:
    Molecular point group: c1

    Geometry (in Angstrom), charge = 0, multiplicity = 1:

    O            1.627238437355    -0.433447019916     0.962094888676
    C            0.751035042057    -0.208087501595     0.190685009791
    C           -0.591345374101    -0.898128592859     0.185173790183
    O            0.861885598601     0.678423443461    -0.790634028185
    C           -1.786678324886     0.061659197206     0.180486567087
    H           -0.626072225408    -1.533996444805    -0.696026361177
    H           -0.615773173539    -1.543454694500     1.054048712888
    C           -3.117939124883    -0.686726905689     0.223558621403
    H           -1.743201953944     0.687268828388    -0.703325710800
    H           -1.717166551295     0.725906194715     1.038030691500
    H           -3.231034646130    -1.335907437933    -0.640026678506
    H           -3.952297105948     0.007050359524     0.227231392343
    H           -3.195610165815    -1.303345340056     1.114131196147
    C            2.091215620865     1.374117134311    -0.891722573454
    H            2.284460088147     1.936433331146     0.010358940276
    H            1.984885148384     2.041060173792    -1.733062521780
    H            2.904901898368     0.683753747905    -1.061163207846

  Mulliken Charges: (a.u.)
   Center  Symbol    Alpha    Beta     Spin     Total
       1     O     4.28611  4.28611  0.00000 -0.57221
       2     C     2.61252  2.61252  0.00000  0.77497
       3     C     3.19913  3.19913  0.00000 -0.39825
       4     O     4.30254  4.30254  0.00000 -0.60508
       5     C     3.16115  3.16115  0.00000 -0.32230
       6     H     0.40376  0.40376  0.00000  0.19249
       7     H     0.39854  0.39854  0.00000  0.20292
       8     C     3.24173  3.24173  0.00000 -0.48346
       9     H     0.40664  0.40664  0.00000  0.18672
      10     H     0.41563  0.41563  0.00000  0.16873
      11     H     0.41974  0.41974  0.00000  0.16053
      12     H     0.41536  0.41536  0.00000  0.16928
      13     H     0.41870  0.41870  0.00000  0.16260
      14     C     3.09228  3.09228  0.00000 -0.18457
      15     H     0.40867  0.40867  0.00000  0.18266
      16     H     0.40880  0.40880  0.00000  0.18240
      17     H     0.40871  0.40871  0.00000  0.18258

   Total alpha = 28.00000, Total beta = 28.00000, Total charge = -0.00000
