  ==> Input File <==

--------------------------------------------------------------------------
set {
	reference rhf
	basis 6-31G*
}

set_num_threads( 4 )
memory 2 gb

molecule MOL {
0 1

H	 -2.646374	 -0.642757	 1.268656
C	 -2.083525	 -0.384536	 0.393091
O	 -0.807605	 -0.127164	 0.768327
F	 -2.118945	 -1.383102	 -0.486752
F	 -2.621877	 0.670592	 -0.209486
C	 0.084052	 0.273579	 -0.209957
C	 1.353033	 -0.546803	 -0.018071
Cl	 0.433844	 2.004619	 -0.074457
H	 -0.288836	 0.092657	 -1.202930
F	 2.252840	 0.147121	 0.645976
F	 1.853114	 -0.838112	 -1.202341
F	 1.125737	 -1.666902	 0.623558

	symmetry c1
}
set optking {
	frozen_dihedral = ("
		10 7 6 9
	")
}

ee = optimize('scf')
oeprop('DIPOLE', 'QUADRUPOLE', 'MULLIKEN_CHARGES')
f=open( 'psi4out.xyz', 'w' )
f.write( "12  " )
f.write( str(ee) + "\n" )
f.write( MOL.save_string_xyz() )
f.close()
--------------------------------------------------------------------------

    Molecular point group: c1
  Charge       = 0
  Multiplicity = 1
  Basis Set: 6-31G*
  Basis Set:
  @DF-RHF Final Energy: -1146.30587113976253
    Total Energy =                      -1146.3058711397625302
    Molecular point group: c1
  Basis Set: 6-31G*
  Basis Set:
  Basis Set: 6-31G*
  Basis Set:
  @DF-RHF Final Energy: -1146.30652162490514
    Total Energy =                      -1146.3065216249051446
  Basis Set: 6-31G*
  Basis Set:
  Basis Set: 6-31G*
  Basis Set:
  @DF-RHF Final Energy: -1146.30784789298673
    Total Energy =                      -1146.3078478929860466
  Basis Set: 6-31G*
  Basis Set:
  Basis Set: 6-31G*
  Basis Set:
  @DF-RHF Final Energy: -1146.30790970650196
    Total Energy =                      -1146.3079097065026417
  Basis Set: 6-31G*
  Basis Set:
  @DF-RHF Final Energy: -1146.30792421214619
    Total Energy =                      -1146.3079242121466450
  @DF-RHF Final Energy: -1146.30793479442536
    Total Energy =                      -1146.3079347944251367
  Basis Set: 6-31G*
  Basis Set:
  @DF-RHF Final Energy: -1146.30795035141136
    Total Energy =                      -1146.3079503514113640
  Basis Set: 6-31G*
  Basis Set:
  Basis Set: 6-31G*
  Basis Set:
  @DF-RHF Final Energy: -1146.30796469216943
    Total Energy =                      -1146.3079646921692074
  Basis Set: 6-31G*
  Basis Set:
  Basis Set: 6-31G*
  Basis Set:
  @DF-RHF Final Energy: -1146.30797187370490
    Total Energy =                      -1146.3079718737044459
  Basis Set: 6-31G*
  Basis Set:
  Charge       = 0
  Multiplicity = 1
  Basis Set: 6-31G*
  Basis Set:

    Orbital Energies (a.u.)
    -----------------------

    Doubly Occupied:

       1A   -104.843275     2A    -26.360211     3A    -26.357853
       4A    -26.355886     5A    -26.346856     6A    -26.346807
       7A    -20.648949     8A    -11.528687     9A    -11.490105
      10A    -11.401525    11A    -10.577882    12A     -8.047226
      13A     -8.043712    14A     -8.043581    15A     -1.761165
      16A     -1.718291    17A     -1.658482    18A     -1.653513
      19A     -1.638984    20A     -1.486484    21A     -1.177935
      22A     -1.047107    23A     -0.987972    24A     -0.919741
      25A     -0.857285    26A     -0.853022    27A     -0.845164
      28A     -0.825962    29A     -0.813388    30A     -0.790490
      31A     -0.728788    32A     -0.726094    33A     -0.703470
      34A     -0.701884    35A     -0.678615    36A     -0.672777
      37A     -0.657573    38A     -0.656724    39A     -0.646696
      40A     -0.631908    41A     -0.597320    42A     -0.577923
      43A     -0.523295    44A     -0.476440    45A     -0.467557

  @DF-RHF Final Energy: -1146.30797266898298

   => Energetics <=

    Nuclear Repulsion Energy =            736.9329621233551961
    One-Electron Energy =               -3056.7326665014788887
    Two-Electron Energy =                1173.4917317091412770
    DFT Exchange-Correlation Energy =       0.0000000000000000
    Empirical Dispersion Energy =           0.0000000000000000
    PCM Polarization Energy =               0.0000000000000000
    EFP Energy =                            0.0000000000000000
    Total Energy =                      -1146.3079726689825293
    Molecular point group: c1
  Basis Set: 6-31G*
  Basis Set:

  -Total Gradient:
     Atom            X                  Y                   Z
    ------   -----------------  -----------------  -----------------
       1        0.000012739375     0.000010860025    -0.000001368221
       2       -0.000003929273    -0.000003791685    -0.000121973575
       3        0.000109500219     0.000038489662     0.000052353546
       4       -0.000021650732    -0.000007760085     0.000025056603
       5       -0.000026140202    -0.000010913378     0.000027413113
       6       -0.003936091281    -0.005390604864     0.000842283924
       7       -0.002022085826    -0.001841487912     0.005927797689
       8        0.000003394376    -0.000021006815     0.000008862910
       9        0.003793350321     0.005029324248    -0.002075488115
      10        0.002172329036     0.002202991415    -0.004717088069
      11       -0.000064947924    -0.000019511044     0.000072584022
      12       -0.000016468078     0.000013410452    -0.000040433828

  **** Optimization is complete! (in 10 steps) ****
    Final optimized geometry and variables:
    Molecular point group: c1

    Geometry (in Angstrom), charge = 0, multiplicity = 1:

    H           -2.674619315630    -0.599230706316     1.271196627047
    C           -2.081082995531    -0.393144923155     0.402279758706
    O           -0.856781755812     0.017142063957     0.809695489984
    F           -1.979877096228    -1.482721956863    -0.356091680213
    F           -2.665367120524     0.537248252432    -0.346849437839
    C            0.062780032126     0.340949820662    -0.167230922166
    C            1.317198477761    -0.543997068289    -0.017549744263
    CL           0.479667938042     2.062138663064    -0.054335768291
    H           -0.306811925069     0.209212923126    -1.167773644928
    F            2.287092537583     0.017665635133     0.661706867549
    F            1.784812742342    -0.796614956744    -1.229615522520
    F            1.012782627710    -1.688360273125     0.546306138028

  Mulliken Charges: (a.u.)
   Center  Symbol    Alpha    Beta     Spin     Total
       1     H     0.40081  0.40081  0.00000  0.19837
       2     C     2.56580  2.56580  0.00000  0.86840
       3     O     4.29288  4.29288  0.00000 -0.58575
       4     F     4.68695  4.68695  0.00000 -0.37390
       5     F     4.68540  4.68540  0.00000 -0.37080
       6     C     3.06626  3.06626  0.00000 -0.13252
       7     C     2.42724  2.42724  0.00000  1.14551
       8    CL     8.49668  8.49668  0.00000  0.00664
       9     H     0.36196  0.36196  0.00000  0.27609
      10     F     4.66565  4.66565  0.00000 -0.33131
      11     F     4.68061  4.68061  0.00000 -0.36121
      12     F     4.66976  4.66976  0.00000 -0.33952

   Total alpha = 45.00000, Total beta = 45.00000, Total charge = -0.00000
