                              Psi4 1.0.54 Driver

  ==> Input File <==

--------------------------------------------------------------------------
set {
	reference rhf
	basis cc-pvtz
}

set_num_threads( 4 )
memory 2 gb

molecule MOL {
0 1

H	 2.415411	 2.948868	 -0.772056
O	 1.477024	 2.912301	 -0.811029
C	 1.016221	 1.712952	 -0.405213
C	 1.862846	 0.695449	 0.007819
C	 -0.349249	 1.514224	 -0.409579
H	 2.926295	 0.851971	 0.010590
C	 1.343079	 -0.516599	 0.414927
H	 -1.005747	 2.298097	 -0.728010
C	 -0.861704	 0.296439	 0.000000
H	 2.007752	 -1.296504	 0.732386
C	 -0.021700	 -0.723469	 0.413528
C	 -2.330689	 0.069587	 0.000000
H	 -0.428792	 -1.664900	 0.729554
O	 -2.848621	 -0.993976	 0.000000
H	 -2.934306	 0.982410	 0.000000

	symmetry c1
}
set optking {
	frozen_dihedral = ("
		11 9 12 14
	")
}

ee,wfn = optimize('scf', return_wfn=True)
oeprop( wfn, 'DIPOLE', 'QUADRUPOLE', 'MULLIKEN_CHARGES')
f=open( 'psi4out.xyz', 'w' )
f.write( "15  " )
f.write( str(ee) + "\n" )
f.write( MOL.save_string_xyz() )
f.close()
--------------------------------------------------------------------------

    Molecular point group: c1
  Charge       = 0
  Multiplicity = 1
  Basis Set: CC-PVTZ
  Basis Set:
  @DF-RHF Final Energy:  -418.43757328304639
    Total Energy =                       -418.4375732830468451
    Molecular point group: c1
  Basis Set: CC-PVTZ
  Basis Set:
  Basis Set: CC-PVTZ
  Basis Set:
  @DF-RHF Final Energy:  -418.43698290440045
    Total Energy =                       -418.4369829044005655
  Basis Set: CC-PVTZ
  Basis Set:
  Basis Set: CC-PVTZ
  Basis Set:
  @DF-RHF Final Energy:  -418.43766483005936
    Total Energy =                       -418.4376648300594752
  Basis Set: CC-PVTZ
  Basis Set:
  Basis Set: CC-PVTZ
  Basis Set:
  @DF-RHF Final Energy:  -418.43798372676838
    Total Energy =                       -418.4379837267680387
  Basis Set: CC-PVTZ
  Basis Set:
  Basis Set: CC-PVTZ
  Basis Set:
  @DF-RHF Final Energy:  -418.43798973878364
    Total Energy =                       -418.4379897387834717
  Basis Set: CC-PVTZ
  Basis Set:
  Charge       = 0
  Multiplicity = 1
  Basis Set: CC-PVTZ
  Basis Set:

    Orbital Energies (a.u.)
    -----------------------

    Doubly Occupied:

       1A    -20.598491     2A    -20.555722     3A    -11.328327
       4A    -11.313403     5A    -11.251649     6A    -11.248937
       7A    -11.245739     8A    -11.244257     9A    -11.236365
      10A     -1.429884    11A     -1.411239    12A     -1.173965
      13A     -1.054021    14A     -1.028365    15A     -0.904216
      16A     -0.849512    17A     -0.817928    18A     -0.741943
      19A     -0.705065    20A     -0.679085    21A     -0.665807
      22A     -0.633723    23A     -0.614341    24A     -0.610881
      25A     -0.583561    26A     -0.554363    27A     -0.541072
      28A     -0.519273    29A     -0.492444    30A     -0.427032
      31A     -0.360439    32A     -0.329383

  @DF-RHF Final Energy:  -418.43799157515753

   => Energetics <=

    Nuclear Repulsion Energy =            403.2256007379725133
    One-Electron Energy =               -1369.0263243788126601
    Two-Electron Energy =                 547.3627320656828488
    DFT Exchange-Correlation Energy =       0.0000000000000000
    Empirical Dispersion Energy =           0.0000000000000000
    PCM Polarization Energy =               0.0000000000000000
    EFP Energy =                            0.0000000000000000
    Total Energy =                       -418.4379915751572980
    Molecular point group: c1
  Basis Set: CC-PVTZ
  Basis Set:

  -Total Gradient:
     Atom            X                  Y                   Z
    ------   -----------------  -----------------  -----------------
       1       -0.000001274768    -0.000004402625    -0.000001001854
       2       -0.000012001004    -0.000029919145    -0.000007154471
       3       -0.000048134118     0.000073505499     0.000034986523
       4        0.000004639073    -0.000058130225     0.000030698106
       5        0.000014989121     0.000029368656    -0.000062715605
       6       -0.000000349985    -0.000012728354     0.000005986379
       7        0.000025282777     0.000031634858    -0.000067346580
       8        0.000010866076     0.000001239037     0.000011890718
       9        0.000284440413    -0.001661980277    -0.005456260483
      10        0.000003870535    -0.000007384398     0.000009231077
      11       -0.000166815480     0.001114344508     0.002660311752
      12       -0.000128436253     0.000660495390     0.006313969528
      13       -0.000006028334    -0.000019005277     0.000022515484
      14        0.000014213288    -0.000143188028    -0.003511264348
      15        0.000004738661     0.000026150391     0.000016153770

  **** Optimization is complete! (in 6 steps) ****
    Final optimized geometry and variables:
    Molecular point group: c1

    Geometry (in Angstrom), charge = 0, multiplicity = 1:

    H            2.491008094859     2.384009327612    -0.654752685923
    O            1.553289762097     2.333583843003    -0.700053771889
    C            1.110004190824     1.127891898204    -0.292240973801
    C            1.955952099324     0.124913281111     0.135849763563
    C           -0.258325268961     0.912051301210    -0.303918926251
    H            3.017885230636     0.290272349673     0.155950759517
    C            1.436395436873    -1.093186505644     0.546003573073
    H           -0.907250708040     1.704999179314    -0.623475108335
    C           -0.764228951196    -0.311106990171     0.084603241576
    H            2.105374640510    -1.860490420729     0.885065352446
    C            0.080447815207    -1.321828748774     0.523223820189
    C           -2.237931334828    -0.512815668793     0.072208942166
    H           -0.332513458085    -2.260687225031     0.831508676969
    O           -2.768779947954    -1.569687205656     0.087008682826
    H           -2.828358603003     0.407206421676     0.017764178337

  Mulliken Charges: (a.u.)
   Center  Symbol    Alpha    Beta     Spin     Total
       1     H     0.38627  0.38627  0.00000  0.22746
       2     O     4.17212  4.17212  0.00000 -0.34424
       3     C     2.84216  2.84216  0.00000  0.31567
       4     C     3.13017  3.13017  0.00000 -0.26034
       5     C     3.12858  3.12858  0.00000 -0.25716
       6     H     0.43143  0.43143  0.00000  0.13714
       7     C     3.06025  3.06025  0.00000 -0.12050
       8     H     0.41872  0.41872  0.00000  0.16256
       9     C     2.95898  2.95898  0.00000  0.08205
      10     H     0.41868  0.41868  0.00000  0.16263
      11     C     3.10475  3.10475  0.00000 -0.20951
      12     C     2.91221  2.91221  0.00000  0.17558
      13     H     0.41049  0.41049  0.00000  0.17902
      14     O     4.16822  4.16822  0.00000 -0.33644
      15     H     0.45697  0.45697  0.00000  0.08606

   Total alpha = 32.00000, Total beta = 32.00000, Total charge = -0.00000

*** Psi4 exiting successfully. Buy a developer a beer!
