                              Psi4 1.0.54 Driver

  ==> Input File <==

--------------------------------------------------------------------------
set {
	reference rhf
	basis cc-pvtz
}

set_num_threads( 4 )
memory 2 gb

molecule MOL {
0 1

O	 1.180325	 3.994056	 1.331907
C	 0.251689	 4.217005	 2.037625
C	 -1.009406	 3.377637	 2.007045
C	 0.267886	 5.364337	 3.022303
C	 -0.982877	 2.236064	 1.000598
H	 -1.175993	 3.000367	 3.013516
H	 -1.843463	 4.046992	 1.808754
C	 -2.272250	 1.419606	 1.005470
H	 -0.138027	 1.591878	 1.215930
H	 -0.805946	 2.639471	 0.010096
C	 -2.258482	 0.271340	 0.000669
H	 -2.444523	 1.020208	 2.002504
H	 -3.115416	 2.072475	 0.790771
C	 -3.544441	 -0.550271	 -0.000253
H	 -1.416136	 -0.381955	 0.214615
H	 -2.087122	 0.669651	 -0.996382
C	 -4.804551	 0.308747	 0.000556
H	 -3.553737	 -1.201524	 -0.870151
H	 -3.553831	 -1.203282	 0.868313
H	 -4.842050	 0.949078	 -0.874436
H	 -5.698404	 -0.304480	 -0.000254
H	 -4.842277	 0.947103	 0.876982
H	 0.124292	 4.993482	 4.031211
H	 1.208916	 5.888509	 2.958305
H	 -0.546383	 6.048995	 2.811941

	symmetry c1
}
set optking {
	frozen_dihedral = ("
		15 11 14 18
	")
}

ee,wfn = optimize('scf', return_wfn=True)
oeprop( wfn, 'DIPOLE', 'QUADRUPOLE', 'MULLIKEN_CHARGES')
f=open( 'psi4out.xyz', 'w' )
f.write( "25  " )
f.write( str(ee) + "\n" )
f.write( MOL.save_string_xyz() )
f.close()
--------------------------------------------------------------------------

    Molecular point group: c1
  Charge       = 0
  Multiplicity = 1
  Basis Set: CC-PVTZ
  Basis Set:
  @DF-RHF Final Energy:  -387.26992387397485
    Total Energy =                       -387.2699238739751308
    Molecular point group: c1
  Basis Set: CC-PVTZ
  Basis Set:
  Basis Set: CC-PVTZ
  Basis Set:
  @DF-RHF Final Energy:  -387.24258591913338
    Total Energy =                       -387.2425859191331483
  Basis Set: CC-PVTZ
  Basis Set:
  Basis Set: CC-PVTZ
  Basis Set:
  @DF-RHF Final Energy:  -387.27077736689108
    Total Energy =                       -387.2707773668911386
  Basis Set: CC-PVTZ
  Basis Set:
  Basis Set: CC-PVTZ
  Basis Set:
  @DF-RHF Final Energy:  -387.27158533924597
    Total Energy =                       -387.2715853392455756
  Basis Set: CC-PVTZ
  Basis Set:
  @DF-RHF Final Energy:  -387.27124762396102
    Total Energy =                       -387.2712476239611306
  Basis Set: CC-PVTZ
  Basis Set:
  @DF-RHF Final Energy:  -387.27156030557757
    Total Energy =                       -387.2715603055771680
  Basis Set: CC-PVTZ
  Basis Set:
  Basis Set: CC-PVTZ
  Basis Set:
  @DF-RHF Final Energy:  -387.27165984862950
    Total Energy =                       -387.2716598486299517
  Basis Set: CC-PVTZ
  Basis Set:
  Basis Set: CC-PVTZ
  Basis Set:
  @DF-RHF Final Energy:  -387.27166090876875
    Total Energy =                       -387.2716609087685811
  Basis Set: CC-PVTZ
  Basis Set:
  Charge       = 0
  Multiplicity = 1
  Basis Set: CC-PVTZ
  Basis Set:

    Orbital Energies (a.u.)
    -----------------------

    Doubly Occupied:

       1A    -20.538811     2A    -11.320443     3A    -11.230048
       4A    -11.226538     5A    -11.214859     6A    -11.214197
       7A    -11.214080     8A    -11.212018     9A    -11.206957
      10A     -1.398851    11A     -1.095032    12A     -1.056656
      13A     -1.014325    14A     -0.967601    15A     -0.897308
      16A     -0.825635    17A     -0.776063    18A     -0.730424
      19A     -0.660872    20A     -0.654447    21A     -0.629550
      22A     -0.625214    23A     -0.606042    24A     -0.592848
      25A     -0.564981    26A     -0.557596    27A     -0.545308
      28A     -0.522165    29A     -0.512410    30A     -0.495124
      31A     -0.493002    32A     -0.477693    33A     -0.460069
      34A     -0.456730    35A     -0.452058    36A     -0.401334

  @DF-RHF Final Energy:  -387.27166106747228

   => Energetics <=

    Nuclear Repulsion Energy =            443.9757747460741371
    One-Electron Energy =               -1404.8002900409189806
    Two-Electron Energy =                 573.5528542273727908
    DFT Exchange-Correlation Energy =       0.0000000000000000
    Empirical Dispersion Energy =           0.0000000000000000
    PCM Polarization Energy =               0.0000000000000000
    EFP Energy =                            0.0000000000000000
    Total Energy =                       -387.2716610674719959
    Molecular point group: c1
  Basis Set: CC-PVTZ
  Basis Set:

  -Total Gradient:
     Atom            X                  Y                   Z
    ------   -----------------  -----------------  -----------------
       1        0.000005354414    -0.000001890814     0.000012826744
       2       -0.000013655475     0.000000140314    -0.000031150408
       3        0.000000735640    -0.000011265817     0.000012628806
       4        0.000010382345    -0.000000774010     0.000003511502
       5        0.000001759595     0.000005945489    -0.000008488720
       6       -0.000004940004     0.000003730747    -0.000004761274
       7        0.000006234782    -0.000008272682     0.000005154595
       8       -0.000025976528    -0.000007866343    -0.000002634110
       9       -0.000006834561     0.000001794330    -0.000009123171
      10       -0.000005381482    -0.000006204779     0.000008135954
      11        0.001276743227    -0.000250372948    -0.005025000564
      12        0.000001997613     0.000016405745    -0.000025958293
      13        0.000016795833    -0.000018054939     0.000005758085
      14        0.001975676647    -0.002728963521     0.003962143465
      15       -0.001383096968     0.000629319903     0.003653074317
      16       -0.000007936718    -0.000003261637     0.000009970869
      17        0.000013464740    -0.000007693589     0.000003461652
      18       -0.001872293800     0.002352828704    -0.002578103692
      19        0.000001183357     0.000007830924    -0.000006081188
      20       -0.000004972714    -0.000000747271    -0.000003221511
      21        0.000009011846     0.000012546155     0.000001536893
      22        0.000006503258     0.000005544531     0.000005394861
      23       -0.000000281928     0.000001816568     0.000003233389
      24        0.000001835365     0.000008052832     0.000007277647
      25       -0.000002308483    -0.000000587895     0.000000414152

  **** Optimization is complete! (in 9 steps) ****
    Final optimized geometry and variables:
    Molecular point group: c1

    Geometry (in Angstrom), charge = 0, multiplicity = 1:

    O            2.298870514223     2.038428156376     0.768642971956
    C            1.205189721030     2.147918637663     1.217923747400
    C            0.095107384461     1.167585689829     0.897280081817
    C            0.845814328091     3.284017999625     2.148869035021
    C            0.501143772809     0.039763305324    -0.040790250947
    H           -0.273502166628     0.770582818898     1.840471358994
    H           -0.733236833596     1.736276180486     0.480863696478
    C           -0.646935325955    -0.923207685346    -0.332411167613
    H            1.335218900470    -0.500025100942     0.392639299681
    H            0.869892015843     0.464027212477    -0.967901066454
    C           -0.240783835512    -2.047081671703    -1.286071194496
    H           -1.002345327727    -1.355395550521     0.601182088966
    H           -1.481284440804    -0.366424151727    -0.747282676129
    C           -1.302091067714    -3.130980430633    -1.502301968420
    H            0.645105585255    -2.518988140972    -0.870879034959
    H            0.043493287674    -1.617740023035    -2.242566298371
    C           -2.693935971869    -2.610224034586    -1.859497356678
    H           -0.973956182136    -3.765091694375    -2.320028343852
    H           -1.369629749253    -3.757554283596    -0.618202980245
    H           -2.656731087591    -1.953198668279    -2.722956626534
    H           -3.356465067655    -3.433188620901    -2.102059343164
    H           -3.145532258231    -2.058977705253    -1.043849380279
    H            0.504425232522     2.892991093017     3.101036878083
    H            1.705978486341     3.916993009311     2.303637430678
    H            0.033341421599     3.867807446061     1.730431528540

  Mulliken Charges: (a.u.)
   Center  Symbol    Alpha    Beta     Spin     Total
       1     O     4.17092  4.17092  0.00000 -0.34184
       2     C     2.86226  2.86226  0.00000  0.27549
       3     C     3.11314  3.11314  0.00000 -0.22628
       4     C     3.15124  3.15124  0.00000 -0.30249
       5     C     3.08300  3.08300  0.00000 -0.16599
       6     H     0.44571  0.44571  0.00000  0.10859
       7     H     0.44573  0.44573  0.00000  0.10853
       8     C     3.09433  3.09433  0.00000 -0.18866
       9     H     0.44540  0.44540  0.00000  0.10920
      10     H     0.44615  0.44615  0.00000  0.10771
      11     C     3.09595  3.09595  0.00000 -0.19191
      12     H     0.45549  0.45549  0.00000  0.08901
      13     H     0.45287  0.45287  0.00000  0.09425
      14     C     3.08984  3.08984  0.00000 -0.17968
      15     H     0.44961  0.44961  0.00000  0.10078
      16     H     0.45097  0.45097  0.00000  0.09806
      17     C     3.15652  3.15652  0.00000 -0.31305
      18     H     0.44913  0.44913  0.00000  0.10173
      19     H     0.45291  0.45291  0.00000  0.09417
      20     H     0.45397  0.45397  0.00000  0.09205
      21     H     0.44530  0.44530  0.00000  0.10939
      22     H     0.45336  0.45336  0.00000  0.09328
      23     H     0.45039  0.45039  0.00000  0.09922
      24     H     0.43537  0.43537  0.00000  0.12925
      25     H     0.45041  0.45041  0.00000  0.09918

   Total alpha = 36.00000, Total beta = 36.00000, Total charge = -0.00000

*** Psi4 exiting successfully. Buy a developer a beer!
