                              Psi4 1.0.54 Driver

  ==> Input File <==

--------------------------------------------------------------------------
set {
	reference rhf
	basis cc-pvtz
}

set_num_threads( 4 )
memory 2 gb

molecule MOL {
0 1

H	 -3.962728	 -0.414018	 -0.841437
C	 -2.913157	 -0.265376	 -0.672674
C	 -2.420041	 1.011994	 -0.475686
C	 -2.058229	 -1.351050	 -0.652829
H	 -3.084222	 1.854207	 -0.491222
C	 -1.071222	 1.202203	 -0.258884
H	 -2.441636	 -2.341253	 -0.805702
C	 -0.707390	 -1.162217	 -0.435865
H	 -0.672582	 2.184207	 -0.104572
C	 -0.209972	 0.116062	 -0.238155
H	 -0.042592	 -2.000857	 -0.419890
C	 1.238974	 0.374429	 0.000004
O	 1.968286	 -0.725612	 -0.000027
O	 1.696613	 1.454242	 0.172489
C	 3.373556	 -0.568203	 0.000011
H	 3.695416	 -0.031588	 -0.879663
H	 3.782700	 -1.565294	 -0.000152
H	 3.695405	 -0.031851	 0.879862

	symmetry c1
}
set optking {
	frozen_dihedral = ("
		10 12 13 15
	")
}

ee,wfn = optimize('scf', return_wfn=True)
oeprop( wfn, 'DIPOLE', 'QUADRUPOLE', 'MULLIKEN_CHARGES')
f=open( 'psi4out.xyz', 'w' )
f.write( "18  " )
f.write( str(ee) + "\n" )
f.write( MOL.save_string_xyz() )
f.close()
--------------------------------------------------------------------------

    Molecular point group: c1
  Charge       = 0
  Multiplicity = 1
  Basis Set: CC-PVTZ
  Basis Set:
  @DF-RHF Final Energy:  -457.50964142567341
    Total Energy =                       -457.5096414256730668
    Molecular point group: c1
  Basis Set: CC-PVTZ
  Basis Set:
  Basis Set: CC-PVTZ
  Basis Set:
  @DF-RHF Final Energy:  -457.50860630813355
    Total Energy =                       -457.5086063081329257
  Basis Set: CC-PVTZ
  Basis Set:
  Basis Set: CC-PVTZ
  Basis Set:
  @DF-RHF Final Energy:  -457.50969210000414
    Total Energy =                       -457.5096921000042585
  Basis Set: CC-PVTZ
  Basis Set:
  Basis Set: CC-PVTZ
  Basis Set:
  @DF-RHF Final Energy:  -457.50970595958535
    Total Energy =                       -457.5097059595855171
  Basis Set: CC-PVTZ
  Basis Set:
  Charge       = 0
  Multiplicity = 1
  Basis Set: CC-PVTZ
  Basis Set:

    Orbital Energies (a.u.)
    -----------------------

    Doubly Occupied:

       1A    -20.600411     2A    -20.534697     3A    -11.371821
       4A    -11.281420     5A    -11.245106     6A    -11.243639
       7A    -11.242838     8A    -11.240192     9A    -11.236179
      10A    -11.235425    11A     -1.476729    12A     -1.368477
      13A     -1.170901    14A     -1.051814    15A     -1.029178
      16A     -0.980395    17A     -0.863474    18A     -0.838613
      19A     -0.781242    20A     -0.745011    21A     -0.687870
      22A     -0.681523    23A     -0.676340    24A     -0.634229
      25A     -0.630193    26A     -0.601452    27A     -0.588265
      28A     -0.564489    29A     -0.532005    30A     -0.520381
      31A     -0.509461    32A     -0.502358    33A     -0.464091
      34A     -0.449402    35A     -0.350341    36A     -0.346375

  @DF-RHF Final Energy:  -457.50970684919662

   => Energetics <=

    Nuclear Repulsion Energy =            494.0652385576167944
    One-Electron Energy =               -1602.5972213611325969
    Two-Electron Energy =                 651.0222759543194115
    DFT Exchange-Correlation Energy =       0.0000000000000000
    Empirical Dispersion Energy =           0.0000000000000000
    PCM Polarization Energy =               0.0000000000000000
    EFP Energy =                            0.0000000000000000
    Total Energy =                       -457.5097068491963910
    Molecular point group: c1
  Basis Set: CC-PVTZ
  Basis Set:

  -Total Gradient:
     Atom            X                  Y                   Z
    ------   -----------------  -----------------  -----------------
       1        0.000000451025    -0.000000288037    -0.000000573841
       2       -0.000001325696     0.000022629416     0.000005725173
       3       -0.000020567133    -0.000017062800    -0.000007982753
       4        0.000014067696    -0.000009367315     0.000001232423
       5       -0.000001614486    -0.000001182118    -0.000004363818
       6        0.000005584195    -0.000004080015     0.000004913441
       7       -0.000005970608     0.000002080664     0.000001233890
       8       -0.000028709081    -0.000031346786     0.000004344244
       9       -0.000000247600    -0.000007704094     0.000000297689
      10        0.000370565351     0.000230173618    -0.002327206156
      11       -0.000005594095     0.000012699193    -0.000004280465
      12       -0.000534168903    -0.000291653191     0.002099476452
      13        0.000189654077     0.000189428280     0.002788726006
      14        0.000034293123    -0.000062065738     0.000004641619
      15        0.000003828547    -0.000027209184    -0.002567499273
      16       -0.000009094573    -0.000001965075     0.000001459567
      17        0.000002231919    -0.000005980482    -0.000001593435
      18       -0.000013383753     0.000002893666     0.000001449235

  **** Optimization is complete! (in 5 steps) ****
    Final optimized geometry and variables:
    Molecular point group: c1

    Geometry (in Angstrom), charge = 0, multiplicity = 1:

    H           -3.980162309915    -0.427313911614    -0.602819744206
    C           -2.930977997432    -0.278466465052    -0.431627271519
    C           -2.438304406285     0.999362277824    -0.235568349878
    C           -2.076106003955    -1.364014218326    -0.407786626896
    H           -3.102508810001     1.841562745404    -0.254107048653
    C           -1.090105454087     1.189937493441    -0.015698814924
    H           -2.459022609466    -2.354574752548    -0.559763242385
    C           -0.725587736217    -1.174731350628    -0.188150380576
    H           -0.691913661720     2.172331422774     0.137629468206
    C           -0.228579507057     0.103890220673     0.007650747198
    H           -0.060840352656    -2.013390697733    -0.169389064337
    C            1.221242531377     0.363556386892     0.240633115893
    O            1.950435367759    -0.736976712333     0.253842534260
    O            1.683306328256     1.446565883373     0.376173356419
    C            3.355568764384    -0.579974896621     0.250109413093
    H            3.668773790940    -0.009886825678    -0.611889881700
    H            3.764920379012    -1.576131974994     0.207726624074
    H            3.687096944389    -0.077992285464     1.146347072593

  Mulliken Charges: (a.u.)
   Center  Symbol    Alpha    Beta     Spin     Total
       1     H     0.42027  0.42027  0.00000  0.15947
       2     C     3.06965  3.06965  0.00000 -0.13929
       3     C     3.07555  3.07555  0.00000 -0.15111
       4     C     3.07504  3.07504  0.00000 -0.15008
       5     H     0.42039  0.42039  0.00000  0.15923
       6     C     3.07594  3.07594  0.00000 -0.15187
       7     H     0.42186  0.42186  0.00000  0.15629
       8     C     3.08251  3.08251  0.00000 -0.16501
       9     H     0.40668  0.40668  0.00000  0.18663
      10     C     3.01212  3.01212  0.00000 -0.02425
      11     H     0.41100  0.41100  0.00000  0.17801
      12     C     2.78247  2.78247  0.00000  0.43507
      13     O     4.14900  4.14900  0.00000 -0.29801
      14     O     4.21041  4.21041  0.00000 -0.42081
      15     C     3.03652  3.03652  0.00000 -0.07304
      16     H     0.45458  0.45458  0.00000  0.09084
      17     H     0.44537  0.44537  0.00000  0.10927
      18     H     0.45066  0.45066  0.00000  0.09868

   Total alpha = 36.00000, Total beta = 36.00000, Total charge =  0.00000

*** Psi4 exiting successfully. Buy a developer a beer!
