  ==> Input File <==

--------------------------------------------------------------------------
set {
	reference rhf
	basis cc-pvtz
}

set_num_threads( 4 )
memory 2 gb

molecule MOL {
0 1

H	 1.914002	 -1.585493	 0.088459
O	 1.235914	 -1.014684	 -0.222070
C	 1.135873	 0.113391	 0.608264
C	 0.027642	 1.012027	 0.090274
H	 2.071164	 0.667466	 0.607808
H	 0.937232	 -0.186777	 1.633399
C	 -1.138737	 0.285728	 -0.581921
H	 0.464661	 1.708096	 -0.618252
H	 -0.340737	 1.603071	 0.925246
C	 -1.933983	 -0.631436	 0.343653
H	 -0.763151	 -0.285569	 -1.422081
H	 -1.808359	 1.035291	 -0.992333
H	 -2.789188	 -1.049673	 -0.174718
H	 -1.335629	 -1.461368	 0.700418
H	 -2.305435	 -0.092167	 1.209725

	symmetry c1
}
set optking {
	frozen_dihedral = ("
		2 3 4 8
	")
}

ee = optimize('scf')
oeprop('DIPOLE', 'QUADRUPOLE', 'MULLIKEN_CHARGES')
f=open( 'psi4out.xyz', 'w' )
f.write( "15  " )
f.write( str(ee) + "\n" )
f.write( MOL.save_string_xyz() )
f.close()
--------------------------------------------------------------------------

    Molecular point group: c1
  Charge       = 0
  Multiplicity = 1
  Basis Set: CC-PVTZ
  Basis Set:
  @DF-RHF Final Energy:  -232.23381387381073
    Total Energy =                       -232.2338138738106750
    Molecular point group: c1
  Basis Set: CC-PVTZ
  Basis Set:
  Basis Set: CC-PVTZ
  Basis Set:
  @DF-RHF Final Energy:  -232.23438520842950
    Total Energy =                       -232.2343852084293303
  Basis Set: CC-PVTZ
  Basis Set:
  Basis Set: CC-PVTZ
  Basis Set:
  @DF-RHF Final Energy:  -232.23457707631755
    Total Energy =                       -232.2345770763176347
  Basis Set: CC-PVTZ
  Basis Set:
  Basis Set: CC-PVTZ
  Basis Set:
  @DF-RHF Final Energy:  -232.23459358320389
    Total Energy =                       -232.2345935832038890
  Basis Set: CC-PVTZ
  Basis Set:
  Basis Set: CC-PVTZ
  Basis Set:
  @DF-RHF Final Energy:  -232.23459565824359
    Total Energy =                       -232.2345956582437339
  Basis Set: CC-PVTZ
  Basis Set:
  Charge       = 0
  Multiplicity = 1
  Basis Set: CC-PVTZ
  Basis Set:

    Orbital Energies (a.u.)
    -----------------------

    Doubly Occupied:

       1A    -20.547150     2A    -11.266597     3A    -11.211340
       4A    -11.205948     5A    -11.198723     6A     -1.364985
       7A     -1.062980     8A     -0.969768     9A     -0.867810
      10A     -0.774699    11A     -0.705713    12A     -0.651387
      13A     -0.609072    14A     -0.571864    15A     -0.565753
      16A     -0.528496    17A     -0.508907    18A     -0.477735
      19A     -0.463799    20A     -0.452400    21A     -0.431152

  @DF-RHF Final Energy:  -232.23459589201147

   => Energetics <=

    Nuclear Repulsion Energy =            193.3160110266685763
    One-Electron Energy =                -698.2286635736923017
    Two-Electron Energy =                 272.6780566550122558
    DFT Exchange-Correlation Energy =       0.0000000000000000
    Empirical Dispersion Energy =           0.0000000000000000
    PCM Polarization Energy =               0.0000000000000000
    EFP Energy =                            0.0000000000000000
    Total Energy =                       -232.2345958920114981
    Molecular point group: c1
  Basis Set: CC-PVTZ
  Basis Set:

  -Total Gradient:
     Atom            X                  Y                   Z
    ------   -----------------  -----------------  -----------------
       1       -0.000004918941     0.000015896590    -0.000001855969
       2       -0.003219719354    -0.002362778409     0.002548045340
       3        0.004429102641     0.003998437654    -0.002265658982
       4       -0.002089730006    -0.005475190712    -0.004897194188
       5       -0.000004873404     0.000013399297     0.000014947376
       6        0.000006590429    -0.000009323171    -0.000004124397
       7        0.000022828620     0.000011278851    -0.000017601485
       8        0.000868893143     0.003823956745     0.004606856981
       9       -0.000000716984    -0.000008999938     0.000004698218
      10       -0.000008941992     0.000017057134     0.000012433069
      11        0.000002845301     0.000004683731    -0.000000257447
      12       -0.000005049271    -0.000014629978     0.000005158417
      13       -0.000001933644    -0.000003515300     0.000000018683
      14        0.000000682644    -0.000008583171    -0.000003957158
      15        0.000004940817    -0.000001689324    -0.000001508460

  **** Optimization is complete! (in 6 steps) ****
    Final optimized geometry and variables:
    Molecular point group: c1

    Geometry (in Angstrom), charge = 0, multiplicity = 1:

    H            2.092779688888    -1.463500055689     0.035507401532
    O            1.380871071922    -0.935395442001    -0.274640399867
    C            1.218757642216     0.184728394932     0.557291669570
    C            0.116792144547     1.091824454809     0.012009660075
    H            2.144959059506     0.746649060600     0.633600681853
    H            0.957246122446    -0.146412942608     1.559189258993
    C           -1.067526105080     0.382326755390    -0.640606670131
    H            0.551152783862     1.816358129954    -0.669031641993
    H           -0.245101907975     1.684945582550     0.849457966373
    C           -1.847659865919    -0.523029410496     0.308592387861
    H           -0.719950250511    -0.195888590460    -1.486632317601
    H           -1.735168406443     1.142793782530    -1.034170315623
    H           -2.706911364857    -0.954883195425    -0.191839609249
    H           -1.233696656134    -1.339160532635     0.668387496628
    H           -2.212277625354     0.030129547629     1.168937304662

  Mulliken Charges: (a.u.)
   Center  Symbol    Alpha    Beta     Spin     Total
       1     H     0.39626  0.39626  0.00000  0.20749
       2     O     4.19705  4.19705  0.00000 -0.39411
       3     C     2.98057  2.98057  0.00000  0.03887
       4     C     3.09787  3.09787  0.00000 -0.19575
       5     H     0.46079  0.46079  0.00000  0.07843
       6     H     0.46965  0.46965  0.00000  0.06069
       7     C     3.08269  3.08269  0.00000 -0.16538
       8     H     0.44926  0.44926  0.00000  0.10148
       9     H     0.45701  0.45701  0.00000  0.08597
      10     C     3.15342  3.15342  0.00000 -0.30684
      11     H     0.44742  0.44742  0.00000  0.10515
      12     H     0.45089  0.45089  0.00000  0.09821
      13     H     0.44821  0.44821  0.00000  0.10358
      14     H     0.45052  0.45052  0.00000  0.09897
      15     H     0.45839  0.45839  0.00000  0.08323

   Total alpha = 21.00000, Total beta = 21.00000, Total charge = -0.00000
