  ==> Input File <==

--------------------------------------------------------------------------
set {
	reference rhf
	basis 6-31G*
}

set_num_threads( 1 )
memory 2 gb

molecule MOL {
0 1

H	 4.315141	 0.032299	 1.580882
C	 3.584668	 -0.480610	 0.963562
C	 2.273579	 0.301508	 0.897984
H	 4.017673	 -0.604488	 -0.025067
H	 3.434077	 -1.470729	 1.384554
C	 1.217350	 -0.386724	 0.039429
H	 2.449622	 1.295505	 0.498774
H	 1.884364	 0.436711	 1.905765
N	 0.000003	 0.397874	 -0.023260
H	 1.595595	 -0.498331	 -0.973210
H	 1.041373	 -1.399526	 0.417109
C	 -1.217365	 -0.386708	 0.039277
H	 -0.000031	 1.072115	 0.718656
C	 -2.452633	 0.504241	 -0.042481
H	 -1.215291	 -1.074557	 -0.802042
H	 -1.269739	 -1.003477	 0.942735
C	 -3.758029	 -0.289423	 -0.010781
H	 -2.394220	 1.093569	 -0.952170
H	 -2.440793	 1.210787	 0.785871
H	 -3.816659	 -0.981993	 -0.845726
H	 -4.617837	 0.370165	 -0.069296
H	 -3.847478	 -0.867502	 0.904682

	symmetry c1
}
set optking {
	frozen_dihedral = ("
		15 12 14 18
	")
}

ee = energy('scf')
oeprop('DIPOLE', 'QUADRUPOLE', 'MULLIKEN_CHARGES')
f=open( 'psi4out.xyz', 'w' )
f.write( "22  " )
f.write( str(ee) + "\n" )
f.write( MOL.save_string_xyz() )
f.close()
--------------------------------------------------------------------------

    Molecular point group: c1

    Geometry (in Angstrom), charge = 0, multiplicity = 1:

       Center              X                  Y                   Z               Mass
    ------------   -----------------  -----------------  -----------------  -----------------
           H          4.365576727223     0.088561432583     1.305640934161     1.007825032070
           C          3.635103727223    -0.424347567417     0.688320934161    12.000000000000
           C          2.324014727223     0.357770432583     0.622742934161    12.000000000000
           H          4.068108727223    -0.548225567417    -0.300308065839     1.007825032070
           H          3.484512727223    -1.414466567417     1.109312934161     1.007825032070
           C          1.267785727223    -0.330461567417    -0.235812065839    12.000000000000
           H          2.500057727223     1.351767432583     0.223532934161     1.007825032070
           H          1.934799727223     0.492973432583     1.630523934161     1.007825032070
           N          0.050438727223     0.454136432583    -0.298501065839    14.003074004780
           H          1.646030727223    -0.442068567417    -1.248451065839     1.007825032070
           H          1.091808727223    -1.343263567417     0.141867934161     1.007825032070
           C         -1.166929272777    -0.330445567417    -0.235964065839    12.000000000000
           H          0.050404727223     1.128377432583     0.443414934161     1.007825032070
           C         -2.402197272777     0.560503432583    -0.317722065839    12.000000000000
           H         -1.164855272777    -1.018294567417    -1.077283065839     1.007825032070
           H         -1.219303272777    -0.947214567417     0.667493934161     1.007825032070
           C         -3.707593272777    -0.233160567417    -0.286022065839    12.000000000000
           H         -2.343784272777     1.149831432583    -1.227411065839     1.007825032070
           H         -2.390357272777     1.267049432583     0.510629934161     1.007825032070
           H         -3.766223272777    -0.925730567417    -1.120967065839     1.007825032070
           H         -4.567401272777     0.426427432583    -0.344537065839     1.007825032070
           H         -3.797042272777    -0.811239567417     0.629440934161     1.007825032070

  Charge       = 0
  Multiplicity = 1
  Basis Set: 6-31G*
  Basis Set:

    Orbital Energies (a.u.)
    -----------------------

    Doubly Occupied:

       1A    -15.530962     2A    -11.237672     3A    -11.236678
       4A    -11.218655     5A    -11.212755     6A    -11.212337
       7A    -11.209261     8A     -1.205160     9A     -1.060445
      10A     -1.026461    11A     -0.928601    12A     -0.867687
      13A     -0.814814    14A     -0.796337    15A     -0.658124
      16A     -0.636498    17A     -0.614426    18A     -0.612492
      19A     -0.573867    20A     -0.560267    21A     -0.540482
      22A     -0.523965    23A     -0.515351    24A     -0.486545
      25A     -0.482801    26A     -0.476350    27A     -0.469120
      28A     -0.450170    29A     -0.355685

  @DF-RHF Final Energy:  -290.37887305192078

   => Energetics <=

    Nuclear Repulsion Energy =            314.1164306399952011
    One-Electron Energy =               -1013.9628618039862431
    Two-Electron Energy =                 409.4675581120696961
    DFT Exchange-Correlation Energy =       0.0000000000000000
    Empirical Dispersion Energy =           0.0000000000000000
    PCM Polarization Energy =               0.0000000000000000
    EFP Energy =                            0.0000000000000000
    Total Energy =                       -290.3788730519213459

  Mulliken Charges: (a.u.)
   Center  Symbol    Alpha    Beta     Spin     Total
       1     H     0.41764  0.41764  0.00000  0.16472
       2     C     3.24245  3.24245  0.00000 -0.48491
       3     C     3.16947  3.16947  0.00000 -0.33893
       4     H     0.41909  0.41909  0.00000  0.16181
       5     H     0.42047  0.42047  0.00000  0.15906
       6     C     3.03727  3.03727  0.00000 -0.07453
       7     H     0.41527  0.41527  0.00000  0.16945
       8     H     0.42482  0.42482  0.00000  0.15035
       9     N     3.86048  3.86048  0.00000 -0.72096
      10     H     0.42116  0.42116  0.00000  0.15767
      11     H     0.43189  0.43189  0.00000  0.13622
      12     C     3.05029  3.05029  0.00000 -0.10057
      13     H     0.33306  0.33306  0.00000  0.33389
      14     C     3.15585  3.15585  0.00000 -0.31170
      15     H     0.42127  0.42127  0.00000  0.15746
      16     H     0.43613  0.43613  0.00000  0.12774
      17     C     3.24315  3.24315  0.00000 -0.48629
      18     H     0.41288  0.41288  0.00000  0.17424
      19     H     0.42687  0.42687  0.00000  0.14626
      20     H     0.42070  0.42070  0.00000  0.15861
      21     H     0.41786  0.41786  0.00000  0.16429
      22     H     0.42194  0.42194  0.00000  0.15612

   Total alpha = 29.00000, Total beta = 29.00000, Total charge =  0.00000
