                              Psi4 1.0.54 Driver

  ==> Input File <==

--------------------------------------------------------------------------
set {
	reference rhf
	basis cc-pvtz
}

set_num_threads( 4 )
memory 2 gb

molecule MOL {
0 1

O	 2.868453	 1.353349	 -0.000734
C	 2.841259	 0.166180	 -0.000295
C	 1.542794	 -0.614730	 -0.000853
C	 4.113372	 -0.651103	 0.000743
C	 0.288398	 0.247429	 0.000314
H	 1.557171	 -1.273139	 -0.866508
H	 1.557484	 -1.274998	 0.863344
C	 -0.768544	 -0.255992	 0.979371
H	 -0.122822	 0.278067	 -1.002220
H	 0.559146	 1.268593	 0.243324
C	 -2.031811	 0.599795	 0.990081
H	 -1.033423	 -1.281400	 0.731071
H	 -0.348492	 -0.285965	 1.982326
C	 -3.093922	 0.102548	 1.966504
H	 -2.452564	 0.630165	 -0.011996
H	 -1.768175	 1.624825	 1.238954
C	 -4.353244	 0.962707	 1.971463
H	 -3.358923	 -0.921583	 1.717766
H	 -2.674620	 0.073081	 2.968619
H	 -4.816065	 0.984361	 0.990459
H	 -5.086019	 0.582888	 2.674172
H	 -4.126756	 1.986288	 2.250802
H	 4.145311	 -1.294584	 -0.871587
H	 4.970080	 0.004978	 -0.000091
H	 4.145223	 -1.291980	 0.874988

	symmetry c1
}
set optking {
	frozen_dihedral = ("
		9 5 3 6
	")
}

ee,wfn = optimize('scf', return_wfn=True)
oeprop( wfn, 'DIPOLE', 'QUADRUPOLE', 'MULLIKEN_CHARGES')
f=open( 'psi4out.xyz', 'w' )
f.write( "25  " )
f.write( str(ee) + "\n" )
f.write( MOL.save_string_xyz() )
f.close()
--------------------------------------------------------------------------

    Molecular point group: c1
  Charge       = 0
  Multiplicity = 1
  Basis Set: CC-PVTZ
  Basis Set:
  @DF-RHF Final Energy:  -387.27054531636963
    Total Energy =                       -387.2705453163694074
    Molecular point group: c1
  Basis Set: CC-PVTZ
  Basis Set:
  Basis Set: CC-PVTZ
  Basis Set:
  @DF-RHF Final Energy:  -387.27085371499180
    Total Energy =                       -387.2708537149915173
  Basis Set: CC-PVTZ
  Basis Set:
  Basis Set: CC-PVTZ
  Basis Set:
  @DF-RHF Final Energy:  -387.27077390537517
    Total Energy =                       -387.2707739053751084
  Basis Set: CC-PVTZ
  Basis Set:
  Basis Set: CC-PVTZ
  Basis Set:
  @DF-RHF Final Energy:  -387.27093544061654
    Total Energy =                       -387.2709354406165403
  Basis Set: CC-PVTZ
  Basis Set:
  Basis Set: CC-PVTZ
  Basis Set:
  @DF-RHF Final Energy:  -387.27093771212162
    Total Energy =                       -387.2709377121217358
  Basis Set: CC-PVTZ
  Basis Set:
  Charge       = 0
  Multiplicity = 1
  Basis Set: CC-PVTZ
  Basis Set:

    Orbital Energies (a.u.)
    -----------------------

    Doubly Occupied:

       1A    -20.539599     2A    -11.321430     3A    -11.230501
       4A    -11.226839     5A    -11.214461     6A    -11.213364
       7A    -11.212998     8A    -11.210764     9A    -11.206021
      10A     -1.399820    11A     -1.093686    12A     -1.056762
      13A     -1.015568    14A     -0.969212    15A     -0.891656
      16A     -0.815007    17A     -0.790891    18A     -0.730343
      19A     -0.667054    20A     -0.647639    21A     -0.634247
      22A     -0.625799    23A     -0.596466    24A     -0.584410
      25A     -0.571862    26A     -0.559705    27A     -0.537778
      28A     -0.526648    29A     -0.515247    30A     -0.496840
      31A     -0.485213    32A     -0.472708    33A     -0.463654
      34A     -0.461567    35A     -0.448952    36A     -0.402414

  @DF-RHF Final Energy:  -387.27093846580033

   => Energetics <=

    Nuclear Repulsion Energy =            439.8398848695103425
    One-Electron Energy =               -1396.5473955768570704
    Two-Electron Energy =                 569.4365722415467417
    DFT Exchange-Correlation Energy =       0.0000000000000000
    Empirical Dispersion Energy =           0.0000000000000000
    PCM Polarization Energy =               0.0000000000000000
    EFP Energy =                            0.0000000000000000
    Total Energy =                       -387.2709384657999863
    Molecular point group: c1
  Basis Set: CC-PVTZ
  Basis Set:

  -Total Gradient:
     Atom            X                  Y                   Z
    ------   -----------------  -----------------  -----------------
       1        0.000006207753    -0.000000209053     0.000011296667
       2       -0.000019600265    -0.000025497122    -0.000004948421
       3       -0.001951077292    -0.002861182517     0.001912079873
       4        0.000016820569     0.000007236960    -0.000068185326
       5        0.002150834853     0.003096244988    -0.001004619268
       6        0.001290969790     0.001886613286    -0.001412244873
       7       -0.000013665558    -0.000011085436    -0.000019991375
       8        0.000007668879     0.000008467334    -0.000017039060
       9       -0.001471686862    -0.002123927164     0.000558750008
      10       -0.000011419336     0.000009336707    -0.000011431595
      11       -0.000011541959    -0.000005800297     0.000000482492
      12        0.000003602349     0.000000297928     0.000001982974
      13        0.000001086928     0.000006364378    -0.000006422674
      14       -0.000007309453     0.000007732821     0.000001061476
      15        0.000003113825     0.000002633733     0.000000033727
      16       -0.000000572345    -0.000005114375     0.000001508389
      17       -0.000004083780    -0.000004340113     0.000002137601
      18       -0.000000113935     0.000000546344    -0.000000689689
      19        0.000000584218     0.000000796799     0.000002189040
      20        0.000000654188     0.000000384114    -0.000000102397
      21       -0.000001412949     0.000000573473    -0.000000859335
      22        0.000000663855     0.000000268782     0.000001129701
      23        0.000001668185    -0.000012704226     0.000025471479
      24        0.000015199475     0.000001552090     0.000006979765
      25       -0.000006591132     0.000020810570     0.000021430822

  **** Optimization is complete! (in 6 steps) ****
    Final optimized geometry and variables:
    Molecular point group: c1

    Geometry (in Angstrom), charge = 0, multiplicity = 1:

    O            2.778624047311     1.138195607681    -0.648761986064
    C            2.716645247138    -0.047205048634    -0.658529845194
    C            1.401656869482    -0.807470759728    -0.630440961640
    C            3.967108568832    -0.897249552024    -0.700219533750
    C            0.142529031061     0.065378148198    -0.614095688359
    H            1.414189067475    -1.460583348014    -1.498413005708
    H            1.437141393668    -1.464525769086     0.234145131664
    C           -0.931667746324    -0.461855278498     0.336507395447
    H           -0.276885343864     0.107446689501    -1.613656112078
    H            0.410846718394     1.075808243783    -0.340577292494
    C           -2.205684286234     0.376881213419     0.325505142138
    H           -1.176731338382    -1.489551810170     0.076659176515
    H           -0.530393805415    -0.491068591655     1.347003804079
    C           -3.278285249445    -0.134628977905     1.283004307704
    H           -2.610003568189     0.402460919245    -0.683730148280
    H           -1.959198137788     1.404933758649     0.579190086830
    C           -4.549088751925     0.708284803754     1.265168721688
    H           -3.524850767831    -1.162417715859     1.030211828019
    H           -2.876487343037    -0.157851223106     2.292357911914
    H           -4.995009835605     0.723081781875     0.276167965129
    H           -5.288862051661     0.318959620343     1.955261357323
    H           -4.341349679695     1.734966765103     1.547604510175
    H            3.963713702966    -1.523994347827    -1.585107573344
    H            4.840315862389    -0.263343115533    -0.707885844711
    H            4.001230923296    -1.555533403198     0.160842891182

  Mulliken Charges: (a.u.)
   Center  Symbol    Alpha    Beta     Spin     Total
       1     O     4.16982  4.16982  0.00000 -0.33965
       2     C     2.85959  2.85959  0.00000  0.28081
       3     C     3.11800  3.11800  0.00000 -0.23600
       4     C     3.15111  3.15111  0.00000 -0.30222
       5     C     3.09368  3.09368  0.00000 -0.18735
       6     H     0.44119  0.44119  0.00000  0.11763
       7     H     0.44399  0.44399  0.00000  0.11203
       8     C     3.09242  3.09242  0.00000 -0.18484
       9     H     0.45255  0.45255  0.00000  0.09489
      10     H     0.43462  0.43462  0.00000  0.13076
      11     C     3.08733  3.08733  0.00000 -0.17466
      12     H     0.45500  0.45500  0.00000  0.08999
      13     H     0.45475  0.45475  0.00000  0.09050
      14     C     3.08367  3.08367  0.00000 -0.16733
      15     H     0.45510  0.45510  0.00000  0.08980
      16     H     0.45227  0.45227  0.00000  0.09546
      17     C     3.15053  3.15053  0.00000 -0.30106
      18     H     0.45553  0.45553  0.00000  0.08893
      19     H     0.45482  0.45482  0.00000  0.09035
      20     H     0.45527  0.45527  0.00000  0.08946
      21     H     0.44867  0.44867  0.00000  0.10266
      22     H     0.45446  0.45446  0.00000  0.09108
      23     H     0.45010  0.45010  0.00000  0.09980
      24     H     0.43527  0.43527  0.00000  0.12946
      25     H     0.45025  0.45025  0.00000  0.09951

   Total alpha = 36.00000, Total beta = 36.00000, Total charge = -0.00000

*** Psi4 exiting successfully. Buy a developer a beer!
