                              Psi4 1.0.54 Driver

  ==> Input File <==

--------------------------------------------------------------------------
set {
	reference rhf
	basis cc-pvtz
}

set_num_threads( 4 )
memory 2 gb

molecule MOL {
0 1

O	 -2.071633	 -1.227563	 -0.223463
C	 -1.652164	 -0.152425	 0.058082
C	 -0.327811	 0.006324	 0.778296
C	 -2.402515	 1.108629	 -0.298924
C	 0.241435	 1.416637	 0.582335
H	 -0.449227	 -0.197363	 1.837019
H	 0.358175	 -0.723225	 0.367175
C	 1.585329	 1.611414	 1.278209
H	 -0.464690	 2.153623	 0.956412
H	 0.349841	 1.602611	 -0.480692
C	 2.161351	 3.008661	 1.075570
H	 1.472115	 1.417938	 2.341352
H	 2.289455	 0.872901	 0.906262
H	 1.494719	 3.768471	 1.469686
H	 2.315442	 3.218915	 0.022756
H	 3.116036	 3.114314	 1.577382
H	 -3.240910	 0.874416	 -0.936711
H	 -1.747554	 1.818823	 -0.790984
H	 -2.760419	 1.579708	 0.610998

	symmetry c1
}
set optking {
	frozen_dihedral = ("
		5 3 2 4
	")
}

ee,wfn = optimize('scf', return_wfn=True)
oeprop( wfn, 'DIPOLE', 'QUADRUPOLE', 'MULLIKEN_CHARGES')
f=open( 'psi4out.xyz', 'w' )
f.write( "19  " )
f.write( str(ee) + "\n" )
f.write( MOL.save_string_xyz() )
f.close()
--------------------------------------------------------------------------

    Molecular point group: c1
  Charge       = 0
  Multiplicity = 1
  Basis Set: CC-PVTZ
  Basis Set:
  @DF-RHF Final Energy:  -309.17042608660444
    Total Energy =                       -309.1704260866044933
    Molecular point group: c1
  Basis Set: CC-PVTZ
  Basis Set:
  Basis Set: CC-PVTZ
  Basis Set:
  @DF-RHF Final Energy:  -309.12452425512976
    Total Energy =                       -309.1245242551299270
  Basis Set: CC-PVTZ
  Basis Set:
  Basis Set: CC-PVTZ
  Basis Set:
  @DF-RHF Final Energy:  -309.17180141472738
    Total Energy =                       -309.1718014147274971
  Basis Set: CC-PVTZ
  Basis Set:
  Basis Set: CC-PVTZ
  Basis Set:
  @DF-RHF Final Energy:  -309.17485851513948
    Total Energy =                       -309.1748585151391921
  Basis Set: CC-PVTZ
  Basis Set:
  @DF-RHF Final Energy:  -309.17499683135929
    Total Energy =                       -309.1749968313591808
  @DF-RHF Final Energy:  -309.17413880517057
    Total Energy =                       -309.1741388051702302
  Basis Set: CC-PVTZ
  Basis Set:
  @DF-RHF Final Energy:  -309.17518394983591
    Total Energy =                       -309.1751839498358549
  Basis Set: CC-PVTZ
  Basis Set:
  Basis Set: CC-PVTZ
  Basis Set:
  @DF-RHF Final Energy:  -309.17517353770018
    Total Energy =                       -309.1751735377001751
  Basis Set: CC-PVTZ
  Basis Set:
  Basis Set: CC-PVTZ
  Basis Set:
  @DF-RHF Final Energy:  -309.17519216944481
    Total Energy =                       -309.1751921694451539
  Basis Set: CC-PVTZ
  Basis Set:
  Charge       = 0
  Multiplicity = 1
  Basis Set: CC-PVTZ
  Basis Set:

    Orbital Energies (a.u.)
    -----------------------

    Doubly Occupied:

       1A    -20.535064     2A    -11.320692     3A    -11.229512
       4A    -11.228870     5A    -11.226530     6A    -11.224833
       7A    -11.215424     8A     -1.396428     9A     -1.095414
      10A     -1.028990    11A     -0.983813    12A     -0.896415
      13A     -0.810770    14A     -0.732819    15A     -0.664038
      16A     -0.650031    17A     -0.630131    18A     -0.613492
      19A     -0.587071    20A     -0.573171    21A     -0.554384
      22A     -0.531113    23A     -0.524826    24A     -0.492871
      25A     -0.487416    26A     -0.482158    27A     -0.470684
      28A     -0.399117

  @DF-RHF Final Energy:  -309.17519704608873

   => Energetics <=

    Nuclear Repulsion Energy =            301.4233946054463900
    One-Electron Energy =               -1016.0250290875180781
    Two-Electron Energy =                 405.4264374359829048
    DFT Exchange-Correlation Energy =       0.0000000000000000
    Empirical Dispersion Energy =           0.0000000000000000
    PCM Polarization Energy =               0.0000000000000000
    EFP Energy =                            0.0000000000000000
    Total Energy =                       -309.1751970460887264
    Molecular point group: c1
  Basis Set: CC-PVTZ
  Basis Set:

  -Total Gradient:
     Atom            X                  Y                   Z
    ------   -----------------  -----------------  -----------------
       1        0.000096678981     0.000163709485     0.000059860242
       2       -0.001591356187     0.000248598889     0.001831750538
       3        0.001338414845    -0.000825073526    -0.001797434342
       4        0.000815326907    -0.000139346949    -0.001015272156
       5       -0.000643295067     0.000513576516     0.000908019488
       6        0.000009370767    -0.000007191255     0.000001275220
       7        0.000001533055     0.000007412465     0.000008213245
       8       -0.000003638848     0.000029711432    -0.000019576576
       9        0.000010588023    -0.000013687284     0.000002966678
      10        0.000007929329     0.000006242305     0.000002817546
      11       -0.000004122058     0.000000497814     0.000010013330
      12       -0.000003979155    -0.000009878735    -0.000007777441
      13       -0.000013272756    -0.000003263494    -0.000000675630
      14        0.000004223765     0.000001921567    -0.000009893662
      15       -0.000002682545     0.000002804784     0.000009880684
      16       -0.000009212667    -0.000000683701    -0.000012053122
      17        0.000027641437     0.000015152864     0.000014035096
      18       -0.000032785405     0.000004079777     0.000014771530
      19       -0.000007362428     0.000005417046    -0.000000920666

  **** Optimization is complete! (in 10 steps) ****
    Final optimized geometry and variables:
    Molecular point group: c1

    Geometry (in Angstrom), charge = 0, multiplicity = 1:

    O           -2.007135964552    -1.601603561760    -1.030814763392
    C           -1.428406606016    -0.612539959802    -0.717205100171
    C           -0.234532571338    -0.704472950654     0.221531399849
    C           -1.874325446612     0.739137257563    -1.223424240716
    C            0.740682370500     0.469439040070     0.253895917469
    H           -0.656240906004    -0.851043647980     1.213586576398
    H            0.277350412875    -1.626300821585    -0.024396335009
    C            1.891072639192     0.237113651335     1.230232485021
    H            0.221542478608     1.381225907538     0.531253222295
    H            1.149353658598     0.637729771269    -0.738920588357
    C            2.878969846900     1.397631260801     1.274458326511
    H            1.487758736697     0.067849211264     2.224719730831
    H            2.415510386600    -0.673488859644     0.955724170928
    H            2.390507366042     2.316999340247     1.579732697511
    H            3.325676932050     1.569048568537     0.300843334030
    H            3.681347433831     1.201495121725     1.975788529442
    H           -2.759617773885     0.617315271300    -1.827770468697
    H           -1.090213644047     1.198793914710    -1.813314069133
    H           -2.085923685195     1.405495564405    -0.394483378256

  Mulliken Charges: (a.u.)
   Center  Symbol    Alpha    Beta     Spin     Total
       1     O     4.17533  4.17533  0.00000 -0.35066
       2     C     2.86083  2.86083  0.00000  0.27833
       3     C     3.09804  3.09804  0.00000 -0.19609
       4     C     3.16418  3.16418  0.00000 -0.32836
       5     C     3.10017  3.10017  0.00000 -0.20034
       6     H     0.44213  0.44213  0.00000  0.11573
       7     H     0.43645  0.43645  0.00000  0.12709
       8     C     3.08615  3.08615  0.00000 -0.17230
       9     H     0.45090  0.45090  0.00000  0.09820
      10     H     0.44955  0.44955  0.00000  0.10090
      11     C     3.14935  3.14935  0.00000 -0.29870
      12     H     0.45278  0.45278  0.00000  0.09443
      13     H     0.45094  0.45094  0.00000  0.09812
      14     H     0.45493  0.45493  0.00000  0.09014
      15     H     0.45431  0.45431  0.00000  0.09138
      16     H     0.44639  0.44639  0.00000  0.10721
      17     H     0.43196  0.43196  0.00000  0.13608
      18     H     0.44765  0.44765  0.00000  0.10471
      19     H     0.44793  0.44793  0.00000  0.10413

   Total alpha = 28.00000, Total beta = 28.00000, Total charge = -0.00000

*** Psi4 exiting successfully. Buy a developer a beer!
