  ==> Input File <==

--------------------------------------------------------------------------
set {
	reference rhf
	basis 6-31G*
}

set_num_threads( 4 )
memory 2 gb

molecule MOL {
0 1

O	 0.376426	 -1.152148	 -1.586878
C	 1.053509	 -1.166779	 -0.609942
C	 1.245376	 -0.013843	 0.345420
O	 1.747512	 -2.230208	 -0.223795
C	 0.455112	 1.231400	 -0.050772
H	 0.973917	 -0.370666	 1.333437
H	 2.311063	 0.196346	 0.388166
C	 -0.998893	 1.219485	 0.433193
H	 0.482531	 1.345121	 -1.130325
H	 0.957290	 2.103070	 0.354729
C	 -1.883438	 0.145884	 -0.207175
H	 -1.431207	 2.195402	 0.224832
H	 -1.019646	 1.105716	 1.516076
C	 -3.347647	 0.245583	 0.225435
H	 -1.822183	 0.231698	 -1.291012
H	 -1.510341	 -0.844814	 0.042401
C	 -4.239992	 -0.825570	 -0.404234
H	 -3.732888	 1.230466	 -0.033079
H	 -3.408585	 0.170602	 1.310038
C	 -5.701275	 -0.716658	 0.029921
H	 -4.179496	 -0.752714	 -1.488058
H	 -3.859041	 -1.810759	 -0.143352
H	 -6.308102	 -1.488908	 -0.432678
H	 -6.122175	 0.245478	 -0.248167
H	 -5.799072	 -0.820114	 1.106957
C	 1.657190	 -3.386181	 -1.036478
H	 0.635740	 -3.734467	 -1.089766
H	 2.281228	 -4.128676	 -0.563948
H	 2.013848	 -3.177758	 -2.034922

	symmetry c1
}
set optking {
	frozen_dihedral = ("
		6 3 5 9
	")
}

ee = optimize('scf')
oeprop('DIPOLE', 'QUADRUPOLE', 'MULLIKEN_CHARGES')
f=open( 'psi4out.xyz', 'w' )
f.write( "29  " )
f.write( str(ee) + "\n" )
f.write( MOL.save_string_xyz() )
f.close()
--------------------------------------------------------------------------

    Molecular point group: c1
  Charge       = 0
  Multiplicity = 1
  Basis Set: 6-31G*
  Basis Set:
  @DF-RHF Final Energy:  -501.03925625913473
    Total Energy =                       -501.0392562591341630
    Molecular point group: c1
  Basis Set: 6-31G*
  Basis Set:
  Basis Set: 6-31G*
  Basis Set:
  @DF-RHF Final Energy:  -501.04083527382568
    Total Energy =                       -501.0408352738252233
  Basis Set: 6-31G*
  Basis Set:
  Basis Set: 6-31G*
  Basis Set:
  @DF-RHF Final Energy:  -501.04137833508730
    Total Energy =                       -501.0413783350870744
  Basis Set: 6-31G*
  Basis Set:
  Basis Set: 6-31G*
  Basis Set:
  @DF-RHF Final Energy:  -501.04051414219657
    Total Energy =                       -501.0405141421960025
  Basis Set: 6-31G*
  Basis Set:
  @DF-RHF Final Energy:  -501.04188336038840
    Total Energy =                       -501.0418833603887379
  @DF-RHF Final Energy:  -501.04204679145744
    Total Energy =                       -501.0420467914574374
  @DF-RHF Final Energy:  -501.04213068068225
    Total Energy =                       -501.0421306806821349
  Basis Set: 6-31G*
  Basis Set:
  @DF-RHF Final Energy:  -501.04217572040898
    Total Energy =                       -501.0421757204082951
  Basis Set: 6-31G*
  Basis Set:
  Basis Set: 6-31G*
  Basis Set:
  @DF-RHF Final Energy:  -501.04219409476070
    Total Energy =                       -501.0421940947608164
  Basis Set: 6-31G*
  Basis Set:
  Basis Set: 6-31G*
  Basis Set:
  @DF-RHF Final Energy:  -501.04220013268730
    Total Energy =                       -501.0422001326868440
  Basis Set: 6-31G*
  Basis Set:
  Charge       = 0
  Multiplicity = 1
  Basis Set: 6-31G*
  Basis Set:

    Orbital Energies (a.u.)
    -----------------------

    Doubly Occupied:

       1A    -20.605102     2A    -20.544185     3A    -11.372405
       4A    -11.281095     5A    -11.234941     6A    -11.219993
       7A    -11.215625     8A    -11.212577     9A    -11.211268
      10A    -11.210542    11A    -11.206641    12A     -1.469895
      13A     -1.362364    14A     -1.095579    15A     -1.064283
      16A     -1.016632    17A     -0.976917    18A     -0.927511
      19A     -0.861516    20A     -0.798661    21A     -0.786691
      22A     -0.762843    23A     -0.700767    24A     -0.682035
      25A     -0.672125    26A     -0.648585    27A     -0.620880
      28A     -0.610539    29A     -0.590695    30A     -0.578999
      31A     -0.563753    32A     -0.543519    33A     -0.538831
      34A     -0.530170    35A     -0.518362    36A     -0.502477
      37A     -0.497591    38A     -0.476830    39A     -0.467042
      40A     -0.460355    41A     -0.458771    42A     -0.452008
      43A     -0.440326    44A     -0.431335

  @DF-RHF Final Energy:  -501.04220084280178

   => Energetics <=

    Nuclear Repulsion Energy =            638.6100722585010772
    One-Electron Energy =               -1948.4580192830665055
    Two-Electron Energy =                 808.8057461817641070
    DFT Exchange-Correlation Energy =       0.0000000000000000
    Empirical Dispersion Energy =           0.0000000000000000
    PCM Polarization Energy =               0.0000000000000000
    EFP Energy =                            0.0000000000000000
    Total Energy =                       -501.0422008428013214
    Molecular point group: c1
  Basis Set: 6-31G*
  Basis Set:

  -Total Gradient:
     Atom            X                  Y                   Z
    ------   -----------------  -----------------  -----------------
       1        0.000008940357    -0.000079706689    -0.000048190757
       2       -0.000019822979     0.000131168415     0.000078124610
       3        0.000462234907     0.000382980896     0.000320769914
       4       -0.000016264435    -0.000000596960    -0.000055599952
       5        0.000536516313     0.000345623919     0.000082371353
       6       -0.000440847059    -0.000325075671    -0.000268253303
       7       -0.000000880268    -0.000011764480    -0.000002224098
       8       -0.000026139170    -0.000002634241    -0.000042837472
       9       -0.000486327295    -0.000367081903    -0.000048318274
      10       -0.000039504397     0.000018701317    -0.000022582276
      11        0.000007713491    -0.000017740552     0.000026524757
      12       -0.000008798885     0.000021721085     0.000007684184
      13        0.000024018437    -0.000040974270    -0.000013282456
      14       -0.000018515389     0.000009048885     0.000022766179
      15        0.000014715052    -0.000003602468    -0.000044149896
      16       -0.000039582536     0.000016106072    -0.000009648274
      17        0.000018379752    -0.000010236729     0.000028244655
      18        0.000002723306    -0.000005693360    -0.000007724222
      19       -0.000008799112    -0.000009970558     0.000000722738
      20       -0.000003827551     0.000012738992    -0.000008652886
      21        0.000012144584     0.000001729116    -0.000000648419
      22        0.000004449934     0.000004009038     0.000008085909
      23        0.000000572430     0.000004853498    -0.000009489734
      24       -0.000003546267     0.000006431261     0.000008607700
      25       -0.000000896364    -0.000005134488     0.000001381489
      26        0.000043806509    -0.000027252665     0.000018321480
      27       -0.000007970081     0.000003712549     0.000000453617
      28       -0.000004849774    -0.000042461495    -0.000024351437
      29       -0.000009643510    -0.000008898507     0.000001894872

  **** Optimization is complete! (in 11 steps) ****
    Final optimized geometry and variables:
    Molecular point group: c1

    Geometry (in Angstrom), charge = 0, multiplicity = 1:

    O            1.791361151709    -0.313734708540    -1.547202695552
    C            2.016310279429    -0.462067144434    -0.388731930648
    C            2.103773561899     0.646866405223     0.634947112516
    O            2.270988028955    -1.645589811204     0.152639068712
    C            1.296271984330     1.899518589200     0.275958399017
    H            1.820950952049     0.248410834609     1.602426748345
    H            3.161676110655     0.890461323861     0.702425903703
    C           -0.166682906741     1.869658622205     0.736004895268
    H            1.343202275259     2.050845408332    -0.796318628148
    H            1.776406387840     2.757536259125     0.737007869053
    C           -1.023750404142     0.754265894762     0.131506121224
    H           -0.615248847475     2.829338051042     0.488565996039
    H           -0.196139606844     1.793862477191     1.822143667305
    C           -2.494148788536     0.853047020679     0.543075016955
    H           -0.944990149151     0.782497759456    -0.952158470899
    H           -0.640122147473    -0.216688952665     0.439514903206
    C           -3.360903653102    -0.266277479565    -0.036391248151
    H           -2.892413742441     1.815165269669     0.224965715644
    H           -2.568183476114     0.837790301275     1.629525432390
    C           -4.830088557745    -0.155657000250     0.369894926634
    H           -3.284413131147    -0.254902200574    -1.121400358067
    H           -2.969178577133    -1.228637456289     0.286448097146
    H           -5.418651528461    -0.961985049781    -0.056933509666
    H           -5.260765356856     0.782659691378     0.031705796433
    H           -4.942963781341    -0.199574493819     1.449610266132
    C            2.284104118868    -2.761696561017    -0.719311055216
    H            1.321009775821    -2.883607571886    -1.193465767943
    H            2.507802546982    -3.616835534352    -0.100721882683
    H            3.041964312241    -2.640804745217    -1.479900285077

  Mulliken Charges: (a.u.)
   Center  Symbol    Alpha    Beta     Spin     Total
       1     O     4.28824  4.28824  0.00000 -0.57649
       2     C     2.60485  2.60485  0.00000  0.79030
       3     C     3.20928  3.20928  0.00000 -0.41857
       4     O     4.30658  4.30658  0.00000 -0.61316
       5     C     3.16186  3.16186  0.00000 -0.32373
       6     H     0.39991  0.39991  0.00000  0.20017
       7     H     0.39762  0.39762  0.00000  0.20475
       8     C     3.15322  3.15322  0.00000 -0.30645
       9     H     0.40042  0.40042  0.00000  0.19916
      10     H     0.41770  0.41770  0.00000  0.16461
      11     C     3.15893  3.15893  0.00000 -0.31785
      12     H     0.41996  0.41996  0.00000  0.16009
      13     H     0.42475  0.42475  0.00000  0.15050
      14     C     3.15031  3.15031  0.00000 -0.30061
      15     H     0.41183  0.41183  0.00000  0.17633
      16     H     0.42672  0.42672  0.00000  0.14655
      17     C     3.15127  3.15127  0.00000 -0.30253
      18     H     0.42391  0.42391  0.00000  0.15218
      19     H     0.42521  0.42521  0.00000  0.14958
      20     C     3.23927  3.23927  0.00000 -0.47853
      21     H     0.42151  0.42151  0.00000  0.15698
      22     H     0.42391  0.42391  0.00000  0.15218
      23     H     0.41965  0.41965  0.00000  0.16070
      24     H     0.42184  0.42184  0.00000  0.15632
      25     H     0.42239  0.42239  0.00000  0.15522
      26     C     3.09285  3.09285  0.00000 -0.18570
      27     H     0.40847  0.40847  0.00000  0.18307
      28     H     0.40846  0.40846  0.00000  0.18308
      29     H     0.40908  0.40908  0.00000  0.18184

   Total alpha = 44.00000, Total beta = 44.00000, Total charge =  0.00000
