  ==> Input File <==

--------------------------------------------------------------------------
set {
	reference rhf
	basis 6-31G*
}

set_num_threads( 4 )
memory 2 gb

molecule MOL {
0 1

H	 2.591676	 2.013956	 0.335017
O	 3.341076	 1.666752	 -0.126416
C	 3.569581	 0.339145	 0.272707
C	 4.197114	 -0.517859	 -0.821127
H	 4.239842	 0.397959	 1.120626
H	 2.644842	 -0.118009	 0.622918
C	 3.307255	 -0.705225	 -2.052352
H	 5.139057	 -0.063574	 -1.117328
H	 4.434457	 -1.491208	 -0.394951
C	 3.942651	 -1.613973	 -3.108413
H	 3.094304	 0.266033	 -2.490159
H	 2.350206	 -1.128090	 -1.746440
C	 3.056760	 -1.903970	 -4.325558
H	 4.880217	 -1.173335	 -3.442560
H	 4.203295	 -2.560282	 -2.639089
C	 2.760000	 -0.690181	 -5.210502
H	 3.546621	 -2.663304	 -4.931581
H	 2.118751	 -2.344200	 -3.990634
C	 1.962558	 -1.048724	 -6.466277
H	 3.698408	 -0.221611	 -5.503661
H	 2.208815	 0.058412	 -4.646493
C	 1.659447	 0.162086	 -7.348164
H	 2.514333	 -1.786771	 -7.044480
H	 1.028892	 -1.525841	 -6.175566
H	 2.574660	 0.642543	 -7.682484
H	 1.095446	 -0.124667	 -8.230384
H	 1.075986	 0.903654	 -6.809635

	symmetry c1
}
set optking {
	frozen_dihedral = ("
		4 3 2 1
	")
}

ee = optimize('scf')
oeprop('DIPOLE', 'QUADRUPOLE', 'MULLIKEN_CHARGES')
f=open( 'psi4out.xyz', 'w' )
f.write( "27  " )
f.write( str(ee) + "\n" )
f.write( MOL.save_string_xyz() )
f.close()
--------------------------------------------------------------------------

    Molecular point group: c1
  Charge       = 0
  Multiplicity = 1
  Basis Set: 6-31G*
  Basis Set:
  @DF-RHF Final Energy:  -388.27999607514295
    Total Energy =                       -388.2799960751431172
    Molecular point group: c1
  Basis Set: 6-31G*
  Basis Set:
  Basis Set: 6-31G*
  Basis Set:
  @DF-RHF Final Energy:  -388.28124208532915
    Total Energy =                       -388.2812420853286994
  Basis Set: 6-31G*
  Basis Set:
  Basis Set: 6-31G*
  Basis Set:
  @DF-RHF Final Energy:  -388.28156298720313
    Total Energy =                       -388.2815629872029604
  Basis Set: 6-31G*
  Basis Set:
  Basis Set: 6-31G*
  Basis Set:
  @DF-RHF Final Energy:  -388.28157222348887
    Total Energy =                       -388.2815722234886380
  Basis Set: 6-31G*
  Basis Set:
  Basis Set: 6-31G*
  Basis Set:
  @DF-RHF Final Energy:  -388.28157397608516
    Total Energy =                       -388.2815739760852694
  Basis Set: 6-31G*
  Basis Set:
  Charge       = 0
  Multiplicity = 1
  Basis Set: 6-31G*
  Basis Set:

    Orbital Energies (a.u.)
    -----------------------

    Doubly Occupied:

       1A    -20.552547     2A    -11.268098     3A    -11.211525
       4A    -11.211420     5A    -11.209854     6A    -11.209284
       7A    -11.208054     8A    -11.206942     9A    -11.205378
      10A     -1.358904    11A     -1.088483    12A     -1.056536
      13A     -1.008082    14A     -0.943360    15A     -0.880222
      16A     -0.811723    17A     -0.794611    18A     -0.771203
      19A     -0.705776    20A     -0.644821    21A     -0.629816
      22A     -0.622379    23A     -0.586860    24A     -0.578043
      25A     -0.574876    26A     -0.546408    27A     -0.537067
      28A     -0.517300    29A     -0.506816    30A     -0.483827
      31A     -0.477057    32A     -0.475368    33A     -0.460674
      34A     -0.453327    35A     -0.448258    36A     -0.439533
      37A     -0.420517

  @DF-RHF Final Energy:  -388.28157395961352

   => Energetics <=

    Nuclear Repulsion Energy =            460.0844791955323672
    One-Electron Energy =               -1438.5222095220294705
    Two-Electron Energy =                 590.1561563668834651
    DFT Exchange-Correlation Energy =       0.0000000000000000
    Empirical Dispersion Energy =           0.0000000000000000
    PCM Polarization Energy =               0.0000000000000000
    EFP Energy =                            0.0000000000000000
    Total Energy =                       -388.2815739596136382
    Molecular point group: c1
  Basis Set: 6-31G*
  Basis Set:

  -Total Gradient:
     Atom            X                  Y                   Z
    ------   -----------------  -----------------  -----------------
       1       -0.000945269736    -0.000547899041    -0.001188156806
       2        0.000829304026     0.000627717222     0.001339184562
       3        0.001007847840     0.000202765041     0.000186838357
       4       -0.000911877835    -0.000254661808    -0.000336185549
       5       -0.000005204492     0.000003512975     0.000004757277
       6        0.000002359803    -0.000011217895     0.000025347774
       7        0.000025279553    -0.000000846768    -0.000000429169
       8        0.000004529092    -0.000014563460    -0.000010113300
       9       -0.000007873178    -0.000003523733    -0.000014939857
      10        0.000005541099     0.000005948953    -0.000013466886
      11       -0.000001149924     0.000000373610     0.000023604427
      12        0.000004605395    -0.000004122539    -0.000003553268
      13       -0.000003800949    -0.000000794438     0.000000749457
      14        0.000000796962     0.000001816991    -0.000003324256
      15        0.000004791918     0.000002136025    -0.000000098661
      16       -0.000006491328    -0.000002176456     0.000002819675
      17       -0.000005249596    -0.000000322289    -0.000002242316
      18       -0.000003419055     0.000002876263     0.000000612470
      19        0.000004703917    -0.000001372253    -0.000003492509
      20        0.000000370659     0.000000103124     0.000003799770
      21       -0.000001324768    -0.000005497868    -0.000008767843
      22        0.000001138801    -0.000000532216    -0.000001464631
      23       -0.000000845043    -0.000002051886    -0.000001362385
      24        0.000001231611     0.000002334689     0.000000310794
      25       -0.000000261603     0.000000080727    -0.000000419825
      26       -0.000000245668     0.000000319476    -0.000000440341
      27        0.000000512498    -0.000000402445     0.000000433035

  **** Optimization is complete! (in 6 steps) ****
    Final optimized geometry and variables:
    Molecular point group: c1

    Geometry (in Angstrom), charge = 0, multiplicity = 1:

    H           -0.412461501441     2.511113024500     3.350277266226
    O            0.332071436791     2.083410246408     2.954664425978
    C            0.466225692862     0.778173294037     3.464096335135
    C            1.091168913009    -0.112691344543     2.402889143283
    H            1.089955099223     0.790986613565     4.355022643592
    H           -0.504737180354     0.378704951875     3.751695449950
    C            0.213050067502    -0.295246037660     1.164317919580
    H            2.047303507317     0.317810368113     2.115789977629
    H            1.304946422492    -1.080687005705     2.852738356633
    C            0.873707292849    -1.174633021483     0.099267974879
    H           -0.018943804980     0.681905632119     0.757420029132
    H           -0.734911080252    -0.744594471060     1.460340686362
    C           -0.003343765642    -1.469295177174    -1.123239771127
    H            1.800324597985    -0.706507523915    -0.228873220372
    H            1.158320628788    -2.121746990562     0.553973817332
    C           -0.328419016961    -0.249567624480    -1.989686924423
    H            0.504250324783    -2.208086232252    -1.740336306497
    H           -0.931120549055    -1.936016145216    -0.795463418472
    C           -1.121038680726    -0.606708974429    -3.248901962174
    H            0.599218333027     0.242887967252    -2.278013660603
    H           -0.892968144164     0.478520986744    -1.412839064999
    C           -1.449799375177     0.609807477823    -4.113659880816
    H           -0.556338157611    -1.325930483413    -3.838463371001
    H           -2.044762616876    -1.105897955018    -2.963245940595
    H           -0.544795809288     1.112365735408    -4.443311805348
    H           -2.010475129069     0.324475700073    -4.998610233120
    H           -2.045713174924     1.332593462674    -3.563414140570

  Mulliken Charges: (a.u.)
   Center  Symbol    Alpha    Beta     Spin     Total
       1     H     0.27989  0.27989  0.00000  0.44023
       2     O     4.37088  4.37088  0.00000 -0.74175
       3     C     2.99779  2.99779  0.00000  0.00442
       4     C     3.15884  3.15884  0.00000 -0.31768
       5     H     0.42596  0.42596  0.00000  0.14808
       6     H     0.43324  0.43324  0.00000  0.13351
       7     C     3.15741  3.15741  0.00000 -0.31482
       8     H     0.41462  0.41462  0.00000  0.17075
       9     H     0.42470  0.42470  0.00000  0.15060
      10     C     3.15321  3.15321  0.00000 -0.30643
      11     H     0.40680  0.40680  0.00000  0.18640
      12     H     0.42915  0.42915  0.00000  0.14170
      13     C     3.15283  3.15283  0.00000 -0.30566
      14     H     0.42296  0.42296  0.00000  0.15407
      15     H     0.42413  0.42413  0.00000  0.15174
      16     C     3.15247  3.15247  0.00000 -0.30495
      17     H     0.42285  0.42285  0.00000  0.15430
      18     H     0.42516  0.42516  0.00000  0.14968
      19     C     3.15103  3.15103  0.00000 -0.30207
      20     H     0.42413  0.42413  0.00000  0.15175
      21     H     0.42133  0.42133  0.00000  0.15734
      22     C     3.23895  3.23895  0.00000 -0.47790
      23     H     0.42371  0.42371  0.00000  0.15258
      24     H     0.42391  0.42391  0.00000  0.15218
      25     H     0.42176  0.42176  0.00000  0.15648
      26     H     0.42021  0.42021  0.00000  0.15958
      27     H     0.42208  0.42208  0.00000  0.15584

   Total alpha = 37.00000, Total beta = 37.00000, Total charge =  0.00000
