  ==> Input File <==

--------------------------------------------------------------------------
set {
	reference rhf
	basis 6-31G*
}

set_num_threads( 4 )
memory 2 gb

molecule MOL {
0 1

H	 3.893188	 0.355400	 -0.101367
N	 3.092854	 -0.246221	 -0.068770
C	 1.865559	 0.531981	 0.018834
H	 3.199514	 -0.826043	 0.741946
C	 0.645745	 -0.382037	 -0.029944
H	 1.841966	 1.207024	 -0.831236
H	 1.815756	 1.155410	 0.915079
C	 -0.679275	 0.379305	 0.025956
H	 0.698998	 -0.976915	 -0.937203
H	 0.693479	 -1.083846	 0.802235
C	 -0.806595	 1.277747	 1.257608
H	 -1.504373	 -0.331298	 0.015621
H	 -0.789178	 0.986038	 -0.871620
C	 -2.133818	 2.033453	 1.311454
H	 -0.698428	 0.673525	 2.155622
H	 0.015164	 1.990650	 1.269255
H	 -2.975293	 1.346676	 1.335411
H	 -2.194168	 2.660758	 2.195451
H	 -2.256077	 2.674025	 0.442483

	symmetry c1
}
set optking {
	frozen_dihedral = ("
		12 8 5 9
	")
}

ee = optimize('scf')
oeprop('DIPOLE', 'QUADRUPOLE', 'MULLIKEN_CHARGES')
f=open( 'psi4out.xyz', 'w' )
f.write( "19  " )
f.write( str(ee) + "\n" )
f.write( MOL.save_string_xyz() )
f.close()
--------------------------------------------------------------------------

    Molecular point group: c1
  Charge       = 0
  Multiplicity = 1
  Basis Set: 6-31G*
  Basis Set:
  @DF-RHF Final Energy:  -251.34808972876559
    Total Energy =                       -251.3480897287653306
    Molecular point group: c1
  Basis Set: 6-31G*
  Basis Set:
  Basis Set: 6-31G*
  Basis Set:
  @DF-RHF Final Energy:  -251.34876469061453
    Total Energy =                       -251.3487646906146438
  Basis Set: 6-31G*
  Basis Set:
  Basis Set: 6-31G*
  Basis Set:
  @DF-RHF Final Energy:  -251.34953237863050
    Total Energy =                       -251.3495323786303288
  Basis Set: 6-31G*
  Basis Set:
  Basis Set: 6-31G*
  Basis Set:
  @DF-RHF Final Energy:  -251.34960110631178
    Total Energy =                       -251.3496011063117521
  Basis Set: 6-31G*
  Basis Set:
  Basis Set: 6-31G*
  Basis Set:
  @DF-RHF Final Energy:  -251.34960458136783
    Total Energy =                       -251.3496045813679416
  Basis Set: 6-31G*
  Basis Set:
  Basis Set: 6-31G*
  Basis Set:
  @DF-RHF Final Energy:  -251.34961227460659
    Total Energy =                       -251.3496122746066703
  Basis Set: 6-31G*
  Basis Set:
  Charge       = 0
  Multiplicity = 1
  Basis Set: 6-31G*
  Basis Set:

    Orbital Energies (a.u.)
    -----------------------

    Doubly Occupied:

       1A    -15.532248     2A    -11.239068     3A    -11.214886
       4A    -11.213240     5A    -11.209869     6A    -11.208361
       7A     -1.176256     8A     -1.072623     9A     -0.996714
      10A     -0.899294    11A     -0.830210    12A     -0.775127
      13A     -0.655123    14A     -0.639041    15A     -0.630075
      16A     -0.586319    17A     -0.569535    18A     -0.545890
      19A     -0.528941    20A     -0.505528    21A     -0.482664
      22A     -0.461567    23A     -0.457551    24A     -0.450549
      25A     -0.380212

  @DF-RHF Final Energy:  -251.34961246486100

   => Energetics <=

    Nuclear Repulsion Energy =            249.0403467132916546
    One-Electron Energy =                -832.2581369143354095
    Two-Electron Energy =                 331.8681777361825311
    DFT Exchange-Correlation Energy =       0.0000000000000000
    Empirical Dispersion Energy =           0.0000000000000000
    PCM Polarization Energy =               0.0000000000000000
    EFP Energy =                            0.0000000000000000
    Total Energy =                       -251.3496124648611953
    Molecular point group: c1
  Basis Set: 6-31G*
  Basis Set:

  -Total Gradient:
     Atom            X                  Y                   Z
    ------   -----------------  -----------------  -----------------
       1        0.000007557189    -0.000003992278     0.000000625638
       2        0.000008984943    -0.000001429158     0.000020718873
       3       -0.000005139178     0.000012301611    -0.000042951729
       4        0.000011982002    -0.000006678189     0.000000902749
       5       -0.000965498102    -0.001616930773     0.001400843614
       6       -0.000003237733     0.000014376307     0.000001750091
       7        0.000003187571    -0.000010753799    -0.000000955101
       8        0.000170486738     0.000341528021    -0.002270430025
       9        0.000776634059     0.001319557434    -0.000826359313
      10       -0.000018920663    -0.000000511090    -0.000002834453
      11        0.000006340215     0.000010118088     0.000002430405
      12       -0.000005693725    -0.000054733702     0.001711693163
      13        0.000014999246    -0.000010346398     0.000003217777
      14        0.000000496292     0.000001769174    -0.000000725447
      15        0.000003897847    -0.000001350615    -0.000002228415
      16       -0.000004171093     0.000006910520     0.000004352079
      17        0.000001156968    -0.000000308871    -0.000000917898
      18       -0.000000827685    -0.000001436796     0.000000577974
      19       -0.000002234888     0.000001910514     0.000000290014

  **** Optimization is complete! (in 7 steps) ****
    Final optimized geometry and variables:
    Molecular point group: c1

    Geometry (in Angstrom), charge = 0, multiplicity = 1:

    H            3.572392443438    -0.371666736473    -0.614967207616
    N            2.741309093945    -0.930577218734    -0.587938403147
    C            1.566247775754    -0.094808993519    -0.377265992334
    H            2.852612430547    -1.575186429219     0.171896510544
    C            0.301529408582    -0.950471064194    -0.405673317402
    H            1.526714195178     0.628553538218    -1.186841221622
    H            1.615936359851     0.474334489340     0.551566819945
    C           -1.012456034981    -0.161683726100    -0.380263893108
    H            0.341266345309    -1.546007639976    -1.312468271502
    H            0.322321083485    -1.647479296801     0.431425109198
    C           -1.204996744410     0.747934145648     0.837839007191
    H           -1.834118678762    -0.874508945221    -0.400921440199
    H           -1.095880770513     0.432373217854    -1.288567749160
    C           -2.592995182027     1.387223631980     0.877235579381
    H           -1.048248381307     0.170226053903     1.747034257809
    H           -0.454857217902     1.533684961987     0.841739886615
    H           -3.371965356567     0.631486379894     0.924044551325
    H           -2.705305430143     2.032459198088     1.743148640121
    H           -2.771698952432     1.989650167636    -0.009105797404

  Mulliken Charges: (a.u.)
   Center  Symbol    Alpha    Beta     Spin     Total
       1     H     0.33265  0.33265  0.00000  0.33471
       2     N     3.92184  3.92184  0.00000 -0.84368
       3     C     3.06294  3.06294  0.00000 -0.12588
       4     H     0.33555  0.33555  0.00000  0.32889
       5     C     3.15383  3.15383  0.00000 -0.30765
       6     H     0.42154  0.42154  0.00000  0.15692
       7     H     0.43183  0.43183  0.00000  0.13633
       8     C     3.15523  3.15523  0.00000 -0.31045
       9     H     0.41041  0.41041  0.00000  0.17919
      10     H     0.42782  0.42782  0.00000  0.14436
      11     C     3.15440  3.15440  0.00000 -0.30880
      12     H     0.42132  0.42132  0.00000  0.15737
      13     H     0.42287  0.42287  0.00000  0.15427
      14     C     3.23901  3.23901  0.00000 -0.47802
      15     H     0.42405  0.42405  0.00000  0.15190
      16     H     0.42173  0.42173  0.00000  0.15653
      17     H     0.42171  0.42171  0.00000  0.15659
      18     H     0.41965  0.41965  0.00000  0.16071
      19     H     0.42164  0.42164  0.00000  0.15672

   Total alpha = 25.00000, Total beta = 25.00000, Total charge = -0.00000
