  ==> Input File <==

--------------------------------------------------------------------------
set {
	reference rhf
	basis 6-31G*
}

set_num_threads( 4 )
memory 2 gb

molecule MOL {
0 1

H	 -3.892951	 0.981613	 -0.358725
C	 -3.196921	 0.361773	 0.172313
C	 -2.076860	 -0.007332	 -0.404944
H	 -3.439953	 0.057760	 1.173024
O	 -1.180634	 -0.819263	 0.215062
H	 -1.811520	 0.292194	 -1.403480
C	 0.051604	 -1.018856	 -0.387932
C	 1.043764	 0.054862	 -0.001873
H	 -0.017620	 -1.041351	 -1.469781
H	 0.437898	 -1.966374	 -0.042284
F	 0.710693	 0.559443	 1.177223
F	 2.272102	 -0.425502	 0.099450
F	 1.068998	 1.041908	 -0.873362

	symmetry c1
}
set optking {
	frozen_dihedral = ("
		11 8 7 9
	")
}

ee = optimize('scf')
oeprop('DIPOLE', 'QUADRUPOLE', 'MULLIKEN_CHARGES')
f=open( 'psi4out.xyz', 'w' )
f.write( "13  " )
f.write( str(ee) + "\n" )
f.write( MOL.save_string_xyz() )
f.close()
--------------------------------------------------------------------------

    Molecular point group: c1
  Charge       = 0
  Multiplicity = 1
  Basis Set: 6-31G*
  Basis Set:
  @DF-RHF Final Energy:  -527.53096299493677
    Total Energy =                       -527.5309629949367718
    Molecular point group: c1
  Basis Set: 6-31G*
  Basis Set:
  Basis Set: 6-31G*
  Basis Set:
  @DF-RHF Final Energy:  -527.53202075197260
    Total Energy =                       -527.5320207519725955
  Basis Set: 6-31G*
  Basis Set:
  Basis Set: 6-31G*
  Basis Set:
  @DF-RHF Final Energy:  -527.53226791672353
    Total Energy =                       -527.5322679167236402
  Basis Set: 6-31G*
  Basis Set:
  Basis Set: 6-31G*
  Basis Set:
  @DF-RHF Final Energy:  -527.53229458678766
    Total Energy =                       -527.5322945867876570
  Basis Set: 6-31G*
  Basis Set:
  @DF-RHF Final Energy:  -527.53230184444237
    Total Energy =                       -527.5323018444421450
  @DF-RHF Final Energy:  -527.53230821523721
    Total Energy =                       -527.5323082152373217
  Basis Set: 6-31G*
  Basis Set:
  @DF-RHF Final Energy:  -527.53231386884022
    Total Energy =                       -527.5323138688404470
  Basis Set: 6-31G*
  Basis Set:
  Basis Set: 6-31G*
  Basis Set:
  @DF-RHF Final Energy:  -527.53231705027690
    Total Energy =                       -527.5323170502765606
  Basis Set: 6-31G*
  Basis Set:
  Basis Set: 6-31G*
  Basis Set:
  @DF-RHF Final Energy:  -527.53231849461667
    Total Energy =                       -527.5323184946167885
  Basis Set: 6-31G*
  Basis Set:
  Charge       = 0
  Multiplicity = 1
  Basis Set: 6-31G*
  Basis Set:

    Orbital Energies (a.u.)
    -----------------------

    Doubly Occupied:

       1A    -26.344551     2A    -26.340717     3A    -26.340086
       4A    -20.606440     5A    -11.503406     6A    -11.318402
       7A    -11.298359     8A    -11.217354     9A     -1.741138
      10A     -1.640305    11A     -1.635538    12A     -1.436748
      13A     -1.080704    14A     -1.015843    15A     -0.924729
      16A     -0.834880    17A     -0.830099    18A     -0.820373
      19A     -0.792561    20A     -0.718751    21A     -0.711970
      22A     -0.694138    23A     -0.674790    24A     -0.661784
      25A     -0.653861    26A     -0.641653    27A     -0.632231
      28A     -0.584552    29A     -0.563229    30A     -0.522419
      31A     -0.509798    32A     -0.353351

  @DF-RHF Final Energy:  -527.53231910061629

   => Energetics <=

    Nuclear Repulsion Energy =            414.6473240260644388
    One-Electron Energy =               -1553.0697623615242264
    Two-Electron Energy =                 610.8901192348437235
    DFT Exchange-Correlation Energy =       0.0000000000000000
    Empirical Dispersion Energy =           0.0000000000000000
    PCM Polarization Energy =               0.0000000000000000
    EFP Energy =                            0.0000000000000000
    Total Energy =                       -527.5323191006161778
    Molecular point group: c1
  Basis Set: 6-31G*
  Basis Set:

  -Total Gradient:
     Atom            X                  Y                   Z
    ------   -----------------  -----------------  -----------------
       1        0.000002496683     0.000002736249     0.000001810538
       2       -0.000005160116    -0.000000024072    -0.000008975461
       3       -0.000006071793    -0.000013370444     0.000017206890
       4        0.000002108472     0.000000702481     0.000001444874
       5        0.000032012336    -0.000004640301    -0.000008601882
       6       -0.000000058978     0.000005671010     0.000000188465
       7        0.003917578453    -0.002947177752    -0.000863214651
       8        0.002578440740    -0.002986670645     0.002515269324
       9       -0.003948429288     0.003162289158     0.000163632825
      10        0.000014362267     0.000025289688     0.000010572905
      11       -0.002587179894     0.002840176371    -0.001860705048
      12       -0.000043754291    -0.000007149132     0.000002765980
      13        0.000043655406    -0.000077832611     0.000028605242

  **** Optimization is complete! (in 10 steps) ****
    Final optimized geometry and variables:
    Molecular point group: c1

    Geometry (in Angstrom), charge = 0, multiplicity = 1:

    H           -3.761806969263     1.066215478027    -0.338606772138
    C           -3.094776546902     0.397108059830     0.169542546535
    C           -2.022543332492    -0.049676879292    -0.442450410327
    H           -3.329173761691     0.104519906343     1.175764049220
    O           -1.174940003221    -0.938420566672     0.139644927966
    H           -1.765503508175     0.236751130300    -1.448059580890
    C            0.095787754985    -1.064389911290    -0.403924340760
    C            1.021744960423     0.070090748675     0.020655901291
    H            0.048638610888    -1.062881224100    -1.487048046478
    H            0.506111068201    -1.996410289860    -0.048774625930
    F            0.697793162199     0.572253970650     1.191004115342
    F            2.273407094920    -0.354680265214     0.073808814567
    F            0.984774674853     1.068697712449    -0.854039981506

  Mulliken Charges: (a.u.)
   Center  Symbol    Alpha    Beta     Spin     Total
       1     H     0.40681  0.40681  0.00000  0.18638
       2     C     3.23116  3.23116  0.00000 -0.46232
       3     C     2.90261  2.90261  0.00000  0.19478
       4     H     0.40124  0.40124  0.00000  0.19753
       5     O     4.29873  4.29873  0.00000 -0.59747
       6     H     0.40619  0.40619  0.00000  0.18762
       7     C     3.07124  3.07124  0.00000 -0.14249
       8     C     2.45285  2.45285  0.00000  1.09429
       9     H     0.40321  0.40321  0.00000  0.19358
      10     H     0.38781  0.38781  0.00000  0.22439
      11     F     4.67202  4.67202  0.00000 -0.34404
      12     F     4.68206  4.68206  0.00000 -0.36412
      13     F     4.68407  4.68407  0.00000 -0.36813

   Total alpha = 32.00000, Total beta = 32.00000, Total charge = -0.00000
