  ==> Input File <==

--------------------------------------------------------------------------
set {
	reference rhf
	basis cc-pvtz
}

set_num_threads( 4 )
memory 2 gb

molecule MOL {
0 1

H	 1.328496	 1.411466	 0.990088
O	 0.523924	 0.917243	 1.033359
C	 0.489979	 0.078084	 0.002623
C	 -0.763662	 -0.754014	 0.000816
O	 1.364162	 0.017999	 -0.791169
C	 -2.038001	 0.074705	 -0.000833
H	 -0.712945	 -1.405886	 -0.864342
H	 -0.715137	 -1.405770	 0.866182
H	 -2.087267	 0.710831	 -0.874232
H	 -2.903419	 -0.576199	 -0.001922
H	 -2.089467	 0.710909	 0.872389

	symmetry c1
}
set optking {
	frozen_dihedral = ("
		2 3 4 7
	")
}

ee = optimize('scf')
oeprop('DIPOLE', 'QUADRUPOLE', 'MULLIKEN_CHARGES')
f=open( 'psi4out.xyz', 'w' )
f.write( "11  " )
f.write( str(ee) + "\n" )
f.write( MOL.save_string_xyz() )
f.close()
--------------------------------------------------------------------------

    Molecular point group: c1
  Charge       = 0
  Multiplicity = 1
  Basis Set: CC-PVTZ
  Basis Set:
  @DF-RHF Final Energy:  -266.95132269258096
    Total Energy =                       -266.9513226925810159
    Molecular point group: c1
  Basis Set: CC-PVTZ
  Basis Set:
  Basis Set: CC-PVTZ
  Basis Set:
  @DF-RHF Final Energy:  -266.95159337163363
    Total Energy =                       -266.9515933716337486
  Basis Set: CC-PVTZ
  Basis Set:
  Basis Set: CC-PVTZ
  Basis Set:
  @DF-RHF Final Energy:  -266.95137718766989
    Total Energy =                       -266.9513771876701185
  Basis Set: CC-PVTZ
  Basis Set:
  Basis Set: CC-PVTZ
  Basis Set:
  @DF-RHF Final Energy:  -266.95162149064919
    Total Energy =                       -266.9516214906493019
  Basis Set: CC-PVTZ
  Basis Set:
  Charge       = 0
  Multiplicity = 1
  Basis Set: CC-PVTZ
  Basis Set:

    Orbital Energies (a.u.)
    -----------------------

    Doubly Occupied:

       1A    -20.605606     2A    -20.540350     3A    -11.373667
       4A    -11.242107     5A    -11.227515     6A     -1.478452
       7A     -1.369149     8A     -1.068820     9A     -0.912903
      10A     -0.821631    11A     -0.705888    12A     -0.686453
      13A     -0.647839    14A     -0.614347    15A     -0.593604
      16A     -0.548884    17A     -0.527508    18A     -0.512370
      19A     -0.482238    20A     -0.443746

  @DF-RHF Final Energy:  -266.95162413027543

   => Energetics <=

    Nuclear Repulsion Energy =            180.4118998525908637
    One-Electron Energy =                -721.9208962867835453
    Two-Electron Energy =                 274.5573723039171909
    DFT Exchange-Correlation Energy =       0.0000000000000000
    Empirical Dispersion Energy =           0.0000000000000000
    PCM Polarization Energy =               0.0000000000000000
    EFP Energy =                            0.0000000000000000
    Total Energy =                       -266.9516241302754906
    Molecular point group: c1
  Basis Set: CC-PVTZ
  Basis Set:

  -Total Gradient:
     Atom            X                  Y                   Z
    ------   -----------------  -----------------  -----------------
       1        0.000034931524     0.000048798705     0.000033970721
       2       -0.000095448533     0.000286775877    -0.000258961098
       3        0.000188615775    -0.000485852145     0.000250506177
       4        0.000061340937    -0.000203610916     0.000103545082
       5       -0.000028131835     0.000109460287     0.000053371552
       6        0.000062268366    -0.000031017717    -0.000004966283
       7       -0.000199525234     0.000298439191    -0.000178050674
       8        0.000003490524     0.000003441705     0.000014367714
       9       -0.000029277283     0.000013560737     0.000002791399
      10       -0.000022076907    -0.000031485619    -0.000006661525
      11        0.000023812667    -0.000008510104    -0.000009913066

  **** Optimization is complete! (in 5 steps) ****
    Final optimized geometry and variables:
    Molecular point group: c1

    Geometry (in Angstrom), charge = 0, multiplicity = 1:

    H            1.412834088987     1.310378079672     0.917324067688
    O            0.606981120414     0.819085465735     0.972298152395
    C            0.553519558467    -0.017611155481    -0.060180062444
    C           -0.696609216340    -0.855718801336    -0.061939212154
    O            1.415567253494    -0.073567330310    -0.867797319744
    C           -1.980220139212    -0.025074399796    -0.067120273138
    H           -0.645659223533    -1.495059863138    -0.930073630682
    H           -0.668100451934    -1.481851205081     0.823255338680
    H           -2.024780488608     0.617359285891    -0.938607993306
    H           -2.841282671772    -0.680554107661    -0.092788287254
    H           -2.050435677957     0.594960754799     0.815629331386

  Mulliken Charges: (a.u.)
   Center  Symbol    Alpha    Beta     Spin     Total
       1     H     0.38038  0.38038  0.00000  0.23924
       2     O     4.16344  4.16344  0.00000 -0.32688
       3     C     2.80222  2.80222  0.00000  0.39556
       4     C     3.09040  3.09040  0.00000 -0.18080
       5     O     4.19315  4.19315  0.00000 -0.38629
       6     C     3.14802  3.14802  0.00000 -0.29604
       7     H     0.43504  0.43504  0.00000  0.12992
       8     H     0.44554  0.44554  0.00000  0.10893
       9     H     0.44977  0.44977  0.00000  0.10045
      10     H     0.44719  0.44719  0.00000  0.10561
      11     H     0.44486  0.44486  0.00000  0.11029

   Total alpha = 20.00000, Total beta = 20.00000, Total charge = -0.00000
