  ==> Input File <==

--------------------------------------------------------------------------
set {
	reference rhf
	basis cc-pvtz
}

set_num_threads( 4 )
memory 2 gb

molecule MOL {
0 1

H	 2.867672	 -0.456275	 0.875795
C	 2.403497	 -0.020426	 0.000000
N	 0.989899	 -0.304564	 0.000000
H	 2.867672	 -0.456275	 -0.875795
H	 2.620366	 1.051270	 0.000000
C	 0.357164	 0.035172	 -1.257693
C	 0.298797	 0.325550	 1.105849
H	 0.451396	 1.103267	 -1.476872
H	 0.843211	 -0.508302	 -2.059642
C	 -1.112857	 -0.335868	 -1.217569
H	 0.742019	 -0.004865	 2.038109
H	 0.388639	 1.415485	 1.064444
C	 -1.169724	 -0.052952	 1.085244
H	 -1.612853	 -0.002593	 -2.116212
H	 -1.213166	 -1.417144	 -1.147721
O	 -1.757924	 0.273632	 -0.138892
H	 -1.710826	 0.484826	 1.851163
H	 -1.272976	 -1.119588	 1.274256

	symmetry c1
}
set optking {
	frozen_dihedral = ("
		6 3 2 5
	")
}

ee = optimize('scf')
oeprop('DIPOLE', 'QUADRUPOLE', 'MULLIKEN_CHARGES')
f=open( 'psi4out.xyz', 'w' )
f.write( "18  " )
f.write( str(ee) + "\n" )
f.write( MOL.save_string_xyz() )
f.close()
--------------------------------------------------------------------------

    Molecular point group: c1
  Charge       = 0
  Multiplicity = 1
  Basis Set: CC-PVTZ
  Basis Set:
  @DF-RHF Final Energy:  -325.14562293281540
    Total Energy =                       -325.1456229328152290
    Molecular point group: c1
  Basis Set: CC-PVTZ
  Basis Set:
  Basis Set: CC-PVTZ
  Basis Set:
  @DF-RHF Final Energy:  -325.14565157751002
    Total Energy =                       -325.1456515775099092
  Basis Set: CC-PVTZ
  Basis Set:
  Charge       = 0
  Multiplicity = 1
  Basis Set: CC-PVTZ
  Basis Set:

    Orbital Energies (a.u.)
    -----------------------

    Doubly Occupied:

       1A    -20.547647     2A    -15.544059     3A    -11.264423
       4A    -11.264361     5A    -11.242587     6A    -11.242572
       7A    -11.239221     8A     -1.386559     9A     -1.234081
      10A     -1.039363    11A     -0.982208    12A     -0.884311
      13A     -0.869544    14A     -0.774341    15A     -0.685193
      16A     -0.646908    17A     -0.645487    18A     -0.635517
      19A     -0.630840    20A     -0.574226    21A     -0.557339
      22A     -0.540719    23A     -0.527564    24A     -0.501735
      25A     -0.485855    26A     -0.454140    27A     -0.410839
      28A     -0.354609

  @DF-RHF Final Energy:  -325.14565381759809

   => Energetics <=

    Nuclear Repulsion Energy =            341.9338113533476076
    One-Electron Energy =               -1119.8264354522057147
    Two-Electron Energy =                 452.7469702812603600
    DFT Exchange-Correlation Energy =       0.0000000000000000
    Empirical Dispersion Energy =           0.0000000000000000
    PCM Polarization Energy =               0.0000000000000000
    EFP Energy =                            0.0000000000000000
    Total Energy =                       -325.1456538175976902
    Molecular point group: c1
  Basis Set: CC-PVTZ
  Basis Set:

  -Total Gradient:
     Atom            X                  Y                   Z
    ------   -----------------  -----------------  -----------------
       1       -0.000047697425     0.000007058318     0.000007629615
       2        0.000168623036    -0.000352127710    -0.002275087768
       3       -0.000328075106     0.001373742864     0.001002166427
       4       -0.000020207022    -0.000032326594     0.000010082065
       5       -0.000014580522    -0.000008715087     0.001626360820
       6        0.000172727484    -0.000970287611    -0.000512360541
       7       -0.000050574222     0.000101971422     0.000027146188
       8        0.000022172790     0.000005070959     0.000010550073
       9        0.000005792359    -0.000020699471     0.000047658859
      10        0.000071529691    -0.000067859744     0.000101490774
      11        0.000023587962    -0.000025445701    -0.000021891524
      12       -0.000007047838    -0.000017904670     0.000009981638
      13        0.000027411691     0.000006155304    -0.000031650211
      14        0.000023109048     0.000011694245     0.000006442978
      15       -0.000027702545    -0.000019324201    -0.000002343790
      16       -0.000020916456     0.000004267752    -0.000005660809
      17        0.000002045455     0.000002452732     0.000008059659
      18       -0.000000198382     0.000002277194    -0.000008574454

  **** Optimization is complete! (in 3 steps) ****
    Final optimized geometry and variables:
    Molecular point group: c1

    Geometry (in Angstrom), charge = 0, multiplicity = 1:

    H            2.857433997362    -0.445460017469     0.949026410448
    C            2.403779230322    -0.018705607782     0.062469210117
    N            0.988520382252    -0.292973261429     0.057377259187
    H            2.872350856784    -0.470084891221    -0.802374582488
    H            2.628953996518     1.051269670701     0.058659642191
    C            0.354389836933     0.042070175038    -1.200337242865
    C            0.298955974132     0.328551746908     1.167635773482
    H            0.444950608767     1.109563344740    -1.424982632472
    H            0.839615252840    -0.504239550057    -2.000671391186
    C           -1.114766851356    -0.332630010101    -1.155207597469
    H            0.745682807013    -0.005860673300     2.097113713411
    H            0.386640785934     1.418938259858     1.132212394015
    C           -1.168888394670    -0.052746880429     1.148040484482
    H           -1.618238829328    -0.001369963967    -2.052721479647
    H           -1.211613619727    -1.414275404804    -1.084575894433
    O           -1.758595149990     0.275238945833    -0.074905743551
    H           -1.710105070796     0.482369557411     1.915843561834
    H           -1.269910357742    -1.120009674272     1.334957226937

  Mulliken Charges: (a.u.)
   Center  Symbol    Alpha    Beta     Spin     Total
       1     H     0.45122  0.45122  0.00000  0.09755
       2     C     3.09482  3.09482  0.00000 -0.18963
       3     N     3.61699  3.61699  0.00000 -0.23399
       4     H     0.45201  0.45201  0.00000  0.09598
       5     H     0.46934  0.46934  0.00000  0.06131
       6     C     3.04014  3.04014  0.00000 -0.08028
       7     C     3.04116  3.04116  0.00000 -0.08231
       8     H     0.46942  0.46942  0.00000  0.06115
       9     H     0.45391  0.45391  0.00000  0.09217
      10     C     2.98366  2.98366  0.00000  0.03267
      11     H     0.45417  0.45417  0.00000  0.09165
      12     H     0.46853  0.46853  0.00000  0.06293
      13     C     2.98336  2.98336  0.00000  0.03328
      14     H     0.44975  0.44975  0.00000  0.10050
      15     H     0.46765  0.46765  0.00000  0.06470
      16     O     4.18647  4.18647  0.00000 -0.37293
      17     H     0.44979  0.44979  0.00000  0.10043
      18     H     0.46759  0.46759  0.00000  0.06482

   Total alpha = 28.00000, Total beta = 28.00000, Total charge = -0.00000
