                              Psi4 1.0.54 Driver

  ==> Input File <==

--------------------------------------------------------------------------
set {
	reference rhf
	basis cc-pvtz
}

set_num_threads( 4 )
memory 2 gb

molecule MOL {
0 1

O	 3.219313	 0.959291	 -0.614106
C	 2.698710	 0.058177	 -0.050237
C	 1.246364	 -0.005813	 0.348416
O	 3.344101	 -1.038700	 0.312317
C	 0.453207	 1.232821	 -0.049003
H	 0.839270	 -0.907818	 -0.092281
H	 1.216683	 -0.160521	 1.422434
C	 -0.998367	 1.217982	 0.432195
H	 0.481498	 1.345443	 -1.127236
H	 0.951413	 2.105557	 0.354893
C	 -1.882951	 0.151251	 -0.211235
H	 -1.429490	 2.193659	 0.228843
H	 -1.019755	 1.099323	 1.513279
C	 -3.342450	 0.243269	 0.226009
H	 -1.826223	 0.246578	 -1.293162
H	 -1.508033	 -0.839650	 0.027695
C	 -4.234517	 -0.821434	 -0.405970
H	 -3.730149	 1.228245	 -0.022691
H	 -3.398860	 0.159952	 1.308941
C	 -5.380224	 -1.259144	 0.500420
H	 -4.639709	 -0.441539	 -1.339897
H	 -3.631245	 -1.686979	 -0.666263
H	 -5.993089	 -2.014678	 0.022353
H	 -6.023114	 -0.421737	 0.750523
H	 -5.006645	 -1.676058	 1.429844
C	 4.720529	 -1.114346	 0.001449
H	 4.874321	 -1.055557	 -1.065852
H	 5.057824	 -2.067950	 0.373977
H	 5.264321	 -0.313596	 0.480350

	symmetry c1
}
set optking {
	frozen_dihedral = ("
		21 17 14 11
	")
}

ee,wfn = optimize('scf', return_wfn=True)
oeprop( wfn, 'DIPOLE', 'QUADRUPOLE', 'MULLIKEN_CHARGES')
f=open( 'psi4out.xyz', 'w' )
f.write( "29  " )
f.write( str(ee) + "\n" )
f.write( MOL.save_string_xyz() )
f.close()
--------------------------------------------------------------------------

    Molecular point group: c1
  Charge       = 0
  Multiplicity = 1
  Basis Set: CC-PVTZ
  Basis Set:
  @DF-RHF Final Energy:  -501.22173234010540
    Total Energy =                       -501.2217323401058593
    Molecular point group: c1
  Basis Set: CC-PVTZ
  Basis Set:
  Basis Set: CC-PVTZ
  Basis Set:
  @DF-RHF Final Energy:  -501.22193712778949
    Total Energy =                       -501.2219371277890332
  Basis Set: CC-PVTZ
  Basis Set:
  Basis Set: CC-PVTZ
  Basis Set:
  @DF-RHF Final Energy:  -501.22202274048664
    Total Energy =                       -501.2220227404866364
  Basis Set: CC-PVTZ
  Basis Set:
  Basis Set: CC-PVTZ
  Basis Set:
  @DF-RHF Final Energy:  -501.22171653179578
    Total Energy =                       -501.2217165317957779
  Basis Set: CC-PVTZ
  Basis Set:
  Basis Set: CC-PVTZ
  Basis Set:
  @DF-RHF Final Energy:  -501.22203151464055
    Total Energy =                       -501.2220315146407756
  Basis Set: CC-PVTZ
  Basis Set:
  Charge       = 0
  Multiplicity = 1
  Basis Set: CC-PVTZ
  Basis Set:

    Orbital Energies (a.u.)
    -----------------------

    Doubly Occupied:

       1A    -20.596038     2A    -20.533884     3A    -11.364298
       4A    -11.278285     5A    -11.232992     6A    -11.217081
       7A    -11.215453     8A    -11.213997     9A    -11.213867
      10A    -11.212253    11A    -11.207236    12A     -1.471896
      13A     -1.365516    14A     -1.099010    15A     -1.067149
      16A     -1.020456    17A     -0.978139    18A     -0.928926
      19A     -0.862079    20A     -0.800258    21A     -0.790884
      22A     -0.765689    23A     -0.703043    24A     -0.685515
      25A     -0.676014    26A     -0.650677    27A     -0.627055
      28A     -0.608204    29A     -0.596630    30A     -0.583540
      31A     -0.566133    32A     -0.550830    33A     -0.533643
      34A     -0.531830    35A     -0.517702    36A     -0.508196
      37A     -0.500786    38A     -0.477265    39A     -0.471234
      40A     -0.461614    41A     -0.459264    42A     -0.458326
      43A     -0.443379    44A     -0.436857

  @DF-RHF Final Energy:  -501.22203113357796

   => Energetics <=

    Nuclear Repulsion Energy =            611.7455060641409545
    One-Electron Energy =               -1894.9688281179876412
    Two-Electron Energy =                 782.0012909202685023
    DFT Exchange-Correlation Energy =       0.0000000000000000
    Empirical Dispersion Energy =           0.0000000000000000
    PCM Polarization Energy =               0.0000000000000000
    EFP Energy =                            0.0000000000000000
    Total Energy =                       -501.2220311335781844
    Molecular point group: c1
  Basis Set: CC-PVTZ
  Basis Set:

  -Total Gradient:
     Atom            X                  Y                   Z
    ------   -----------------  -----------------  -----------------
       1       -0.000038978519     0.000045629612    -0.000103542463
       2        0.000056874744     0.000073079052     0.000186358225
       3       -0.000017353811    -0.000042245842    -0.000068101731
       4       -0.000023368623    -0.000095690269    -0.000019242961
       5        0.000022553758     0.000035654939     0.000046125759
       6       -0.000049802704    -0.000049904127    -0.000003664712
       7        0.000021874563     0.000011335765    -0.000009032573
       8       -0.000016959949     0.000033707232    -0.000044665743
       9        0.000002032870     0.000022196325    -0.000018603656
      10        0.000021430278    -0.000004955532     0.000014139518
      11        0.000628354233    -0.002007618587     0.002380295747
      12       -0.000018948975     0.000001994119    -0.000012115133
      13       -0.000005603506     0.000015920632     0.000003397540
      14       -0.001621017468     0.003138723186    -0.002784639093
      15        0.000006748351     0.000013302854     0.000011763316
      16        0.000037812682    -0.000051450291    -0.000007972267
      17        0.004396253111    -0.002692644522    -0.001738280030
      18       -0.000009060725     0.000024089480    -0.000013978280
      19        0.000003921352     0.000001739319     0.000035402130
      20        0.000030327468     0.000002188790    -0.000040594482
      21       -0.003396373243     0.001539959789     0.002164302698
      22        0.000010070010    -0.000012003055     0.000000853587
      23       -0.000024267078    -0.000023246153    -0.000011715163
      24       -0.000015008888     0.000024808271     0.000009505825
      25        0.000010712548    -0.000010999581     0.000027663056
      26       -0.000011285028     0.000019175639    -0.000013718772
      27        0.000003147185    -0.000003815589    -0.000005097499
      28       -0.000008202206    -0.000014231710     0.000008080824
      29        0.000004117577     0.000005300258     0.000007076334

  **** Optimization is complete! (in 6 steps) ****
    Final optimized geometry and variables:
    Molecular point group: c1

    Geometry (in Angstrom), charge = 0, multiplicity = 1:

    O            3.194143270840     1.005860724085    -0.656326701214
    C            2.672644701225     0.112070729837    -0.081688043437
    C            1.219037840699     0.051985829207     0.312971414164
    O            3.317535721639    -0.979820981834     0.296645084543
    C            0.426155518354     1.284738476023    -0.103028219926
    H            0.814235977330    -0.856073519145    -0.117416529915
    H            1.185914992014    -0.088892975548     1.388789894797
    C           -1.027844863911     1.273306923118     0.371090370334
    H            0.459591162175     1.384577857709    -1.182391193016
    H            0.921186246370     2.162931461547     0.292935414922
    C           -1.906166914513     0.194612719768    -0.260101325194
    H           -1.460638186496     2.244583751517     0.151043553279
    H           -1.054389196400     1.170859588470     1.453852319674
    C           -3.364350626598     0.273891665360     0.186179983678
    H           -1.852147521301     0.280531149358    -1.343541754164
    H           -1.525748859922    -0.791971194661    -0.013708422317
    C           -4.267677035006    -0.776618133460    -0.473050748050
    H           -3.757813124959     1.267518722668    -0.006600288285
    H           -3.395415040707     0.143314502021     1.265285127647
    C           -5.436434058233    -1.197404137286     0.415055041409
    H           -4.678441723616    -0.371941168924    -1.392986997963
    H           -3.686479314786    -1.653407819057    -0.739331424431
    H           -6.083342023978    -1.903406286269    -0.093455142570
    H           -6.039945707850    -0.340643535858     0.697239681467
    H           -5.085135743286    -1.666564326302     1.328080572071
    C            4.694822821198    -1.058837616542    -0.009555292819
    H            4.851463307458    -1.013649948658    -1.077114062290
    H            5.031492042760    -2.007485458267     0.376041982541
    H            5.237043054742    -0.251810434061     0.460550893019

  Mulliken Charges: (a.u.)
   Center  Symbol    Alpha    Beta     Spin     Total
       1     O     4.19696  4.19696  0.00000 -0.39392
       2     C     2.80482  2.80482  0.00000  0.39037
       3     C     3.10176  3.10176  0.00000 -0.20351
       4     O     4.14724  4.14724  0.00000 -0.29447
       5     C     3.09241  3.09241  0.00000 -0.18483
       6     H     0.43916  0.43916  0.00000  0.12169
       7     H     0.43992  0.43992  0.00000  0.12017
       8     C     3.10433  3.10433  0.00000 -0.20865
       9     H     0.44620  0.44620  0.00000  0.10761
      10     H     0.43963  0.43963  0.00000  0.12073
      11     C     3.09314  3.09314  0.00000 -0.18628
      12     H     0.44523  0.44523  0.00000  0.10954
      13     H     0.45347  0.45347  0.00000  0.09307
      14     C     3.08906  3.08906  0.00000 -0.17811
      15     H     0.45227  0.45227  0.00000  0.09546
      16     H     0.45377  0.45377  0.00000  0.09245
      17     C     3.08492  3.08492  0.00000 -0.16985
      18     H     0.45141  0.45141  0.00000  0.09719
      19     H     0.45609  0.45609  0.00000  0.08782
      20     C     3.14866  3.14866  0.00000 -0.29732
      21     H     0.45275  0.45275  0.00000  0.09451
      22     H     0.45494  0.45494  0.00000  0.09013
      23     H     0.44924  0.44924  0.00000  0.10151
      24     H     0.45452  0.45452  0.00000  0.09097
      25     H     0.45613  0.45613  0.00000  0.08773
      26     C     3.03814  3.03814  0.00000 -0.07627
      27     H     0.45434  0.45434  0.00000  0.09132
      28     H     0.44528  0.44528  0.00000  0.10944
      29     H     0.45423  0.45423  0.00000  0.09154

   Total alpha = 44.00000, Total beta = 44.00000, Total charge =  0.00000

*** Psi4 exiting successfully. Buy a developer a beer!
