                              Psi4 1.0.54 Driver

  ==> Input File <==

--------------------------------------------------------------------------
set {
	reference rhf
	basis cc-pvtz
}

set_num_threads( 4 )
memory 2 gb

molecule MOL {
0 1

H	 2.656265	 -0.390542	 0.933404
N	 1.680522	 -0.189020	 0.948374
C	 0.907934	 -1.407795	 1.080803
C	 1.294454	 0.561039	 -0.229848
H	 1.208923	 -1.921383	 1.985781
H	 1.061344	 -2.088765	 0.241538
C	 -0.567949	 -1.062370	 1.161575
H	 1.875524	 1.474114	 -0.274597
H	 1.472284	 0.004460	 -1.151920
C	 -0.181936	 0.903884	 -0.147358
H	 -0.753607	 -0.510005	 2.087325
H	 -1.151132	 -1.974754	 1.201246
N	 -0.976577	 -0.298712	 -0.000000
H	 -0.486006	 1.413226	 -1.054128
H	 -0.341001	 1.591708	 0.688218
C	 -2.391156	 -0.021003	 -0.000000
H	 -2.853954	 -0.458728	 -0.875714
H	 -2.853954	 -0.458728	 0.875714
H	 -2.614037	 1.049773	 -0.000000

	symmetry c1
}
set optking {
	frozen_dihedral = ("
		7 13 16 19
	")
}

ee,wfn = optimize('scf', return_wfn=True)
oeprop( wfn, 'DIPOLE', 'QUADRUPOLE', 'MULLIKEN_CHARGES')
f=open( 'psi4out.xyz', 'w' )
f.write( "19  " )
f.write( str(ee) + "\n" )
f.write( MOL.save_string_xyz() )
f.close()
--------------------------------------------------------------------------

    Molecular point group: c1
  Charge       = 0
  Multiplicity = 1
  Basis Set: CC-PVTZ
  Basis Set:
  @DF-RHF Final Energy:  -305.30232443359540
    Total Energy =                       -305.3023244335955155
    Molecular point group: c1
  Basis Set: CC-PVTZ
  Basis Set:
  Basis Set: CC-PVTZ
  Basis Set:
  @DF-RHF Final Energy:  -305.30290624375732
    Total Energy =                       -305.3029062437572065
  Basis Set: CC-PVTZ
  Basis Set:
  Basis Set: CC-PVTZ
  Basis Set:
  @DF-RHF Final Energy:  -305.30303507317507
    Total Energy =                       -305.3030350731747831
  Basis Set: CC-PVTZ
  Basis Set:
  Basis Set: CC-PVTZ
  Basis Set:
  @DF-RHF Final Energy:  -305.30304000727926
    Total Energy =                       -305.3030400072793782
  Basis Set: CC-PVTZ
  Basis Set:
  Charge       = 0
  Multiplicity = 1
  Basis Set: CC-PVTZ
  Basis Set:

    Orbital Energies (a.u.)
    -----------------------

    Doubly Occupied:

       1A    -15.532583     2A    -15.530624     3A    -11.236473
       4A    -11.236451     5A    -11.235653     6A    -11.235628
       7A    -11.232936     8A     -1.246023     9A     -1.184973
      10A     -1.023605    11A     -0.964938    12A     -0.861290
      13A     -0.859071    14A     -0.756394    15A     -0.691805
      16A     -0.632085    17A     -0.624306    18A     -0.605945
      19A     -0.605403    20A     -0.582062    21A     -0.544398
      22A     -0.534914    23A     -0.512703    24A     -0.488297
      25A     -0.467701    26A     -0.457322    27A     -0.365415
      28A     -0.340248

  @DF-RHF Final Energy:  -305.30304066692645

   => Energetics <=

    Nuclear Repulsion Energy =            339.6991458935996206
    One-Electron Energy =               -1086.8258868790944689
    Two-Electron Energy =                 441.8237003185683989
    DFT Exchange-Correlation Energy =       0.0000000000000000
    Empirical Dispersion Energy =           0.0000000000000000
    PCM Polarization Energy =               0.0000000000000000
    EFP Energy =                            0.0000000000000000
    Total Energy =                       -305.3030406669264494
    Molecular point group: c1
  Basis Set: CC-PVTZ
  Basis Set:

  -Total Gradient:
     Atom            X                  Y                   Z
    ------   -----------------  -----------------  -----------------
       1        0.000002846144    -0.000000150234    -0.000001334221
       2       -0.000012856414     0.000006070654     0.000003252749
       3        0.000008858406    -0.000009758660     0.000025076292
       4        0.000013934036     0.000001757201    -0.000010754625
       5        0.000018552471    -0.000004326228     0.000003556352
       6       -0.000012789948     0.000004356906     0.000004938370
       7       -0.000152990035    -0.000784179086    -0.000511639676
       8        0.000010174700    -0.000001132977     0.000002350845
       9       -0.000004649158     0.000004014716    -0.000003970908
      10       -0.000025176728     0.000001083881     0.000004196387
      11        0.000005109409    -0.000003409815    -0.000005834841
      12        0.000004819634     0.000002098837     0.000005128231
      13        0.000227798326     0.001091486527     0.000337990527
      14        0.000005608929     0.000001516133     0.000003114505
      15       -0.000004053459    -0.000003205007    -0.000001022309
      16       -0.000168067229    -0.000328755095     0.001335414107
      17        0.000018845745    -0.000002542556     0.000020802527
      18        0.000008662882    -0.000004924568     0.000002780341
      19        0.000055372291     0.000029999369    -0.001214044653

  **** Optimization is complete! (in 5 steps) ****
    Final optimized geometry and variables:
    Molecular point group: c1

    Geometry (in Angstrom), charge = 0, multiplicity = 1:

    H            2.704676993130    -0.233578555171     0.490756122734
    N            1.733638553796    -0.011797227761     0.521756979926
    C            0.938191739153    -1.214782173826     0.661074171134
    C            1.345128461700     0.750339284917    -0.647624668530
    H            1.247197318218    -1.742732511488     1.555214984348
    H            1.059526163574    -1.891210014070    -0.187310845157
    C           -0.528647189125    -0.840465498162     0.775538119952
    H            1.948194634755     1.648697718400    -0.702002306101
    H            1.491791278202     0.190771129181    -1.573573716169
    C           -0.120509880645     1.130230687242    -0.537932865921
    H           -0.684885819822    -0.305429280561     1.717041961463
    H           -1.125598889705    -1.743842215379     0.808183002298
    N           -0.940693389569    -0.049528704148    -0.364879333861
    H           -0.426697774950     1.638778701368    -1.444486077940
    H           -0.244270917217     1.831476958235     0.292653131312
    C           -2.366664430289     0.222452629198    -0.408427943512
    H           -2.814224380102    -0.176601847410    -1.312908111494
    H           -2.879089103733    -0.221526713694     0.437201264916
    H           -2.572309877461     1.288432709699    -0.386666798369

  Mulliken Charges: (a.u.)
   Center  Symbol    Alpha    Beta     Spin     Total
       1     H     0.43995  0.43995  0.00000  0.12010
       2     N     3.64275  3.64275  0.00000 -0.28549
       3     C     3.04199  3.04199  0.00000 -0.08398
       4     C     3.04204  3.04204  0.00000 -0.08409
       5     H     0.45274  0.45274  0.00000  0.09451
       6     H     0.46624  0.46624  0.00000  0.06751
       7     C     3.03451  3.03451  0.00000 -0.06903
       8     H     0.45275  0.45275  0.00000  0.09450
       9     H     0.46621  0.46621  0.00000  0.06758
      10     C     3.03470  3.03470  0.00000 -0.06940
      11     H     0.46896  0.46896  0.00000  0.06208
      12     H     0.45382  0.45382  0.00000  0.09235
      13     N     3.61683  3.61683  0.00000 -0.23366
      14     H     0.45374  0.45374  0.00000  0.09253
      15     H     0.46885  0.46885  0.00000  0.06230
      16     C     3.09136  3.09136  0.00000 -0.18271
      17     H     0.45059  0.45059  0.00000  0.09882
      18     H     0.45988  0.45988  0.00000  0.08024
      19     H     0.46208  0.46208  0.00000  0.07584

   Total alpha = 28.00000, Total beta = 28.00000, Total charge =  0.00000

*** Psi4 exiting successfully. Buy a developer a beer!
