  ==> Input File <==

--------------------------------------------------------------------------
set {
	reference rhf
	basis 6-31G*
}

set_num_threads( 4 )
memory 2 gb

molecule MOL {
0 1

H	 0.561880	 -1.127418	 1.244033
C	 -0.457198	 -1.008962	 0.890776
N	 -0.528168	 0.128977	 -0.000000
H	 -1.088016	 -0.835163	 1.755009
H	 -0.760601	 -1.952132	 0.428560
C	 0.248044	 -0.037491	 -1.209632
H	 -1.482745	 0.316455	 -0.233801
H	 0.998722	 0.743888	 -1.266824
H	 -0.398417	 0.061950	 -2.074060
H	 0.763621	 -0.999315	 -1.275517

	symmetry c1
}
set optking {
	frozen_dihedral = ("
		2 3 6 8
	")
}

ee = optimize('scf')
oeprop('DIPOLE', 'QUADRUPOLE', 'MULLIKEN_CHARGES')
f=open( 'psi4out.xyz', 'w' )
f.write( "10  " )
f.write( str(ee) + "\n" )
f.write( MOL.save_string_xyz() )
f.close()
--------------------------------------------------------------------------

    Molecular point group: c1
  Charge       = 0
  Multiplicity = 1
  Basis Set: 6-31G*
  Basis Set:
  @DF-RHF Final Energy:  -134.23271584705498
    Total Energy =                       -134.2327158470550046
    Molecular point group: c1
  Basis Set: 6-31G*
  Basis Set:
  Basis Set: 6-31G*
  Basis Set:
  @DF-RHF Final Energy:  -134.23332668851342
    Total Energy =                       -134.2333266885133867
  Basis Set: 6-31G*
  Basis Set:
  Basis Set: 6-31G*
  Basis Set:
  @DF-RHF Final Energy:  -134.23344468522998
    Total Energy =                       -134.2334446852298413
  Basis Set: 6-31G*
  Basis Set:
  Basis Set: 6-31G*
  Basis Set:
  @DF-RHF Final Energy:  -134.23344898719546
    Total Energy =                       -134.2334489871954588
  Basis Set: 6-31G*
  Basis Set:
  Charge       = 0
  Multiplicity = 1
  Basis Set: 6-31G*
  Basis Set:

    Orbital Energies (a.u.)
    -----------------------

    Doubly Occupied:

       1A    -15.534512     2A    -11.236058     3A    -11.235682
       4A     -1.194136     5A     -0.947644     6A     -0.854463
       7A     -0.659414     8A     -0.609185     9A     -0.587731
      10A     -0.545608    11A     -0.510198    12A     -0.505988
      13A     -0.355404

  @DF-RHF Final Energy:  -134.23344973350720

   => Energetics <=

    Nuclear Repulsion Energy =             84.3565323316559130
    One-Electron Energy =                -347.6279158012927155
    Two-Electron Energy =                 129.0379337361295882
    DFT Exchange-Correlation Energy =       0.0000000000000000
    Empirical Dispersion Energy =           0.0000000000000000
    PCM Polarization Energy =               0.0000000000000000
    EFP Energy =                            0.0000000000000000
    Total Energy =                       -134.2334497335072285
    Molecular point group: c1
  Basis Set: 6-31G*
  Basis Set:

  -Total Gradient:
     Atom            X                  Y                   Z
    ------   -----------------  -----------------  -----------------
       1       -0.000001432693     0.000003974448    -0.000005723052
       2       -0.000433798808    -0.000247376430    -0.000212566945
       3        0.000461255737     0.000457095366     0.000262896009
       4        0.000003459104    -0.000016448088     0.000012030809
       5        0.000003687666     0.000019413033    -0.000002762017
       6        0.000472720674    -0.000594947935     0.000238332302
       7        0.000000078910    -0.000003312558    -0.000016366002
       8       -0.000478031593     0.000387397725    -0.000310664491
       9       -0.000019152290    -0.000002620410     0.000030089319
      10       -0.000008786707    -0.000003175153     0.000004734067

  **** Optimization is complete! (in 5 steps) ****
    Final optimized geometry and variables:
    Molecular point group: c1

    Geometry (in Angstrom), charge = 0, multiplicity = 1:

    H            0.805890542573    -0.817391707218     1.375082886442
    C           -0.210016169215    -0.694054690384     1.015418096484
    N           -0.274740389097     0.440480522508     0.119917973887
    H           -0.841303555260    -0.509053353579     1.877215389431
    H           -0.520037167951    -1.638996634160     0.561867799837
    C            0.501100332399     0.306382121434    -1.105419108884
    H           -1.227051653807     0.651144509350    -0.092328058296
    H            1.251824303676     1.087196857865    -1.179022762968
    H           -0.129155533687     0.374439226768    -1.987746689342
    H            1.011282999862    -0.651578701273    -1.149624261751

  Mulliken Charges: (a.u.)
   Center  Symbol    Alpha    Beta     Spin     Total
       1     H     0.41771  0.41771  0.00000  0.16457
       2     C     3.14316  3.14316  0.00000 -0.28632
       3     N     3.84592  3.84592  0.00000 -0.69184
       4     H     0.41808  0.41808  0.00000  0.16384
       5     H     0.43491  0.43491  0.00000  0.13017
       6     C     3.14404  3.14404  0.00000 -0.28807
       7     H     0.33050  0.33050  0.00000  0.33900
       8     H     0.41663  0.41663  0.00000  0.16675
       9     H     0.42543  0.42543  0.00000  0.14915
      10     H     0.42362  0.42362  0.00000  0.15276

   Total alpha = 13.00000, Total beta = 13.00000, Total charge =  0.00000
