                              Psi4 1.0.54 Driver

  ==> Input File <==

--------------------------------------------------------------------------
set {
	reference rhf
	basis cc-pvtz
}

set_num_threads( 4 )
memory 2 gb

molecule MOL {
0 1

H	 -3.162190	 0.493205	 -0.000107
C	 -2.363908	 -0.234727	 0.000005
O	 -1.158738	 0.454634	 -0.000087
H	 -2.464314	 -0.863616	 -0.882153
H	 -2.464327	 -0.863359	 0.882345
C	 -0.028611	 -0.359694	 0.000037
C	 1.212704	 0.509119	 0.026353
H	 -0.024637	 -0.993839	 -0.886801
H	 -0.043608	 -1.019901	 0.867530
C	 2.497740	 -0.311264	 0.028077
H	 1.191385	 1.168135	 -0.834559
H	 1.172585	 1.142233	 0.905847
H	 2.569835	 -0.934961	 -0.856735
H	 3.367682	 0.333613	 0.046923
H	 2.551051	 -0.960807	 0.895441

	symmetry c1
}
set optking {
	frozen_dihedral = ("
		8 6 3 2
	")
}

ee,wfn = optimize('scf', return_wfn=True)
oeprop( wfn, 'DIPOLE', 'QUADRUPOLE', 'MULLIKEN_CHARGES')
f=open( 'psi4out.xyz', 'w' )
f.write( "15  " )
f.write( str(ee) + "\n" )
f.write( MOL.save_string_xyz() )
f.close()
--------------------------------------------------------------------------

    Molecular point group: c1
  Charge       = 0
  Multiplicity = 1
  Basis Set: CC-PVTZ
  Basis Set:
  @DF-RHF Final Energy:  -232.22822048532799
    Total Energy =                       -232.2282204853280518
    Molecular point group: c1
  Basis Set: CC-PVTZ
  Basis Set:
  Charge       = 0
  Multiplicity = 1
  Basis Set: CC-PVTZ
  Basis Set:

    Orbital Energies (a.u.)
    -----------------------

    Doubly Occupied:

       1A    -20.547602     2A    -11.264439     3A    -11.261820
       4A    -11.212795     5A    -11.210759     6A     -1.381861
       7A     -1.058468     8A     -0.956168     9A     -0.877367
      10A     -0.809537    11A     -0.677239    12A     -0.655959
      13A     -0.632307    14A     -0.608524    15A     -0.565249
      16A     -0.540922    17A     -0.503749    18A     -0.490435
      19A     -0.478386    20A     -0.462884    21A     -0.416851

  @DF-RHF Final Energy:  -232.22822074236586

   => Energetics <=

    Nuclear Repulsion Energy =            189.9986770380798475
    One-Electron Energy =                -691.2271605553364680
    Two-Electron Energy =                 269.0002627748907571
    DFT Exchange-Correlation Energy =       0.0000000000000000
    Empirical Dispersion Energy =           0.0000000000000000
    PCM Polarization Energy =               0.0000000000000000
    EFP Energy =                            0.0000000000000000
    Total Energy =                       -232.2282207423658633
    Molecular point group: c1
  Basis Set: CC-PVTZ
  Basis Set:

  -Total Gradient:
     Atom            X                  Y                   Z
    ------   -----------------  -----------------  -----------------
       1       -0.000025625728    -0.000007532354     0.000003995841
       2       -0.000083649553     0.000001026593     0.000100613405
       3        0.000032555614     0.000054007839    -0.000217623715
       4        0.000008675558     0.000002383797     0.000008590266
       5        0.000025398816     0.000011206393    -0.000003989215
       6       -0.000050417085    -0.000140295709     0.000219425349
       7       -0.000011286390    -0.000027889209    -0.000010797718
       8        0.000075010901     0.000124642338    -0.000083922962
       9        0.000015978128    -0.000025088136     0.000005542750
      10        0.000010233782     0.000009498003    -0.000011577394
      11        0.000016844751     0.000007753238    -0.000002741546
      12       -0.000019240242    -0.000009422015    -0.000001714399
      13        0.000004183788    -0.000004967148    -0.000001429461
      14        0.000008681929    -0.000000259171    -0.000003267928
      15       -0.000007344271     0.000004935543    -0.000001103272

  **** Optimization is complete! (in 2 steps) ****
    Final optimized geometry and variables:
    Molecular point group: c1

    Geometry (in Angstrom), charge = 0, multiplicity = 1:

    H           -3.162671906860     0.493449921079    -0.013817614530
    C           -2.364122297004    -0.234323649404    -0.011671196419
    O           -1.158713431343     0.454444532362    -0.010709456586
    H           -2.463441406370    -0.864510606345    -0.893133019243
    H           -2.465694127911    -0.862013774805     0.871249012684
    C           -0.028556285002    -0.359776372569    -0.009107277959
    C            1.212803756996     0.509191685692     0.016471215307
    H           -0.023818822010    -0.994155960317    -0.895871756487
    H           -0.043422307520    -1.019372467918     0.858895932556
    C            2.498020659651    -0.311061764759     0.016212785294
    H            1.190678343415     1.168763910049    -0.844082935931
    H            1.173581215027     1.141851583641     0.896388723069
    H            2.569170779852    -0.934222204358    -0.869108812538
    H            3.368087504416     0.333805078424     0.034554750604
    H            2.552217107792    -0.961211833349     0.883135506385

  Mulliken Charges: (a.u.)
   Center  Symbol    Alpha    Beta     Spin     Total
       1     H     0.44686  0.44686  0.00000  0.10627
       2     C     3.03348  3.03348  0.00000 -0.06696
       3     O     4.17152  4.17152  0.00000 -0.34304
       4     H     0.47221  0.47221  0.00000  0.05558
       5     H     0.47208  0.47208  0.00000  0.05584
       6     C     2.95606  2.95606  0.00000  0.08787
       7     C     3.08014  3.08014  0.00000 -0.16028
       8     H     0.47565  0.47565  0.00000  0.04870
       9     H     0.47601  0.47601  0.00000  0.04798
      10     C     3.15582  3.15582  0.00000 -0.31164
      11     H     0.45106  0.45106  0.00000  0.09789
      12     H     0.45117  0.45117  0.00000  0.09767
      13     H     0.45582  0.45582  0.00000  0.08835
      14     H     0.44626  0.44626  0.00000  0.10747
      15     H     0.45585  0.45585  0.00000  0.08829

   Total alpha = 21.00000, Total beta = 21.00000, Total charge =  0.00000

*** Psi4 exiting successfully. Buy a developer a beer!
