  ==> Input File <==

--------------------------------------------------------------------------
set {
	reference rhf
	basis 6-31G*
}

set_num_threads( 1 )
memory 2 gb

molecule MOL {
0 1

H	 2.591676	 2.013956	 0.335017
O	 3.341076	 1.666752	 -0.126416
C	 3.569581	 0.339145	 0.272707
C	 2.539767	 -0.640285	 -0.279495
H	 4.553106	 0.084646	 -0.100901
H	 3.608576	 0.269204	 1.359154
C	 1.115811	 -0.397273	 0.226630
H	 2.556196	 -0.582511	 -1.364741
H	 2.852081	 -1.648031	 -0.010655
C	 0.481465	 0.860519	 -0.373687
H	 1.131140	 -0.314286	 1.309794
H	 0.494136	 -1.260043	 -0.013139
C	 -0.976100	 1.104109	 0.034369
H	 1.080745	 1.727881	 -0.102774
H	 0.527689	 0.787521	 -1.458231
C	 -1.185576	 1.422409	 1.517368
H	 -1.362305	 1.932525	 -0.555875
H	 -1.575010	 0.235858	 -0.236342
C	 -2.639165	 1.760962	 1.854853
H	 -0.548216	 2.259620	 1.798366
H	 -0.870100	 0.580608	 2.129045
C	 -2.852208	 2.072831	 3.335736
H	 -2.958407	 2.612331	 1.257573
H	 -3.278676	 0.929467	 1.565840
H	 -2.250228	 2.921477	 3.648214
H	 -3.891117	 2.310579	 3.542566
H	 -2.576638	 1.226444	 3.958675

	symmetry c1
}
set optking {
	frozen_dihedral = ("
		14 10 7 4,
		14 10 13 16,
		8 4 3 2,
		10 13 16 20,
		20 16 19 22,
		4 3 2 1
	")
}

ee = energy('scf')
oeprop('DIPOLE', 'QUADRUPOLE', 'MULLIKEN_CHARGES')
f=open( 'psi4out.xyz', 'w' )
f.write( "27  " )
f.write( str(ee) + "\n" )
f.write( MOL.save_string_xyz() )
f.close()
--------------------------------------------------------------------------

    Molecular point group: c1

    Geometry (in Angstrom), charge = 0, multiplicity = 1:

       Center              X                  Y                   Z               Mass
    ------------   -----------------  -----------------  -----------------  -----------------
           H          2.175430430238     1.083069022353    -0.389110238877     1.007825032070
           O          2.924830430238     0.735865022353    -0.850543238877    15.994914619560
           C          3.153335430238    -0.591741977647    -0.451420238877    12.000000000000
           C          2.123521430238    -1.571171977647    -1.003622238877    12.000000000000
           H          4.136860430238    -0.846240977647    -0.825028238877     1.007825032070
           H          3.192330430238    -0.661682977647     0.635026761123     1.007825032070
           C          0.699565430238    -1.328159977647    -0.497497238877    12.000000000000
           H          2.139950430238    -1.513397977647    -2.088868238877     1.007825032070
           H          2.435835430238    -2.578917977647    -0.734782238877     1.007825032070
           C          0.065219430238    -0.070367977647    -1.097814238877    12.000000000000
           H          0.714894430238    -1.245172977647     0.585666761123     1.007825032070
           H          0.077890430238    -2.190929977647    -0.737266238877     1.007825032070
           C         -1.392345569762     0.173222022353    -0.689758238877    12.000000000000
           H          0.664499430238     0.796994022353    -0.826901238877     1.007825032070
           H          0.111443430238    -0.143365977647    -2.182358238877     1.007825032070
           C         -1.601821569762     0.491522022353     0.793240761123    12.000000000000
           H         -1.778550569762     1.001638022353    -1.280002238877     1.007825032070
           H         -1.991255569762    -0.695028977647    -0.960469238877     1.007825032070
           C         -3.055410569762     0.830075022353     1.130725761123    12.000000000000
           H         -0.964461569762     1.328733022353     1.074238761123     1.007825032070
           H         -1.286345569762    -0.350278977647     1.404917761123     1.007825032070
           C         -3.268453569762     1.141944022353     2.611608761123    12.000000000000
           H         -3.374652569762     1.681444022353     0.533445761123     1.007825032070
           H         -3.694921569762    -0.001419977647     0.841712761123     1.007825032070
           H         -2.666473569762     1.990590022353     2.924086761123     1.007825032070
           H         -4.307362569762     1.379692022353     2.818438761123     1.007825032070
           H         -2.992883569762     0.295557022353     3.234547761123     1.007825032070

  Charge       = 0
  Multiplicity = 1
  Basis Set: 6-31G*
  Basis Set:

    Orbital Energies (a.u.)
    -----------------------

    Doubly Occupied:

       1A    -20.549965     2A    -11.266919     3A    -11.219777
       4A    -11.218500     5A    -11.217315     6A    -11.216544
       7A    -11.215946     8A    -11.215455     9A    -11.210415
      10A     -1.360064    11A     -1.096578    12A     -1.062388
      13A     -1.013232    14A     -0.950356    15A     -0.888591
      16A     -0.821711    17A     -0.802574    18A     -0.780131
      19A     -0.703130    20A     -0.647662    21A     -0.635986
      22A     -0.619572    23A     -0.594397    24A     -0.583333
      25A     -0.574623    26A     -0.556393    27A     -0.547544
      28A     -0.528922    29A     -0.520801    30A     -0.495590
      31A     -0.493149    32A     -0.475364    33A     -0.468388
      34A     -0.457365    35A     -0.448806    36A     -0.441034
      37A     -0.418787

  @DF-RHF Final Energy:  -388.27223698362690

   => Energetics <=

    Nuclear Repulsion Energy =            471.6141111071077034
    One-Electron Energy =               -1461.1379768039475948
    Two-Electron Energy =                 601.2516287132126536
    DFT Exchange-Correlation Energy =       0.0000000000000000
    Empirical Dispersion Energy =           0.0000000000000000
    PCM Polarization Energy =               0.0000000000000000
    EFP Energy =                            0.0000000000000000
    Total Energy =                       -388.2722369836272946

  Mulliken Charges: (a.u.)
   Center  Symbol    Alpha    Beta     Spin     Total
       1     H     0.27378  0.27378  0.00000  0.45243
       2     O     4.37117  4.37117  0.00000 -0.74235
       3     C     2.99902  2.99902  0.00000  0.00197
       4     C     3.16431  3.16431  0.00000 -0.32862
       5     H     0.41445  0.41445  0.00000  0.17111
       6     H     0.43187  0.43187  0.00000  0.13625
       7     C     3.16500  3.16500  0.00000 -0.32999
       8     H     0.41543  0.41543  0.00000  0.16914
       9     H     0.42136  0.42136  0.00000  0.15728
      10     C     3.14651  3.14651  0.00000 -0.29301
      11     H     0.42277  0.42277  0.00000  0.15446
      12     H     0.41795  0.41795  0.00000  0.16410
      13     C     3.15294  3.15294  0.00000 -0.30587
      14     H     0.44305  0.44305  0.00000  0.11391
      15     H     0.41555  0.41555  0.00000  0.16890
      16     C     3.15319  3.15319  0.00000 -0.30638
      17     H     0.42055  0.42055  0.00000  0.15890
      18     H     0.42336  0.42336  0.00000  0.15329
      19     C     3.15107  3.15107  0.00000 -0.30214
      20     H     0.42757  0.42757  0.00000  0.14486
      21     H     0.42210  0.42210  0.00000  0.15579
      22     C     3.23935  3.23935  0.00000 -0.47870
      23     H     0.42247  0.42247  0.00000  0.15505
      24     H     0.42250  0.42250  0.00000  0.15499
      25     H     0.42184  0.42184  0.00000  0.15632
      26     H     0.41883  0.41883  0.00000  0.16234
      27     H     0.42201  0.42201  0.00000  0.15598

   Total alpha = 37.00000, Total beta = 37.00000, Total charge = -0.00000
