                              Psi4 1.0.54 Driver

  ==> Input File <==

--------------------------------------------------------------------------
set {
	reference rhf
	basis cc-pvtz
}

set_num_threads( 4 )
memory 2 gb

molecule MOL {
0 1

H	 -0.433410	 3.710170	 6.212997
C	 -1.050601	 2.836612	 6.037389
C	 -1.261533	 2.601535	 4.545554
H	 -0.559826	 1.986697	 6.498908
H	 -1.995374	 2.990859	 6.548673
C	 -2.136867	 1.383308	 4.259749
H	 -0.298735	 2.475880	 4.063714
H	 -1.720360	 3.483492	 4.104585
C	 -2.370600	 1.126842	 2.774326
H	 -1.688520	 0.502906	 4.703266
H	 -3.102446	 1.521244	 4.737675
C	 -1.158526	 0.603377	 2.022431
H	 -3.150294	 0.380026	 2.647410
H	 -2.736575	 2.020956	 2.278202
C	 -1.180025	 0.697761	 0.509157
O	 -0.233706	 0.117854	 2.590103
C	 -2.285431	 -0.137488	 -0.145671
H	 -0.209921	 0.373472	 0.157623
H	 -1.304974	 1.741273	 0.232271
C	 -3.646545	 0.082747	 0.508954
H	 -2.348635	 0.118247	 -1.199806
H	 -2.034895	 -1.192387	 -0.096473
C	 -4.757412	 -0.737227	 -0.138149
H	 -3.900211	 1.137405	 0.459735
H	 -3.580878	 -0.166775	 1.564416
H	 -4.867876	 -0.486707	 -1.187777
H	 -4.549650	 -1.800049	 -0.072540
H	 -5.709585	 -0.556397	 0.346597

	symmetry c1
}
set optking {
	frozen_dihedral = ("
		12 15 17 21
	")
}

ee,wfn = optimize('scf', return_wfn=True)
oeprop( wfn, 'DIPOLE', 'QUADRUPOLE', 'MULLIKEN_CHARGES')
f=open( 'psi4out.xyz', 'w' )
f.write( "28  " )
f.write( str(ee) + "\n" )
f.write( MOL.save_string_xyz() )
f.close()
--------------------------------------------------------------------------

    Molecular point group: c1
  Charge       = 0
  Multiplicity = 1
  Basis Set: CC-PVTZ
  Basis Set:
  @DF-RHF Final Energy:  -426.28504585330643
    Total Energy =                       -426.2850458533067695
    Molecular point group: c1
  Basis Set: CC-PVTZ
  Basis Set:
  Basis Set: CC-PVTZ
  Basis Set:
  @DF-RHF Final Energy:  -426.27169429084938
    Total Energy =                       -426.2716942908493820
  Basis Set: CC-PVTZ
  Basis Set:
  Basis Set: CC-PVTZ
  Basis Set:
  @DF-RHF Final Energy:  -426.30956729723505
    Total Energy =                       -426.3095672972348211
  Basis Set: CC-PVTZ
  Basis Set:
  Basis Set: CC-PVTZ
  Basis Set:
  @DF-RHF Final Energy:  -426.31249313725345
    Total Energy =                       -426.3124931372535684
  Basis Set: CC-PVTZ
  Basis Set:
  @DF-RHF Final Energy:  -426.31127946915717
    Total Energy =                       -426.3112794691569434
  @DF-RHF Final Energy:  -426.31403878027868
    Total Energy =                       -426.3140387802787927
  @DF-RHF Final Energy:  -426.31508194422565
    Total Energy =                       -426.3150819442265629
  @DF-RHF Final Energy:  -426.31571689725956
    Total Energy =                       -426.3157168972588806
  @DF-RHF Final Energy:  -426.31688058546411
    Total Energy =                       -426.3168805854635366
  @DF-RHF Final Energy:  -426.31335083677664
    Total Energy =                       -426.3133508367768627
  @DF-RHF Final Energy:  -426.31778704487601
    Total Energy =                       -426.3177870448768090
  @DF-RHF Final Energy:  -426.31838631587880
    Total Energy =                       -426.3183863158787972
  @DF-RHF Final Energy:  -426.31854616126873
    Total Energy =                       -426.3185461612695235
  @DF-RHF Final Energy:  -426.31855770990228
    Total Energy =                       -426.3185577099027341
  @DF-RHF Final Energy:  -426.31865000371863
    Total Energy =                       -426.3186500037180622
  @DF-RHF Final Energy:  -426.31876740821963
    Total Energy =                       -426.3187674082195144
  @DF-RHF Final Energy:  -426.31892965119118
    Total Energy =                       -426.3189296511902739
  @DF-RHF Final Energy:  -426.31905133392718
    Total Energy =                       -426.3190513339278596
  @DF-RHF Final Energy:  -426.31914216264886
    Total Energy =                       -426.3191421626486317
  @DF-RHF Final Energy:  -426.31919336546071
    Total Energy =                       -426.3191933654605918
  Basis Set: CC-PVTZ
  Basis Set:
  @DF-RHF Final Energy:  -426.31921054215263
    Total Energy =                       -426.3192105421525184
  Basis Set: CC-PVTZ
  Basis Set:
  Basis Set: CC-PVTZ
  Basis Set:
  @DF-RHF Final Energy:  -426.31921847835258
    Total Energy =                       -426.3192184783522407
  Basis Set: CC-PVTZ
  Basis Set:
  Basis Set: CC-PVTZ
  Basis Set:
  @DF-RHF Final Energy:  -426.31922765731122
    Total Energy =                       -426.3192276573117852
  Basis Set: CC-PVTZ
  Basis Set:
  Charge       = 0
  Multiplicity = 1
  Basis Set: CC-PVTZ
  Basis Set:

    Orbital Energies (a.u.)
    -----------------------

    Doubly Occupied:

       1A    -20.537369     2A    -11.318683     3A    -11.229731
       4A    -11.229555     5A    -11.218663     6A    -11.215216
       7A    -11.211206     8A    -11.210197     9A    -11.204892
      10A    -11.204356    11A     -1.398498    12A     -1.088908
      13A     -1.077473    14A     -1.022277    15A     -0.990523
      16A     -0.910826    17A     -0.866432    18A     -0.808829
      19A     -0.790302    20A     -0.722931    21A     -0.676551
      22A     -0.639986    23A     -0.633969    24A     -0.617205
      25A     -0.607154    26A     -0.585581    27A     -0.578566
      28A     -0.575138    29A     -0.544355    30A     -0.524821
      31A     -0.522615    32A     -0.510553    33A     -0.498213
      34A     -0.479957    35A     -0.472609    36A     -0.467913
      37A     -0.467292    38A     -0.460105    39A     -0.458418
      40A     -0.395027

  @DF-RHF Final Energy:  -426.31922772171458

   => Energetics <=

    Nuclear Repulsion Energy =            539.9093580331820021
    One-Electron Energy =               -1648.5113732722525128
    Two-Electron Energy =                 682.2827875173555867
    DFT Exchange-Correlation Energy =       0.0000000000000000
    Empirical Dispersion Energy =           0.0000000000000000
    PCM Polarization Energy =               0.0000000000000000
    EFP Energy =                            0.0000000000000000
    Total Energy =                       -426.3192277217150377
    Molecular point group: c1
  Basis Set: CC-PVTZ
  Basis Set:

  -Total Gradient:
     Atom            X                  Y                   Z
    ------   -----------------  -----------------  -----------------
       1       -0.000000057797    -0.000001277302     0.000001440536
       2        0.000005412442    -0.000006195519    -0.000012123279
       3        0.000011104168     0.000026786274     0.000016461436
       4       -0.000002800504    -0.000002007041    -0.000001028428
       5       -0.000001301672     0.000004260601    -0.000002451985
       6       -0.000011609630     0.000003655891    -0.000004282329
       7        0.000000788864    -0.000012067699    -0.000002735816
       8        0.000006140099    -0.000003047491     0.000002723165
       9        0.000015168046    -0.000014041483    -0.000010846715
      10       -0.000001839847     0.000001136034    -0.000003176923
      11       -0.000000134383     0.000001710888     0.000000001916
      12       -0.003373164654     0.002759239699    -0.000252337380
      13       -0.000007999815     0.000004599062    -0.000004867952
      14       -0.000004195867     0.000004834864     0.000002479494
      15        0.003852456125    -0.003288133299     0.000489184345
      16       -0.000011332229    -0.000017082408     0.000007743898
      17        0.004083379346    -0.002875106086    -0.000845426746
      18        0.000002213360     0.000001323490    -0.000006219940
      19        0.000003325066     0.000008098672    -0.000006544790
      20        0.000009727617     0.000021335967     0.000014954165
      21       -0.004587201064     0.003395171627     0.000627625709
      22        0.000002640839    -0.000005669725     0.000001637678
      23       -0.000005185733    -0.000007107170    -0.000010421005
      24        0.000005099152    -0.000000853959    -0.000000400822
      25        0.000001191623    -0.000005636916    -0.000006228669
      26        0.000002556703     0.000002442765     0.000000961258
      27        0.000001570889    -0.000000794095     0.000004112254
      28        0.000004048851     0.000004424356    -0.000000233077

  **** Optimization is complete! (in 24 steps) ****
    Final optimized geometry and variables:
    Molecular point group: c1

    Geometry (in Angstrom), charge = 0, multiplicity = 1:

    H            3.586798751766     0.873974226687     3.703549207962
    C            2.590812002397     1.252804385700     3.505229989713
    C            2.231064362347     1.111553950179     2.030203198361
    H            1.896585394465     0.700303879680     4.128952072560
    H            2.563264621565     2.291319691514     3.819139171751
    C            0.837017259332     1.647087333820     1.710506718618
    H            2.290819680231     0.067589852412     1.745381938651
    H            2.964963169993     1.643594804634     1.429308691672
    C            0.450262019047     1.519984256531     0.241494936181
    H            0.102518269826     1.128794893516     2.314959908869
    H            0.789247126489     2.696431203049     1.986722287389
    C            0.136401783396     0.110477850446    -0.222612599847
    H           -0.444364473239     2.103958562451     0.034083277056
    H            1.221066159197     1.933336893688    -0.403485974443
    C            0.077934782355    -0.093445500617    -1.725124075763
    O           -0.039605295673    -0.782883544052     0.541157119509
    C           -0.825693571529    -1.224552847889    -2.218856530714
    H            1.103279455335    -0.263239791804    -2.045890987564
    H           -0.221772844607     0.843646673566    -2.184679566889
    C           -2.255046860993    -1.180875626890    -1.674026539931
    H           -0.899317513496    -1.126598460825    -3.298079358924
    H           -0.379322653819    -2.186172962820    -1.997507899088
    C           -3.149199410539    -2.238680802424    -2.312868311486
    H           -2.678118778729    -0.195944358184    -1.861733856023
    H           -2.245917260555    -1.319164908110    -0.601852745870
    H           -3.212057968706    -2.107496048878    -3.388312180536
    H           -2.766894060654    -3.236200898338    -2.123886060688
    H           -4.156124284581    -2.191179510500    -1.914642596860

  Mulliken Charges: (a.u.)
   Center  Symbol    Alpha    Beta     Spin     Total
       1     H     0.44867  0.44867  0.00000  0.10266
       2     C     3.15155  3.15155  0.00000 -0.30311
       3     C     3.08469  3.08469  0.00000 -0.16938
       4     H     0.45191  0.45191  0.00000  0.09617
       5     H     0.45689  0.45689  0.00000  0.08622
       6     C     3.08737  3.08737  0.00000 -0.17475
       7     H     0.44555  0.44555  0.00000  0.10891
       8     H     0.45846  0.45846  0.00000  0.08308
       9     C     3.12131  3.12131  0.00000 -0.24263
      10     H     0.44516  0.44516  0.00000  0.10967
      11     H     0.44747  0.44747  0.00000  0.10506
      12     C     2.86148  2.86148  0.00000  0.27704
      13     H     0.43661  0.43661  0.00000  0.12678
      14     H     0.44252  0.44252  0.00000  0.11496
      15     C     3.12283  3.12283  0.00000 -0.24565
      16     O     4.18156  4.18156  0.00000 -0.36312
      17     C     3.08003  3.08003  0.00000 -0.16006
      18     H     0.43631  0.43631  0.00000  0.12739
      19     H     0.44292  0.44292  0.00000  0.11416
      20     C     3.09292  3.09292  0.00000 -0.18583
      21     H     0.44992  0.44992  0.00000  0.10016
      22     H     0.44666  0.44666  0.00000  0.10668
      23     C     3.15157  3.15157  0.00000 -0.30313
      24     H     0.45847  0.45847  0.00000  0.08306
      25     H     0.43851  0.43851  0.00000  0.12298
      26     H     0.45724  0.45724  0.00000  0.08553
      27     H     0.45336  0.45336  0.00000  0.09328
      28     H     0.44806  0.44806  0.00000  0.10388

   Total alpha = 40.00000, Total beta = 40.00000, Total charge = -0.00000

*** Psi4 exiting successfully. Buy a developer a beer!
