  ==> Input File <==

--------------------------------------------------------------------------
set {
	reference rhf
	basis 6-31G*
}

set_num_threads( 4 )
memory 2 gb

molecule MOL {
0 1

H	 2.315449	 -0.325773	 1.346397
C	 1.951159	 -0.223429	 0.317018
C	 0.692068	 0.589600	 0.160137
O	 2.541279	 -0.735230	 -0.578497
C	 -0.558097	 -0.297372	 0.091132
H	 0.791645	 1.202255	 -0.728243
H	 0.616171	 1.253469	 1.020572
C	 -1.850991	 0.512573	 -0.019058
H	 -0.476753	 -0.965681	 -0.762987
H	 -0.604799	 -0.930658	 0.975228
C	 -3.096943	 -0.368295	 -0.099594
H	 -1.800724	 1.150330	 -0.898172
H	 -1.931651	 1.177355	 0.838044
H	 -3.060452	 -1.020287	 -0.967456
H	 -3.996858	 0.233488	 -0.175704
H	 -3.191959	 -0.995686	 0.782074

	symmetry c1
}
set optking {
	frozen_dihedral = ("
		4 2 3 6
	")
}

ee = optimize('scf')
oeprop('DIPOLE', 'QUADRUPOLE', 'MULLIKEN_CHARGES')
f=open( 'psi4out.xyz', 'w' )
f.write( "16  " )
f.write( str(ee) + "\n" )
f.write( MOL.save_string_xyz() )
f.close()
--------------------------------------------------------------------------

    Molecular point group: c1
  Charge       = 0
  Multiplicity = 1
  Basis Set: 6-31G*
  Basis Set:
  @DF-RHF Final Energy:  -270.01847959493506
    Total Energy =                       -270.0184795949352292
    Molecular point group: c1
  Basis Set: 6-31G*
  Basis Set:
  Basis Set: 6-31G*
  Basis Set:
  @DF-RHF Final Energy:  -270.01713411865808
    Total Energy =                       -270.0171341186579070
  Basis Set: 6-31G*
  Basis Set:
  Basis Set: 6-31G*
  Basis Set:
  @DF-RHF Final Energy:  -270.01876520618544
    Total Energy =                       -270.0187652061854351
  Basis Set: 6-31G*
  Basis Set:
  Basis Set: 6-31G*
  Basis Set:
  @DF-RHF Final Energy:  -270.01874690373495
    Total Energy =                       -270.0187469037349501
  Basis Set: 6-31G*
  Basis Set:
  Basis Set: 6-31G*
  Basis Set:
  @DF-RHF Final Energy:  -270.01874677962542
    Total Energy =                       -270.0187467796255305
  Basis Set: 6-31G*
  Basis Set:
  Basis Set: 6-31G*
  Basis Set:
  @DF-RHF Final Energy:  -270.01879776002158
    Total Energy =                       -270.0187977600215845
  Basis Set: 6-31G*
  Basis Set:
  Charge       = 0
  Multiplicity = 1
  Basis Set: 6-31G*
  Basis Set:

    Orbital Energies (a.u.)
    -----------------------

    Doubly Occupied:

       1A    -20.562280     2A    -11.326767     3A    -11.234742
       4A    -11.233889     5A    -11.227150     6A    -11.216507
       7A     -1.402421     8A     -1.093326     9A     -1.016360
      10A     -0.905651    11A     -0.812625    12A     -0.787036
      13A     -0.681701    14A     -0.645550    15A     -0.627948
      16A     -0.601896    17A     -0.577318    18A     -0.551016
      19A     -0.525609    20A     -0.510326    21A     -0.485404
      22A     -0.478720    23A     -0.475252    24A     -0.408287

  @DF-RHF Final Energy:  -270.01879781259754

   => Energetics <=

    Nuclear Repulsion Energy =            230.3811639912719329
    One-Electron Energy =                -822.0243576677573856
    Two-Electron Energy =                 321.6243958638876848
    DFT Exchange-Correlation Energy =       0.0000000000000000
    Empirical Dispersion Energy =           0.0000000000000000
    PCM Polarization Energy =               0.0000000000000000
    EFP Energy =                            0.0000000000000000
    Total Energy =                       -270.0187978125977679
    Molecular point group: c1
  Basis Set: 6-31G*
  Basis Set:

  -Total Gradient:
     Atom            X                  Y                   Z
    ------   -----------------  -----------------  -----------------
       1        0.000001137217    -0.000002575533    -0.000002223703
       2        0.000945358509     0.001377763803    -0.000097932022
       3       -0.000815350177    -0.001280199459    -0.000591518814
       4       -0.000580980896    -0.000850789884     0.000152365608
       5        0.000014160718     0.000012025675     0.000002212516
       6        0.000434715244     0.000731734517     0.000527923368
       7       -0.000006918139     0.000002444920    -0.000000779098
       8       -0.000005590654     0.000006693354     0.000011063543
       9        0.000001081234    -0.000001348460    -0.000000292431
      10        0.000007238885     0.000004928207     0.000004616169
      11        0.000005928503    -0.000001178212    -0.000010949094
      12        0.000002086296     0.000003597899     0.000003978274
      13       -0.000002473935    -0.000002218558     0.000003834795
      14       -0.000001359844    -0.000004749205     0.000000868438
      15        0.000001521380     0.000000455991    -0.000004083776
      16       -0.000000554351     0.000003414946     0.000000916227

  **** Optimization is complete! (in 7 steps) ****
    Final optimized geometry and variables:
    Molecular point group: c1

    Geometry (in Angstrom), charge = 0, multiplicity = 1:

    H            2.402772601705    -0.274176473332     1.354797866430
    C            2.013955081673    -0.129315654739     0.340819785863
    C            0.761252943964     0.704613832713     0.215599789596
    O            2.550885209069    -0.650060049934    -0.583243343120
    C           -0.485301304044    -0.191133183735     0.139801465930
    H            0.844466336964     1.307553798454    -0.682467905655
    H            0.684855615144     1.375739121271     1.066789464254
    C           -1.779945875604     0.612314031165     0.009649940354
    H           -0.379256769892    -0.861153809592    -0.708148600469
    H           -0.538066911769    -0.818336150166     1.027924634790
    C           -3.020089552456    -0.276421333364    -0.075442448740
    H           -1.723417933562     1.241082869476    -0.875777933059
    H           -1.874188408332     1.285544754831     0.858812586011
    H           -2.969028880315    -0.938946770611    -0.934426378948
    H           -3.922208009829     0.319514979822    -0.170009059172
    H           -3.122654557903    -0.893501172248     0.812595890618

  Mulliken Charges: (a.u.)
   Center  Symbol    Alpha    Beta     Spin     Total
       1     H     0.42885  0.42885  0.00000  0.14230
       2     C     2.84053  2.84053  0.00000  0.31894
       3     C     3.20048  3.20048  0.00000 -0.40095
       4     O     4.23648  4.23648  0.00000 -0.47296
       5     C     3.16124  3.16124  0.00000 -0.32248
       6     H     0.40052  0.40052  0.00000  0.19895
       7     H     0.41629  0.41629  0.00000  0.16742
       8     C     3.15219  3.15219  0.00000 -0.30439
       9     H     0.40682  0.40682  0.00000  0.18637
      10     H     0.41916  0.41916  0.00000  0.16168
      11     C     3.24053  3.24053  0.00000 -0.48106
      12     H     0.41904  0.41904  0.00000  0.16192
      13     H     0.42159  0.42159  0.00000  0.15682
      14     H     0.41868  0.41868  0.00000  0.16265
      15     H     0.41700  0.41700  0.00000  0.16600
      16     H     0.42060  0.42060  0.00000  0.15879

   Total alpha = 24.00000, Total beta = 24.00000, Total charge =  0.00000
