  ==> Input File <==

--------------------------------------------------------------------------
set {
	reference rhf
	basis 6-31G*
}

set_num_threads( 4 )
memory 2 gb

molecule MOL {
0 1

H	 -1.836216	 1.387520	 -0.000064
C	 -1.301823	 0.443321	 -0.000031
O	 -0.003969	 0.658512	 0.000451
O	 -1.829879	 -0.616434	 -0.000857
C	 0.607513	 0.983778	 -1.247539
C	 2.085446	 1.183687	 -0.990495
H	 0.143464	 1.877953	 -1.640512
H	 0.426246	 0.178041	 -1.945554
H	 2.247580	 1.988995	 -0.283228
H	 2.589709	 1.434159	 -1.917973
H	 2.531885	 0.280929	 -0.589735

	symmetry c1
}
set optking {
	frozen_dihedral = ("
		5 3 2 4
	")
}

ee = optimize('scf')
oeprop('DIPOLE', 'QUADRUPOLE', 'MULLIKEN_CHARGES')
f=open( 'psi4out.xyz', 'w' )
f.write( "11  " )
f.write( str(ee) + "\n" )
f.write( MOL.save_string_xyz() )
f.close()
--------------------------------------------------------------------------

    Molecular point group: c1
  Charge       = 0
  Multiplicity = 1
  Basis Set: 6-31G*
  Basis Set:
  @DF-RHF Final Energy:  -266.80822630584947
    Total Energy =                       -266.8082263058494732
    Molecular point group: c1
  Basis Set: 6-31G*
  Basis Set:
  Basis Set: 6-31G*
  Basis Set:
  @DF-RHF Final Energy:  -266.80922018145657
    Total Energy =                       -266.8092201814568512
  Basis Set: 6-31G*
  Basis Set:
  Basis Set: 6-31G*
  Basis Set:
  @DF-RHF Final Energy:  -266.80787374346164
    Total Energy =                       -266.8078737434615846
  Basis Set: 6-31G*
  Basis Set:
  Basis Set: 6-31G*
  Basis Set:
  @DF-RHF Final Energy:  -266.80949559958947
    Total Energy =                       -266.8094955995895816
  Basis Set: 6-31G*
  Basis Set:
  Basis Set: 6-31G*
  Basis Set:
  @DF-RHF Final Energy:  -266.80951595075248
    Total Energy =                       -266.8095159507523135
  Basis Set: 6-31G*
  Basis Set:
  Charge       = 0
  Multiplicity = 1
  Basis Set: 6-31G*
  Basis Set:

    Orbital Energies (a.u.)
    -----------------------

    Doubly Occupied:

       1A    -20.593791     2A    -20.571362     3A    -11.381427
       4A    -11.303211     5A    -11.229670     6A     -1.467215
       7A     -1.380068     8A     -1.049703     9A     -0.886815
      10A     -0.832048    11A     -0.740776    12A     -0.689870
      13A     -0.648580    14A     -0.637494    15A     -0.564582
      16A     -0.542299    17A     -0.535917    18A     -0.503760
      19A     -0.465315    20A     -0.453854

  @DF-RHF Final Energy:  -266.80951688583900

   => Energetics <=

    Nuclear Repulsion Energy =            176.8537060356765949
    One-Electron Energy =                -714.3709291004507804
    Two-Electron Energy =                 270.7077061789350978
    DFT Exchange-Correlation Energy =       0.0000000000000000
    Empirical Dispersion Energy =           0.0000000000000000
    PCM Polarization Energy =               0.0000000000000000
    EFP Energy =                            0.0000000000000000
    Total Energy =                       -266.8095168858390593
    Molecular point group: c1
  Basis Set: 6-31G*
  Basis Set:

  -Total Gradient:
     Atom            X                  Y                   Z
    ------   -----------------  -----------------  -----------------
       1        0.000089071935    -0.000024817950    -0.000018515950
       2        0.000156051167    -0.000666820803     0.002737672942
       3       -0.000359014991     0.002096810496    -0.000538377629
       4       -0.000042778145     0.000007197049    -0.001891829397
       5        0.000115380045    -0.001377748743    -0.000321949568
       6        0.000024914701    -0.000017941577     0.000026026384
       7       -0.000020008910    -0.000024252144     0.000020481359
       8        0.000051804783    -0.000004514369    -0.000017891187
       9       -0.000002088635     0.000001562004    -0.000000597112
      10       -0.000014807086     0.000009793377     0.000004146637
      11        0.000001475137     0.000000732660     0.000000833519

  **** Optimization is complete! (in 6 steps) ****
    Final optimized geometry and variables:
    Molecular point group: c1

    Geometry (in Angstrom), charge = 0, multiplicity = 1:

    H           -1.771518020319     0.871548711666     0.495778931873
    C           -1.225509797222    -0.069798373868     0.453869845344
    O            0.104083953917     0.093866718189     0.463458620638
    O           -1.763265175090    -1.115785269118     0.415219614652
    C            0.701824568007     0.434944851872    -0.781369884736
    C            2.178157182224     0.662465111648    -0.540447414342
    H            0.230698637105     1.330734920189    -1.177726248856
    H            0.537956936690    -0.375216571949    -1.482104136560
    H            2.327938233879     1.472407295206     0.163669960923
    H            2.672008222587     0.916532247551    -1.472588528824
    H            2.635811901769    -0.233012762778    -0.137789575642

  Mulliken Charges: (a.u.)
   Center  Symbol    Alpha    Beta     Spin     Total
       1     H     0.42558  0.42558  0.00000  0.14883
       2     C     2.73210  2.73210  0.00000  0.53579
       3     O     4.30119  4.30119  0.00000 -0.60239
       4     O     4.22602  4.22602  0.00000 -0.45204
       5     C     3.00546  3.00546  0.00000 -0.01093
       6     C     3.24666  3.24666  0.00000 -0.49332
       7     H     0.42196  0.42196  0.00000  0.15608
       8     H     0.41014  0.41014  0.00000  0.17973
       9     H     0.40953  0.40953  0.00000  0.18095
      10     H     0.41605  0.41605  0.00000  0.16790
      11     H     0.40530  0.40530  0.00000  0.18939

   Total alpha = 20.00000, Total beta = 20.00000, Total charge =  0.00000
