                              Psi4 1.0.54 Driver

  ==> Input File <==

--------------------------------------------------------------------------
set {
	reference rhf
	basis cc-pvtz
}

set_num_threads( 4 )
memory 2 gb

molecule MOL {
0 1

H	 -1.849047	 -0.926226	 -0.206717
O	 -2.041679	 -0.058866	 0.103463
C	 -0.959304	 0.780994	 -0.094939
C	 0.354905	 0.037902	 -0.006215
H	 -0.985899	 1.279578	 -1.057596
H	 -0.969809	 1.529522	 0.682889
F	 0.412060	 -0.931028	 -0.902708
F	 1.359641	 0.856111	 -0.239961
F	 0.545380	 -0.506387	 1.171682

	symmetry c1
}
set optking {
	frozen_dihedral = ("
		1 2 3 5
	")
}

ee,wfn = optimize('scf', return_wfn=True)
oeprop( wfn, 'DIPOLE', 'QUADRUPOLE', 'MULLIKEN_CHARGES')
f=open( 'psi4out.xyz', 'w' )
f.write( "9  " )
f.write( str(ee) + "\n" )
f.write( MOL.save_string_xyz() )
f.close()
--------------------------------------------------------------------------

    Molecular point group: c1
  Charge       = 0
  Multiplicity = 1
  Basis Set: CC-PVTZ
  Basis Set:
  @DF-RHF Final Energy:  -450.84503835428683
    Total Energy =                       -450.8450383542866575
    Molecular point group: c1
  Basis Set: CC-PVTZ
  Basis Set:
  Basis Set: CC-PVTZ
  Basis Set:
  @DF-RHF Final Energy:  -450.84517853588761
    Total Energy =                       -450.8451785358874986
  Basis Set: CC-PVTZ
  Basis Set:
  Basis Set: CC-PVTZ
  Basis Set:
  @DF-RHF Final Energy:  -450.84522121143448
    Total Energy =                       -450.8452212114345343
  Basis Set: CC-PVTZ
  Basis Set:
  Charge       = 0
  Multiplicity = 1
  Basis Set: CC-PVTZ
  Basis Set:

    Orbital Energies (a.u.)
    -----------------------

    Doubly Occupied:

       1A    -26.345570     2A    -26.344777     3A    -26.341251
       4A    -20.581688     5A    -11.500233     6A    -11.309721
       7A     -1.753641     8A     -1.651044     9A     -1.648021
      10A     -1.404883    11A     -1.053176    12A     -0.934002
      13A     -0.843037    14A     -0.841940    15A     -0.820699
      16A     -0.728257    17A     -0.724410    18A     -0.693704
      19A     -0.676627    20A     -0.673103    21A     -0.654839
      22A     -0.640578    23A     -0.626772    24A     -0.529908
      25A     -0.482711

  @DF-RHF Final Energy:  -450.84522280034787

   => Energetics <=

    Nuclear Repulsion Energy =            277.9490939081862280
    One-Electron Energy =               -1177.9794556072552041
    Two-Electron Energy =                 449.1851388987209930
    DFT Exchange-Correlation Energy =       0.0000000000000000
    Empirical Dispersion Energy =           0.0000000000000000
    PCM Polarization Energy =               0.0000000000000000
    EFP Energy =                            0.0000000000000000
    Total Energy =                       -450.8452228003479831
    Molecular point group: c1
  Basis Set: CC-PVTZ
  Basis Set:

  -Total Gradient:
     Atom            X                  Y                   Z
    ------   -----------------  -----------------  -----------------
       1        0.001169220648    -0.000808803857     0.002909766190
       2       -0.001922217753     0.001651036164    -0.003221156742
       3        0.002215126978    -0.003040650929    -0.000966515255
       4       -0.000122577328    -0.000026972240     0.000191825476
       5       -0.001389527281     0.002131534894     0.001232390242
       6        0.000005376846    -0.000028660115     0.000016874621
       7       -0.000014186151     0.000032914940     0.000188532374
       8        0.000136277750     0.000151714693    -0.000100642739
       9       -0.000077493709    -0.000062113549    -0.000251074163

  **** Optimization is complete! (in 4 steps) ****
    Final optimized geometry and variables:
    Molecular point group: c1

    Geometry (in Angstrom), charge = 0, multiplicity = 1:

    H           -1.885351220536    -0.923423441486    -0.242578799452
    O           -2.055309818470    -0.058529281075     0.087111771127
    C           -0.962474869535     0.775493196315    -0.095527329482
    C            0.355442824001     0.043873775522    -0.009814167513
    H           -1.001069466127     1.291748577284    -1.048111551246
    H           -0.969784846381     1.519878577012     0.687981963004
    F            0.408012170274    -0.945836129569    -0.884959621903
    F            1.352763766130     0.859707609578    -0.266460997730
    F            0.557591010295    -0.482298818275     1.176589957125

  Mulliken Charges: (a.u.)
   Center  Symbol    Alpha    Beta     Spin     Total
       1     H     0.38657  0.38657  0.00000  0.22687
       2     O     4.19446  4.19446  0.00000 -0.38892
       3     C     2.97571  2.97571  0.00000  0.04857
       4     C     2.68820  2.68820  0.00000  0.62359
       5     H     0.46514  0.46514  0.00000  0.06973
       6     H     0.45494  0.45494  0.00000  0.09011
       7     F     4.61764  4.61764  0.00000 -0.23529
       8     F     4.60870  4.60870  0.00000 -0.21739
       9     F     4.60863  4.60863  0.00000 -0.21726

   Total alpha = 25.00000, Total beta = 25.00000, Total charge =  0.00000

*** Psi4 exiting successfully. Buy a developer a beer!
