  ==> Input File <==

--------------------------------------------------------------------------
set {
	reference rhf
	basis cc-pvtz
}

set_num_threads( 4 )
memory 2 gb

molecule MOL {
0 1

H	 -2.816458	 -0.841657	 -0.064679
N	 -1.878861	 -0.711874	 0.250184
C	 -1.341419	 0.551458	 -0.220231
H	 -1.333674	 -1.468530	 -0.105118
C	 0.082190	 0.731516	 0.254705
H	 -1.357065	 0.652078	 -1.304747
H	 -1.939897	 1.357530	 0.189797
O	 0.881195	 -0.248324	 -0.336237
H	 0.440901	 1.722476	 -0.020063
H	 0.119896	 0.643586	 1.338114
C	 0.582598	 -0.509600	 -1.667325
H	 1.256687	 -1.279389	 -2.014332
H	 -0.439931	 -0.862588	 -1.783638
H	 0.713194	 0.375477	 -2.285506

	symmetry c1
}
set optking {
	frozen_dihedral = ("
		11 8 5 3
	")
}

ee = optimize('scf')
oeprop('DIPOLE', 'QUADRUPOLE', 'MULLIKEN_CHARGES')
f=open( 'psi4out.xyz', 'w' )
f.write( "14  " )
f.write( str(ee) + "\n" )
f.write( MOL.save_string_xyz() )
f.close()
--------------------------------------------------------------------------

    Molecular point group: c1
  Charge       = 0
  Multiplicity = 1
  Basis Set: CC-PVTZ
  Basis Set:
  @DF-RHF Final Energy:  -248.20863079386143
    Total Energy =                       -248.2086307938611753
    Molecular point group: c1
  Basis Set: CC-PVTZ
  Basis Set:
  Basis Set: CC-PVTZ
  Basis Set:
  @DF-RHF Final Energy:  -248.21401083251723
    Total Energy =                       -248.2140108325171468
  Basis Set: CC-PVTZ
  Basis Set:
  Basis Set: CC-PVTZ
  Basis Set:
  @DF-RHF Final Energy:  -248.21752838062480
    Total Energy =                       -248.2175283806247990
  Basis Set: CC-PVTZ
  Basis Set:
  Basis Set: CC-PVTZ
  Basis Set:
  @DF-RHF Final Energy:  -248.21807617682470
    Total Energy =                       -248.2180761768248090
  Basis Set: CC-PVTZ
  Basis Set:
  Basis Set: CC-PVTZ
  Basis Set:
  @DF-RHF Final Energy:  -248.21816601812372
    Total Energy =                       -248.2181660181237248
  Basis Set: CC-PVTZ
  Basis Set:
  Basis Set: CC-PVTZ
  Basis Set:
  @DF-RHF Final Energy:  -248.21817421546470
    Total Energy =                       -248.2181742154646145
  Basis Set: CC-PVTZ
  Basis Set:
  Basis Set: CC-PVTZ
  Basis Set:
  @DF-RHF Final Energy:  -248.21817566298930
    Total Energy =                       -248.2181756629893243
  Basis Set: CC-PVTZ
  Basis Set:
  Charge       = 0
  Multiplicity = 1
  Basis Set: CC-PVTZ
  Basis Set:

    Orbital Energies (a.u.)
    -----------------------

    Doubly Occupied:

       1A    -20.548346     2A    -15.531487     3A    -11.265458
       4A    -11.265373     5A    -11.245828     6A     -1.378813
       7A     -1.181895     8A     -1.001286     9A     -0.925414
      10A     -0.806265    11A     -0.689991    12A     -0.677431
      13A     -0.649170    14A     -0.618706    15A     -0.603427
      16A     -0.547079    17A     -0.535641    18A     -0.523931
      19A     -0.458035    20A     -0.415509    21A     -0.389898

  @DF-RHF Final Energy:  -248.21817588155207

   => Energetics <=

    Nuclear Repulsion Energy =            197.6276599424436711
    One-Electron Energy =                -729.1737099079880409
    Two-Electron Energy =                 283.3278740839925831
    DFT Exchange-Correlation Energy =       0.0000000000000000
    Empirical Dispersion Energy =           0.0000000000000000
    PCM Polarization Energy =               0.0000000000000000
    EFP Energy =                            0.0000000000000000
    Total Energy =                       -248.2181758815518151
    Molecular point group: c1
  Basis Set: CC-PVTZ
  Basis Set:

  -Total Gradient:
     Atom            X                  Y                   Z
    ------   -----------------  -----------------  -----------------
       1       -0.000027151600    -0.000006776807    -0.000014581238
       2        0.000021299542    -0.000003460971     0.000047403394
       3        0.000807596251     0.003193704291    -0.003705530395
       4       -0.000003436127    -0.000015583422    -0.000020613831
       5       -0.002707494282    -0.006581278600     0.006118167227
       6       -0.000002483509    -0.000017234025     0.000000239750
       7       -0.000016789246    -0.000004285085    -0.000009382162
       8        0.005344782957     0.007500590756    -0.003810160182
       9       -0.000017827832     0.000005628921    -0.000001960821
      10        0.000001841442    -0.000013385013    -0.000008837896
      11       -0.003397017074    -0.004060396368     0.001395520024
      12       -0.000002179607    -0.000001050896     0.000010968291
      13        0.000002475434     0.000002316590    -0.000002228713
      14       -0.000003616347     0.000001210629     0.000000996553

  **** Optimization is complete! (in 8 steps) ****
    Final optimized geometry and variables:
    Molecular point group: c1

    Geometry (in Angstrom), charge = 0, multiplicity = 1:

    H           -2.594957728369    -0.699079789948     0.369722794862
    N           -1.656004769037    -0.593124541579     0.688808396105
    C           -1.061163454103     0.640255475629     0.204117003642
    H           -1.138985327095    -1.391166901506     0.387868362984
    C            0.403472600135     0.734955095977     0.591002209674
    H           -1.173961466264     0.786987515383    -0.868043909880
    H           -1.564708289777     1.472254954869     0.683933517949
    O            1.266440308401    -0.188815167358    -0.016398898923
    H            0.745649708121     1.742784062807     0.358276537867
    H            0.505126935633     0.581590592391     1.655597532317
    C            1.077140294936    -0.493142219412    -1.359040531667
    H            1.901716801715    -1.124151984717    -1.657998530124
    H            0.152433943524    -1.031309179905    -1.540453357479
    H            1.083156367069     0.397167832974    -1.984671116760

  Mulliken Charges: (a.u.)
   Center  Symbol    Alpha    Beta     Spin     Total
       1     H     0.42949  0.42949  0.00000  0.14101
       2     N     3.69092  3.69092  0.00000 -0.38184
       3     C     3.05638  3.05638  0.00000 -0.11275
       4     H     0.42316  0.42316  0.00000  0.15367
       5     C     2.97536  2.97536  0.00000  0.04927
       6     H     0.45896  0.45896  0.00000  0.08208
       7     H     0.44588  0.44588  0.00000  0.10825
       8     O     4.18037  4.18037  0.00000 -0.36074
       9     H     0.46624  0.46624  0.00000  0.06752
      10     H     0.45091  0.45091  0.00000  0.09819
      11     C     3.03686  3.03686  0.00000 -0.07372
      12     H     0.44185  0.44185  0.00000  0.11630
      13     H     0.47396  0.47396  0.00000  0.05209
      14     H     0.46966  0.46966  0.00000  0.06067

   Total alpha = 21.00000, Total beta = 21.00000, Total charge = -0.00000
