  ==> Input File <==

--------------------------------------------------------------------------
set {
	reference rhf
	basis 6-31G*
}

set_num_threads( 4 )
memory 2 gb

molecule MOL {
0 1

O	 2.495903	 0.113412	 -0.885743
C	 1.705091	 0.115954	 0.001797
C	 0.381791	 -0.609817	 0.001258
O	 1.892664	 0.772607	 1.139672
C	 -0.823008	 0.326187	 0.001381
H	 0.371250	 -1.265087	 -0.865474
H	 0.370908	 -1.265746	 0.867490
C	 -2.149452	 -0.435131	 -0.000098
H	 -0.770201	 0.977095	 -0.865636
H	 -0.771220	 0.975655	 0.869608
C	 -3.368779	 0.488503	 -0.000883
H	 -2.193746	 -1.087250	 -0.871175
H	 -2.195311	 -1.087803	 0.870418
C	 -4.693822	 -0.272754	 -0.001129
H	 -3.325798	 1.139422	 -0.871284
H	 -3.326423	 1.139959	 0.869145
H	 -4.781274	 -0.907928	 -0.878124
H	 -5.538651	 0.408946	 -0.001420
H	 -4.781694	 -0.907783	 0.875984
C	 3.101923	 1.497342	 1.271602
H	 3.952143	 0.834610	 1.197838
H	 3.067273	 1.953923	 2.248439
H	 3.175722	 2.256176	 0.505945

	symmetry c1
}
set optking {
	frozen_dihedral = ("
		1 2 3 6
	")
}

ee = optimize('scf')
oeprop('DIPOLE', 'QUADRUPOLE', 'MULLIKEN_CHARGES')
f=open( 'psi4out.xyz', 'w' )
f.write( "23  " )
f.write( str(ee) + "\n" )
f.write( MOL.save_string_xyz() )
f.close()
--------------------------------------------------------------------------

    Molecular point group: c1
  Charge       = 0
  Multiplicity = 1
  Basis Set: 6-31G*
  Basis Set:
  @DF-RHF Final Energy:  -422.97472189836446
    Total Energy =                       -422.9747218983646917
    Molecular point group: c1
  Basis Set: 6-31G*
  Basis Set:
  Basis Set: 6-31G*
  Basis Set:
  @DF-RHF Final Energy:  -422.97485867098624
    Total Energy =                       -422.9748586709861229
  Basis Set: 6-31G*
  Basis Set:
  Basis Set: 6-31G*
  Basis Set:
  @DF-RHF Final Energy:  -422.97504499465657
    Total Energy =                       -422.9750449946568551
  Basis Set: 6-31G*
  Basis Set:
  Basis Set: 6-31G*
  Basis Set:
  @DF-RHF Final Energy:  -422.97508208061942
    Total Energy =                       -422.9750820806189040
  Basis Set: 6-31G*
  Basis Set:
  Charge       = 0
  Multiplicity = 1
  Basis Set: 6-31G*
  Basis Set:

    Orbital Energies (a.u.)
    -----------------------

    Doubly Occupied:

       1A    -20.603993     2A    -20.543525     3A    -11.370672
       4A    -11.280680     5A    -11.233897     6A    -11.228786
       7A    -11.221853     8A    -11.220113     9A    -11.212172
      10A     -1.468504    11A     -1.361131    12A     -1.097256
      13A     -1.045705    14A     -0.984116    15A     -0.934750
      16A     -0.847393    17A     -0.798674    18A     -0.773266
      19A     -0.693443    20A     -0.680276    21A     -0.672672
      22A     -0.653513    23A     -0.608405    24A     -0.593507
      25A     -0.578834    26A     -0.571226    27A     -0.543816
      28A     -0.533025    29A     -0.523639    30A     -0.506235
      31A     -0.492016    32A     -0.477291    33A     -0.470617
      34A     -0.468006    35A     -0.453831    36A     -0.426977

  @DF-RHF Final Energy:  -422.97508157216089

   => Energetics <=

    Nuclear Repulsion Energy =            454.8969438726066983
    One-Electron Energy =               -1477.3964239617516796
    Two-Electron Energy =                 599.5243985169843199
    DFT Exchange-Correlation Energy =       0.0000000000000000
    Empirical Dispersion Energy =           0.0000000000000000
    PCM Polarization Energy =               0.0000000000000000
    EFP Energy =                            0.0000000000000000
    Total Energy =                       -422.9750815721606614
    Molecular point group: c1
  Basis Set: 6-31G*
  Basis Set:

  -Total Gradient:
     Atom            X                  Y                   Z
    ------   -----------------  -----------------  -----------------
       1        0.000091518103    -0.000108617563     0.000029296841
       2       -0.000074637266     0.000250806892    -0.000120987373
       3       -0.000070770242     0.000133554577     0.000309693537
       4       -0.000042814687    -0.000099896649    -0.000001732394
       5        0.000085251774     0.000009739566    -0.000220377253
       6       -0.000066808878    -0.000057996218    -0.000094738905
       7        0.000049567972    -0.000023320549    -0.000093041289
       8        0.000011580456    -0.000049328830     0.000071417202
       9        0.000005125312     0.000014372079     0.000167006402
      10        0.000071551523    -0.000016715473    -0.000011391996
      11        0.000018014754    -0.000008058620    -0.000038088436
      12       -0.000004623208    -0.000051093849     0.000023410201
      13       -0.000057150960     0.000002977345     0.000036258034
      14       -0.000009265764     0.000004378974    -0.000041766261
      15        0.000003146755     0.000030830735     0.000011238514
      16        0.000000147643    -0.000031074805    -0.000005236722
      17       -0.000009009730    -0.000008826012    -0.000002117868
      18       -0.000008725063    -0.000000060171    -0.000006949985
      19        0.000009528452     0.000005831358     0.000000987810
      20       -0.000035701564    -0.000003098687    -0.000019349170
      21        0.000005493741    -0.000003361427    -0.000000935492
      22        0.000013272960     0.000005262721     0.000000064882
      23        0.000015307906     0.000003694606     0.000007339722

  **** Optimization is complete! (in 5 steps) ****
    Final optimized geometry and variables:
    Molecular point group: c1

    Geometry (in Angstrom), charge = 0, multiplicity = 1:

    O            2.592307216237    -0.105031099375    -1.081712624234
    C            1.829270739678    -0.126068069953    -0.170024021348
    C            0.516018005644    -0.867382081085    -0.155965246544
    O            2.041891950113     0.523071694649     0.968276387085
    C           -0.690175634948     0.082181789213    -0.143706723160
    H            0.495533712519    -1.499446303660    -1.034453182113
    H            0.491944481832    -1.501923248115     0.724398006855
    C           -2.020187373650    -0.672350741210    -0.170672088848
    H           -0.631796647894     0.744041640452    -1.004513622818
    H           -0.642002793201     0.710655557840     0.739752276058
    C           -3.235112983772     0.257074330174    -0.178451062353
    H           -2.053580076973    -1.314722003971    -1.048700536031
    H           -2.077774703094    -1.332104348892     0.693466627016
    C           -4.562825479279    -0.498933882492    -0.211638653520
    H           -3.175492803916     0.919701310672    -1.039033213864
    H           -3.205021963185     0.895759533805     0.701565988917
    H           -4.637527228944    -1.121566178350    -1.098648531477
    H           -5.404761843503     0.186191048829    -0.216921539283
    H           -4.667859933588    -1.145358559652     0.655090186737
    C            3.238434152314     1.273846134640     1.065682396593
    H            4.099755328391     0.630656583173     0.956868714203
    H            3.227393565516     1.721396663179     2.047310562397
    H            3.269200600748     2.040304613592     0.304720378169

  Mulliken Charges: (a.u.)
   Center  Symbol    Alpha    Beta     Spin     Total
       1     O     4.28510  4.28510  0.00000 -0.57020
       2     C     2.61596  2.61596  0.00000  0.76809
       3     C     3.19551  3.19551  0.00000 -0.39101
       4     O     4.30275  4.30275  0.00000 -0.60549
       5     C     3.16511  3.16511  0.00000 -0.33023
       6     H     0.39908  0.39908  0.00000  0.20184
       7     H     0.40452  0.40452  0.00000  0.19097
       8     C     3.15216  3.15216  0.00000 -0.30432
       9     H     0.41377  0.41377  0.00000  0.17245
      10     H     0.40852  0.40852  0.00000  0.18296
      11     C     3.15235  3.15235  0.00000 -0.30470
      12     H     0.42100  0.42100  0.00000  0.15800
      13     H     0.42197  0.42197  0.00000  0.15606
      14     C     3.23983  3.23983  0.00000 -0.47967
      15     H     0.42136  0.42136  0.00000  0.15727
      16     H     0.42178  0.42178  0.00000  0.15643
      17     H     0.42088  0.42088  0.00000  0.15824
      18     H     0.41815  0.41815  0.00000  0.16369
      19     H     0.42128  0.42128  0.00000  0.15744
      20     C     3.09229  3.09229  0.00000 -0.18457
      21     H     0.40867  0.40867  0.00000  0.18266
      22     H     0.40890  0.40890  0.00000  0.18220
      23     H     0.40906  0.40906  0.00000  0.18187

   Total alpha = 36.00000, Total beta = 36.00000, Total charge =  0.00000
