  ==> Input File <==

--------------------------------------------------------------------------
set {
	reference rhf
	basis 6-31G*
}

set_num_threads( 1 )
memory 2 gb

molecule MOL {
0 1

O	 -0.988096	 -1.408613	 0.050699
C	 -0.676749	 -0.249230	 -0.009274
C	 -1.746085	 0.827156	 -0.009539
N	 0.623947	 0.147590	 -0.102813
H	 -1.701500	 1.431508	 -0.908902
H	 -2.703425	 0.330732	 0.036390
H	 -1.647323	 1.487769	 0.845106
C	 1.580804	 -0.378012	 0.851149
C	 1.066126	 1.304484	 -0.850020
H	 2.524176	 -0.565784	 0.350342
H	 1.206397	 -1.298308	 1.264448
H	 1.757455	 0.325418	 1.661952
H	 2.064824	 1.121409	 -1.228338
H	 0.427123	 1.498220	 -1.696824
H	 1.100819	 2.199086	 -0.230911

	symmetry c1
}
set optking {
	frozen_dihedral = ("
		2 4 8 10
	")
}

ee = energy('scf')
oeprop('DIPOLE', 'QUADRUPOLE', 'MULLIKEN_CHARGES')
f=open( 'psi4out.xyz', 'w' )
f.write( "15  " )
f.write( str(ee) + "\n" )
f.write( MOL.save_string_xyz() )
f.close()
--------------------------------------------------------------------------

    Molecular point group: c1

    Geometry (in Angstrom), charge = 0, multiplicity = 1:

       Center              X                  Y                   Z               Mass
    ------------   -----------------  -----------------  -----------------  -----------------
           O         -0.972867300972    -1.456506290903     0.059278311967    15.994914619560
           C         -0.661520300972    -0.297123290903    -0.000694688033    12.000000000000
           C         -1.730856300972     0.779262709097    -0.000959688033    12.000000000000
           N          0.639175699028     0.099696709097    -0.094233688033    14.003074004780
           H         -1.686271300972     1.383614709097    -0.900322688033     1.007825032070
           H         -2.688196300972     0.282838709097     0.044969311967     1.007825032070
           H         -1.632094300972     1.439875709097     0.853685311967     1.007825032070
           C          1.596032699028    -0.425905290903     0.859728311967    12.000000000000
           C          1.081354699028     1.256590709097    -0.841440688033    12.000000000000
           H          2.539404699028    -0.613677290903     0.358921311967     1.007825032070
           H          1.221625699028    -1.346201290903     1.273027311967     1.007825032070
           H          1.772683699028     0.277524709097     1.670531311967     1.007825032070
           H          2.080052699028     1.073515709097    -1.219758688033     1.007825032070
           H          0.442351699028     1.450326709097    -1.688244688033     1.007825032070
           H          1.116047699028     2.151192709097    -0.222331688033     1.007825032070

  Charge       = 0
  Multiplicity = 1
  Basis Set: 6-31G*
  Basis Set:

    Orbital Energies (a.u.)
    -----------------------

    Doubly Occupied:

       1A    -20.525889     2A    -15.570203     3A    -11.343941
       4A    -11.264554     5A    -11.254199     6A    -11.226586
       7A     -1.388034     8A     -1.241759     9A     -1.010326
      10A     -0.974451    11A     -0.919310    12A     -0.739151
      13A     -0.677640    14A     -0.657761    15A     -0.650352
      16A     -0.592809    17A     -0.580682    18A     -0.571699
      19A     -0.561234    20A     -0.550968    21A     -0.534881
      22A     -0.491894    23A     -0.415164    24A     -0.359319

  @DF-RHF Final Energy:  -286.01317295881893

   => Energetics <=

    Nuclear Repulsion Energy =            251.7677159780981526
    One-Electron Energy =                -887.3560881201030952
    Two-Electron Energy =                 349.5751991831857595
    DFT Exchange-Correlation Energy =       0.0000000000000000
    Empirical Dispersion Energy =           0.0000000000000000
    PCM Polarization Energy =               0.0000000000000000
    EFP Energy =                            0.0000000000000000
    Total Energy =                       -286.0131729588191547

  Mulliken Charges: (a.u.)
   Center  Symbol    Alpha    Beta     Spin     Total
       1     O     4.28309  4.28309  0.00000 -0.56618
       2     C     2.64060  2.64060  0.00000  0.71881
       3     C     3.29031  3.29031  0.00000 -0.58061
       4     N     3.81959  3.81959  0.00000 -0.63918
       5     H     0.40967  0.40967  0.00000  0.18065
       6     H     0.39418  0.39418  0.00000  0.21164
       7     H     0.40717  0.40717  0.00000  0.18565
       8     C     3.14303  3.14303  0.00000 -0.28606
       9     C     3.14067  3.14067  0.00000 -0.28134
      10     H     0.41625  0.41625  0.00000  0.16749
      11     H     0.39208  0.39208  0.00000  0.21584
      12     H     0.42321  0.42321  0.00000  0.15358
      13     H     0.40849  0.40849  0.00000  0.18302
      14     H     0.40954  0.40954  0.00000  0.18092
      15     H     0.42211  0.42211  0.00000  0.15578

   Total alpha = 24.00000, Total beta = 24.00000, Total charge = -0.00000
