  ==> Input File <==

--------------------------------------------------------------------------
set {
	reference rhf
	basis cc-pvtz
}

set_num_threads( 4 )
memory 2 gb

molecule MOL {
0 1

H	 -3.144994	 -1.202467	 -0.018751
O	 -2.321472	 -0.864941	 -0.318626
C	 -2.021813	 0.336996	 0.342658
C	 -0.669613	 0.837286	 -0.127252
H	 -2.780861	 1.084746	 0.127159
H	 -2.006390	 0.184138	 1.420053
C	 0.490865	 -0.082543	 0.241244
H	 -0.708709	 0.967192	 -1.204587
H	 -0.507562	 1.822272	 0.303070
C	 1.083023	 0.223692	 1.613897
H	 1.264133	 -0.000657	 -0.514010
H	 0.148443	 -1.115248	 0.221546
C	 2.237856	 -0.700148	 1.986278
H	 1.426871	 1.254271	 1.633348
H	 0.304649	 0.148633	 2.369007
H	 3.047558	 -0.621453	 1.268569
H	 2.637457	 -0.456297	 2.964113
H	 1.918171	 -1.736839	 2.009041

	symmetry c1
}
set optking {
	frozen_dihedral = ("
		10 7 4 8
	")
}

ee = optimize('scf')
oeprop('DIPOLE', 'QUADRUPOLE', 'MULLIKEN_CHARGES')
f=open( 'psi4out.xyz', 'w' )
f.write( "18  " )
f.write( str(ee) + "\n" )
f.write( MOL.save_string_xyz() )
f.close()
--------------------------------------------------------------------------

    Molecular point group: c1
  Charge       = 0
  Multiplicity = 1
  Basis Set: CC-PVTZ
  Basis Set:
  @DF-RHF Final Energy:  -271.28398318525376
    Total Energy =                       -271.2839831852537031
    Molecular point group: c1
  Basis Set: CC-PVTZ
  Basis Set:
  Basis Set: CC-PVTZ
  Basis Set:
  @DF-RHF Final Energy:  -271.28420611198419
    Total Energy =                       -271.2842061119844175
  Basis Set: CC-PVTZ
  Basis Set:
  Basis Set: CC-PVTZ
  Basis Set:
  @DF-RHF Final Energy:  -271.28424513841560
    Total Energy =                       -271.2842451384154856
  Basis Set: CC-PVTZ
  Basis Set:
  Basis Set: CC-PVTZ
  Basis Set:
  @DF-RHF Final Energy:  -271.28424641047627
    Total Energy =                       -271.2842464104761007
  Basis Set: CC-PVTZ
  Basis Set:
  Charge       = 0
  Multiplicity = 1
  Basis Set: CC-PVTZ
  Basis Set:

    Orbital Energies (a.u.)
    -----------------------

    Doubly Occupied:

       1A    -20.546372     2A    -11.266014     3A    -11.210499
       4A    -11.210393     5A    -11.205084     6A    -11.203719
       7A     -1.364251     8A     -1.076303     9A     -1.009072
      10A     -0.914688    11A     -0.827517    12A     -0.778128
      13A     -0.705891    14A     -0.651781    15A     -0.620556
      16A     -0.584213    17A     -0.568593    18A     -0.558974
      19A     -0.531324    20A     -0.505270    21A     -0.486289
      22A     -0.470174    23A     -0.456208    24A     -0.450039
      25A     -0.430866

  @DF-RHF Final Energy:  -271.28424673312577

   => Energetics <=

    Nuclear Repulsion Energy =            251.5889614467534159
    One-Electron Energy =                -866.4819804653692472
    Two-Electron Energy =                 343.6087722854903177
    DFT Exchange-Correlation Energy =       0.0000000000000000
    Empirical Dispersion Energy =           0.0000000000000000
    PCM Polarization Energy =               0.0000000000000000
    EFP Energy =                            0.0000000000000000
    Total Energy =                       -271.2842467331255421
    Molecular point group: c1
  Basis Set: CC-PVTZ
  Basis Set:

  -Total Gradient:
     Atom            X                  Y                   Z
    ------   -----------------  -----------------  -----------------
       1       -0.000004439859     0.000003488294    -0.000005692709
       2        0.000006876272     0.000013678024     0.000013357649
       3        0.000006231297    -0.000009262074    -0.000004712029
       4       -0.001482558117    -0.002171688164    -0.000572713698
       5       -0.000007632697    -0.000004199577    -0.000001701513
       6        0.000003510630     0.000002013076    -0.000001731462
       7       -0.001355030400    -0.001247928270     0.001198960196
       8        0.001587074727     0.002147035402     0.000191674585
       9        0.000001412919    -0.000000698873     0.000007104524
      10        0.001228970173     0.001257040168    -0.000827158202
      11        0.000003216723     0.000010212133    -0.000002093292
      12        0.000001603352    -0.000002484307     0.000004381443
      13       -0.000000994509    -0.000001312706     0.000008093114
      14        0.000004084050    -0.000005725689    -0.000011516623
      15        0.000000545644     0.000009269143    -0.000000005934
      16        0.000002688192     0.000002565422     0.000002739032
      17        0.000003255820    -0.000006890151     0.000007433446
      18        0.000001185777     0.000004888149    -0.000006418527

  **** Optimization is complete! (in 5 steps) ****
    Final optimized geometry and variables:
    Molecular point group: c1

    Geometry (in Angstrom), charge = 0, multiplicity = 1:

    H           -2.902064927482    -1.136263564396    -0.630065177434
    O           -2.085437569387    -0.792560799562    -0.941398078949
    C           -1.777731419513     0.403311994952    -0.272609192161
    C           -0.426009741109     0.900002731780    -0.749264408481
    H           -2.533609619875     1.156306412274    -0.480446153542
    H           -1.762936203719     0.242427753968     0.803032114236
    C            0.752178225399    -0.005616042072    -0.370746068113
    H           -0.466134417857     1.029180721554    -1.825005086150
    H           -0.268448074689     1.892620663477    -0.334860549233
    C            1.347560969388     0.298627585822     1.002804598605
    H            1.536477795737     0.109622523176    -1.112989678891
    H            0.439232145893    -1.042264281937    -0.420850884760
    C            2.491067525949    -0.638499094179     1.376666778143
    H            1.704175921293     1.324971482645     1.015276959497
    H            0.573955157175     0.237082647132     1.763729347903
    H            3.297074001170    -0.578974152490     0.652686337445
    H            2.901486567286    -0.391238920027     2.349188511674
    H            2.155818564961    -1.669640345944     1.410700704648

  Mulliken Charges: (a.u.)
   Center  Symbol    Alpha    Beta     Spin     Total
       1     H     0.39568  0.39568  0.00000  0.20864
       2     O     4.19860  4.19860  0.00000 -0.39719
       3     C     2.97185  2.97185  0.00000  0.05630
       4     C     3.09762  3.09762  0.00000 -0.19524
       5     H     0.46427  0.46427  0.00000  0.07147
       6     H     0.47352  0.47352  0.00000  0.05296
       7     C     3.09638  3.09638  0.00000 -0.19276
       8     H     0.44578  0.44578  0.00000  0.10843
       9     H     0.45596  0.45596  0.00000  0.08807
      10     C     3.08297  3.08297  0.00000 -0.16593
      11     H     0.45031  0.45031  0.00000  0.09937
      12     H     0.44526  0.44526  0.00000  0.10949
      13     C     3.14988  3.14988  0.00000 -0.29977
      14     H     0.45578  0.45578  0.00000  0.08844
      15     H     0.45743  0.45743  0.00000  0.08515
      16     H     0.45488  0.45488  0.00000  0.09023
      17     H     0.44949  0.44949  0.00000  0.10103
      18     H     0.45435  0.45435  0.00000  0.09130

   Total alpha = 25.00000, Total beta = 25.00000, Total charge =  0.00000
