  ==> Input File <==

--------------------------------------------------------------------------
set {
	reference rhf
	basis cc-pvtz
}

set_num_threads( 4 )
memory 2 gb

molecule MOL {
0 1

H	 -1.752232	 -2.214755	 -0.011938
C	 -1.343852	 -1.221619	 -0.018179
N	 -0.058800	 -1.097635	 -0.261688
C	 -2.148159	 -0.124236	 0.219734
C	 0.449026	 0.119242	 -0.273393
H	 -3.196988	 -0.237571	 0.417076
N	 -1.655094	 1.094230	 0.209506
C	 -0.370318	 1.215445	 -0.035100
C	 1.924033	 0.265863	 -0.538106
H	 0.033214	 2.210441	 -0.046812
C	 2.699517	 0.738431	 0.692648
H	 2.307089	 -0.696019	 -0.857189
H	 2.075021	 0.959662	 -1.356677
H	 3.758820	 0.798926	 0.473214
H	 2.561372	 0.051139	 1.516981
H	 2.365814	 1.719617	 1.011181

	symmetry c1
}
set optking {
	frozen_dihedral = ("
		12 9 5 3
	")
}

ee = optimize('scf')
oeprop('DIPOLE', 'QUADRUPOLE', 'MULLIKEN_CHARGES')
f=open( 'psi4out.xyz', 'w' )
f.write( "16  " )
f.write( str(ee) + "\n" )
f.write( MOL.save_string_xyz() )
f.close()
--------------------------------------------------------------------------

    Molecular point group: c1
  Charge       = 0
  Multiplicity = 1
  Basis Set: CC-PVTZ
  Basis Set:
  @DF-RHF Final Energy:  -340.87111994594602
    Total Energy =                       -340.8711199459460772
    Molecular point group: c1
  Basis Set: CC-PVTZ
  Basis Set:
  Basis Set: CC-PVTZ
  Basis Set:
  @DF-RHF Final Energy:  -340.87121696031892
    Total Energy =                       -340.8712169603188613
  Basis Set: CC-PVTZ
  Basis Set:
  Basis Set: CC-PVTZ
  Basis Set:
  @DF-RHF Final Energy:  -340.87125296188350
    Total Energy =                       -340.8712529618834424
  Basis Set: CC-PVTZ
  Basis Set:
  Basis Set: CC-PVTZ
  Basis Set:
  @DF-RHF Final Energy:  -340.87126782398133
    Total Energy =                       -340.8712678239814977
  Basis Set: CC-PVTZ
  Basis Set:
  Basis Set: CC-PVTZ
  Basis Set:
  @DF-RHF Final Energy:  -340.87127154986405
    Total Energy =                       -340.8712715498637635
  Basis Set: CC-PVTZ
  Basis Set:
  Charge       = 0
  Multiplicity = 1
  Basis Set: CC-PVTZ
  Basis Set:

    Orbital Energies (a.u.)
    -----------------------

    Doubly Occupied:

       1A    -15.580517     2A    -15.575778     3A    -11.279012
       4A    -11.270805     5A    -11.269453     6A    -11.266787
       7A    -11.231475     8A    -11.221131     9A     -1.315666
      10A     -1.223684    11A     -1.086774    12A     -1.016371
      13A     -0.905456    14A     -0.897007    15A     -0.831344
      16A     -0.717503    17A     -0.713945    18A     -0.658182
      19A     -0.614440    20A     -0.607247    21A     -0.584621
      22A     -0.564750    23A     -0.523898    24A     -0.510892
      25A     -0.505549    26A     -0.484503    27A     -0.434024
      28A     -0.397709    29A     -0.346367

  @DF-RHF Final Energy:  -340.87127217870659

   => Energetics <=

    Nuclear Repulsion Energy =            350.3041571082628707
    One-Electron Energy =               -1155.0810755199083815
    Two-Electron Energy =                 463.9056462329390911
    DFT Exchange-Correlation Energy =       0.0000000000000000
    Empirical Dispersion Energy =           0.0000000000000000
    PCM Polarization Energy =               0.0000000000000000
    EFP Energy =                            0.0000000000000000
    Total Energy =                       -340.8712721787064197
    Molecular point group: c1
  Basis Set: CC-PVTZ
  Basis Set:

  -Total Gradient:
     Atom            X                  Y                   Z
    ------   -----------------  -----------------  -----------------
       1       -0.000007030300     0.000000813622     0.000016099477
       2       -0.000050808844    -0.000020796247     0.000017266034
       3       -0.000194664438     0.000108575094    -0.001139198173
       4       -0.000018663403    -0.000031381688    -0.000036413852
       5        0.000367310728    -0.000184088330     0.001779261127
       6        0.000004483882    -0.000001565231     0.000021542182
       7        0.000011451921     0.000000141444    -0.000023956554
       8        0.000014983691     0.000028744780     0.000069191055
       9       -0.000438230221     0.000490999963    -0.001932017813
      10        0.000011833041    -0.000014268652     0.000001182093
      11        0.000015075106    -0.000041505434     0.000018127815
      12        0.000261764759    -0.000341278151     0.001230651531
      13        0.000014845201    -0.000033124032    -0.000014274661
      14        0.000015853051     0.000010931072     0.000007457159
      15        0.000016739354     0.000016279674    -0.000022929168
      16       -0.000024943527     0.000011522115     0.000008011749

  **** Optimization is complete! (in 6 steps) ****
    Final optimized geometry and variables:
    Molecular point group: c1

    Geometry (in Angstrom), charge = 0, multiplicity = 1:

    H           -1.747569621091    -2.347266382925    -0.014621316321
    C           -1.340022120913    -1.354186640710    -0.023308787323
    N           -0.047829703714    -1.233612105459    -0.262580399188
    C           -2.140689116493    -0.258931815608     0.202674698882
    C            0.461328599943    -0.022649823806    -0.273486987399
    H           -3.190678811545    -0.366965933355     0.395074046149
    N           -1.644167027094     0.963923638724     0.185669838493
    C           -0.362640686779     1.080283980690    -0.049250627160
    C            1.936442685731     0.134885752433    -0.540873369553
    H            0.042440348236     2.074987952708    -0.069593018620
    C            2.724584733747     0.606071595334     0.684065630318
    H            2.312267032894    -0.826089929093    -0.862047505215
    H            2.081581278716     0.835636502634    -1.356376015786
    H            3.778025912097     0.690025694355     0.445459274334
    H            2.619812472525    -0.096452698954     1.502191433543
    H            2.384433971188     1.574875002832     1.030671959490

  Mulliken Charges: (a.u.)
   Center  Symbol    Alpha    Beta     Spin     Total
       1     H     0.41369  0.41369  0.00000  0.17262
       2     C     3.04127  3.04127  0.00000 -0.08254
       3     N     3.59234  3.59234  0.00000 -0.18467
       4     C     3.04840  3.04840  0.00000 -0.09681
       5     C     2.94278  2.94278  0.00000  0.11444
       6     H     0.41345  0.41345  0.00000  0.17311
       7     N     3.58715  3.58715  0.00000 -0.17430
       8     C     3.07819  3.07819  0.00000 -0.15637
       9     C     3.08654  3.08654  0.00000 -0.17308
      10     H     0.41467  0.41467  0.00000  0.17065
      11     C     3.14485  3.14485  0.00000 -0.28970
      12     H     0.44047  0.44047  0.00000  0.11906
      13     H     0.44586  0.44586  0.00000  0.10828
      14     H     0.44755  0.44755  0.00000  0.10490
      15     H     0.44859  0.44859  0.00000  0.10281
      16     H     0.45420  0.45420  0.00000  0.09160

   Total alpha = 29.00000, Total beta = 29.00000, Total charge =  0.00000
