  ==> Input File <==

--------------------------------------------------------------------------
set {
	reference rhf
	basis 6-31G*
}

set_num_threads( 4 )
memory 2 gb

molecule MOL {
0 1

O	 -2.027298	 -0.546203	 -1.321622
C	 -1.702598	 0.270838	 -0.522068
C	 -2.433819	 1.559489	 -0.259313
O	 -0.632575	 0.154573	 0.251549
H	 -1.772691	 2.399191	 -0.440301
H	 -3.298149	 1.623694	 -0.903244
H	 -2.740513	 1.601165	 0.779416
C	 0.160891	 -1.019931	 0.106212
C	 1.589627	 -0.672828	 0.480843
H	 0.089836	 -1.367806	 -0.916050
H	 -0.238459	 -1.792301	 0.749618
C	 2.246377	 0.346236	 -0.452210
H	 2.163194	 -1.597435	 0.473358
H	 1.604769	 -0.303424	 1.502885
C	 3.691736	 0.652107	 -0.061850
H	 2.219579	 -0.032311	 -1.472055
H	 1.666466	 1.263317	 -0.447249
H	 4.134505	 1.377213	 -0.737283
H	 4.305508	 -0.243868	 -0.089969
H	 3.748266	 1.059562	 0.943567

	symmetry c1
}
set optking {
	frozen_dihedral = ("
		2 4 8 10
	")
}

ee = optimize('scf')
oeprop('DIPOLE', 'QUADRUPOLE', 'MULLIKEN_CHARGES')
f=open( 'psi4out.xyz', 'w' )
f.write( "20  " )
f.write( str(ee) + "\n" )
f.write( MOL.save_string_xyz() )
f.close()
--------------------------------------------------------------------------

    Molecular point group: c1
  Charge       = 0
  Multiplicity = 1
  Basis Set: 6-31G*
  Basis Set:
  @DF-RHF Final Energy:  -383.94446925710378
    Total Energy =                       -383.9444692571036057
    Molecular point group: c1
  Basis Set: 6-31G*
  Basis Set:
  Basis Set: 6-31G*
  Basis Set:
  @DF-RHF Final Energy:  -383.94439629403553
    Total Energy =                       -383.9443962940355277
  Basis Set: 6-31G*
  Basis Set:
  Basis Set: 6-31G*
  Basis Set:
  @DF-RHF Final Energy:  -383.94359641708502
    Total Energy =                       -383.9435964170852458
  Basis Set: 6-31G*
  Basis Set:
  Basis Set: 6-31G*
  Basis Set:
  @DF-RHF Final Energy:  -383.94470010365552
    Total Energy =                       -383.9447001036560323
  Basis Set: 6-31G*
  Basis Set:
  Basis Set: 6-31G*
  Basis Set:
  @DF-RHF Final Energy:  -383.94472823868648
    Total Energy =                       -383.9447282386860252
  Basis Set: 6-31G*
  Basis Set:
  Charge       = 0
  Multiplicity = 1
  Basis Set: 6-31G*
  Basis Set:

    Orbital Energies (a.u.)
    -----------------------

    Doubly Occupied:

       1A    -20.601446     2A    -20.543719     3A    -11.375144
       4A    -11.281704     5A    -11.233094     6A    -11.225620
       7A    -11.221198     8A    -11.213752     9A     -1.466570
      10A     -1.362444    11A     -1.086036    12A     -1.028480
      13A     -0.981459    14A     -0.882053    15A     -0.810126
      16A     -0.775611    17A     -0.691268    18A     -0.680011
      19A     -0.666669    20A     -0.632480    21A     -0.601919
      22A     -0.593680    23A     -0.572870    24A     -0.549088
      25A     -0.541420    26A     -0.535041    27A     -0.508990
      28A     -0.482781    29A     -0.479539    30A     -0.474643
      31A     -0.445636    32A     -0.437479

  @DF-RHF Final Energy:  -383.94472845881529

   => Energetics <=

    Nuclear Repulsion Energy =            386.6973052983931325
    One-Electron Energy =               -1289.3201239593779519
    Two-Electron Energy =                 518.6780902021698694
    DFT Exchange-Correlation Energy =       0.0000000000000000
    Empirical Dispersion Energy =           0.0000000000000000
    PCM Polarization Energy =               0.0000000000000000
    EFP Energy =                            0.0000000000000000
    Total Energy =                       -383.9447284588150069
    Molecular point group: c1
  Basis Set: 6-31G*
  Basis Set:

  -Total Gradient:
     Atom            X                  Y                   Z
    ------   -----------------  -----------------  -----------------
       1        0.000017590596     0.000004998699     0.000010698217
       2        0.000706766048     0.000652035405    -0.000973718693
       3       -0.000006870044     0.000009926868    -0.000012399893
       4       -0.001361861419    -0.001149025625     0.001506139439
       5       -0.000004202416    -0.000002673791     0.000002990489
       6       -0.000007297265     0.000010744355     0.000001996543
       7       -0.000000926070    -0.000000702188    -0.000001111020
       8        0.001858133190     0.001414266017    -0.000930533670
       9       -0.000019586845     0.000010656107     0.000014719218
      10       -0.001207056824    -0.000920248440     0.000402721800
      11        0.000015955241    -0.000018866825    -0.000002012201
      12        0.000007964902    -0.000009293032    -0.000018780613
      13       -0.000011026801     0.000006867036    -0.000009889621
      14        0.000006839079    -0.000004359719     0.000008875039
      15       -0.000001703418     0.000006166270     0.000005785952
      16        0.000005155090    -0.000000570161    -0.000005054204
      17        0.000000499317    -0.000012093343    -0.000002970800
      18       -0.000001823175     0.000003853719     0.000003976763
      19        0.000001079098     0.000001226725    -0.000004929415
      20        0.000002371725    -0.000002908080     0.000003496669

  **** Optimization is complete! (in 6 steps) ****
    Final optimized geometry and variables:
    Molecular point group: c1

    Geometry (in Angstrom), charge = 0, multiplicity = 1:

    O           -2.186906477531    -0.652107266492    -1.073659988923
    C           -1.822453499147     0.167102720066    -0.293846133314
    C           -2.524615148210     1.471205208601    -0.026301496803
    O           -0.738117820565     0.043785282909     0.459398976813
    H           -1.854308359467     2.297652546838    -0.232474468362
    H           -3.404069870050     1.543603366791    -0.648525731430
    H           -2.803751522797     1.528072068259     1.019476901818
    C            0.074503591125    -1.118210272198     0.309520035615
    C            1.497477854141    -0.765311331455     0.701556439299
    H            0.005877776248    -1.472777052511    -0.707744167038
    H           -0.325097618799    -1.889301272685     0.957189457770
    C            2.162954883893     0.247894235117    -0.231236614402
    H            2.072992124465    -1.688790719245     0.708934188964
    H            1.499365128031    -0.387726617714     1.720601635376
    C            3.601102421445     0.565060615826     0.176606253100
    H            2.152155285381    -0.139418550791    -1.247937018641
    H            1.579272119507     1.162936530468    -0.242054950710
    H            4.049629987530     1.286124524766    -0.499326575506
    H            4.219780730371    -0.327899301877     0.165451713237
    H            3.641257508143     0.982038886759     1.178880000274

  Mulliken Charges: (a.u.)
   Center  Symbol    Alpha    Beta     Spin     Total
       1     O     4.28292  4.28292  0.00000 -0.56584
       2     C     2.61922  2.61922  0.00000  0.76157
       3     C     3.28209  3.28209  0.00000 -0.56418
       4     O     4.30931  4.30931  0.00000 -0.61863
       5     H     0.40119  0.40119  0.00000  0.19761
       6     H     0.39699  0.39699  0.00000  0.20602
       7     H     0.40037  0.40037  0.00000  0.19925
       8     C     3.00666  3.00666  0.00000 -0.01333
       9     C     3.16361  3.16361  0.00000 -0.32723
      10     H     0.40087  0.40087  0.00000  0.19827
      11     H     0.41292  0.41292  0.00000  0.17417
      12     C     3.15566  3.15566  0.00000 -0.31133
      13     H     0.41863  0.41863  0.00000  0.16274
      14     H     0.41425  0.41425  0.00000  0.17151
      15     C     3.24025  3.24025  0.00000 -0.48050
      16     H     0.42142  0.42142  0.00000  0.15715
      17     H     0.41426  0.41426  0.00000  0.17148
      18     H     0.41742  0.41742  0.00000  0.16517
      19     H     0.42144  0.42144  0.00000  0.15712
      20     H     0.42051  0.42051  0.00000  0.15898

   Total alpha = 32.00000, Total beta = 32.00000, Total charge = -0.00000
