  ==> Input File <==

--------------------------------------------------------------------------
set {
	reference rhf
	basis cc-pvtz
}

set_num_threads( 4 )
memory 2 gb

molecule MOL {
0 1

H	 2.247077	 0.879561	 -0.581281
C	 1.954439	 -0.098770	 -0.217427
N	 0.526300	 -0.128137	 0.000000
H	 2.471895	 -0.269399	 0.718076
H	 2.303280	 -0.838702	 -0.940879
C	 -0.247113	 0.037112	 -1.209233
H	 0.268986	 -0.976982	 0.454874
H	 -0.996493	 -0.743733	 -1.271440
H	 0.397975	 -0.057351	 -2.073512
H	 -0.763794	 0.997171	 -1.271673

	symmetry c1
}
set optking {
	frozen_dihedral = ("
		2 3 6 8
	")
}

ee = optimize('scf')
oeprop('DIPOLE', 'QUADRUPOLE', 'MULLIKEN_CHARGES')
f=open( 'psi4out.xyz', 'w' )
f.write( "10  " )
f.write( str(ee) + "\n" )
f.write( MOL.save_string_xyz() )
f.close()
--------------------------------------------------------------------------

    Molecular point group: c1
  Charge       = 0
  Multiplicity = 1
  Basis Set: CC-PVTZ
  Basis Set:
  @DF-RHF Final Energy:  -134.28808162511370
    Total Energy =                       -134.2880816251137048
    Molecular point group: c1
  Basis Set: CC-PVTZ
  Basis Set:
  Basis Set: CC-PVTZ
  Basis Set:
  @DF-RHF Final Energy:  -134.28863965771643
    Total Energy =                       -134.2886396577164874
  Basis Set: CC-PVTZ
  Basis Set:
  Basis Set: CC-PVTZ
  Basis Set:
  @DF-RHF Final Energy:  -134.28870902791056
    Total Energy =                       -134.2887090279105564
  Basis Set: CC-PVTZ
  Basis Set:
  Charge       = 0
  Multiplicity = 1
  Basis Set: CC-PVTZ
  Basis Set:

    Orbital Energies (a.u.)
    -----------------------

    Doubly Occupied:

       1A    -15.530183     2A    -11.234421     3A    -11.234102
       4A     -1.197053     5A     -0.948180     6A     -0.854934
       7A     -0.660627     8A     -0.611955     9A     -0.589090
      10A     -0.546137    11A     -0.508883    12A     -0.504948
      13A     -0.360920

  @DF-RHF Final Energy:  -134.28871006783072

   => Energetics <=

    Nuclear Repulsion Energy =             84.5036331926121420
    One-Electron Energy =                -348.0218194053944671
    Two-Electron Energy =                 129.2294761449515477
    DFT Exchange-Correlation Energy =       0.0000000000000000
    Empirical Dispersion Energy =           0.0000000000000000
    PCM Polarization Energy =               0.0000000000000000
    EFP Energy =                            0.0000000000000000
    Total Energy =                       -134.2887100678307775
    Molecular point group: c1
  Basis Set: CC-PVTZ
  Basis Set:

  -Total Gradient:
     Atom            X                  Y                   Z
    ------   -----------------  -----------------  -----------------
       1       -0.000046773536    -0.000013345876     0.000001222681
       2        0.000016149442    -0.002025362737    -0.000164995356
       3        0.000493363829     0.002397325925    -0.000084088169
       4        0.000047960578     0.000001365428     0.000012370858
       5       -0.000031697695     0.000011359881     0.000001254501
       6       -0.002125118879     0.001088918198     0.001546655299
       7        0.000042142176     0.000022382169     0.000013197026
       8        0.001646973056    -0.001499128056    -0.001305483906
       9       -0.000009011467     0.000012838402     0.000014441403
      10       -0.000033987504     0.000003646667    -0.000034574337

  **** Optimization is complete! (in 4 steps) ****
    Final optimized geometry and variables:
    Molecular point group: c1

    Geometry (in Angstrom), charge = 0, multiplicity = 1:

    H            1.511988029821     0.956931992763    -0.083241831785
    C            1.211487111265    -0.017868584171     0.283432118230
    N           -0.219310884480    -0.047208041350     0.485610082340
    H            1.716432247188    -0.179914385933     1.227582681893
    H            1.569335958653    -0.764093643140    -0.428251935790
    C           -1.010527543515     0.109651116324    -0.724278760965
    H           -0.472166853615    -0.887883506414     0.953170376886
    H           -1.766127731639    -0.663960460334    -0.797558189600
    H           -0.398663298793     0.028632269970    -1.619387834739
    H           -1.506407250540     1.073373908572    -0.750464393914

  Mulliken Charges: (a.u.)
   Center  Symbol    Alpha    Beta     Spin     Total
       1     H     0.45633  0.45633  0.00000  0.08734
       2     C     3.08309  3.08309  0.00000 -0.16619
       3     N     3.63122  3.63122  0.00000 -0.26243
       4     H     0.45319  0.45319  0.00000  0.09362
       5     H     0.47399  0.47399  0.00000  0.05202
       6     C     3.07622  3.07622  0.00000 -0.15244
       7     H     0.44071  0.44071  0.00000  0.11859
       8     H     0.45965  0.45965  0.00000  0.08070
       9     H     0.46974  0.46974  0.00000  0.06052
      10     H     0.45586  0.45586  0.00000  0.08827

   Total alpha = 13.00000, Total beta = 13.00000, Total charge = -0.00000
