                              Psi4 1.0.54 Driver

  ==> Input File <==

--------------------------------------------------------------------------
set {
	reference rhf
	basis cc-pvtz
}

set_num_threads( 4 )
memory 2 gb

molecule MOL {
0 1

H	 0.083144	 -2.547901	 -0.315416
C	 -0.794875	 -1.903917	 -0.391684
N	 -0.537714	 -0.645117	 0.000000
O	 -1.841264	 -2.314433	 -0.783173
C	 -1.522613	 0.412524	 0.000000
H	 0.382302	 -0.442142	 0.303900
H	 -2.150256	 0.356137	 -0.880771
H	 -1.005621	 1.357208	 0.000000
H	 -2.150256	 0.356137	 0.880771

	symmetry c1
}
set optking {
	frozen_dihedral = ("
		6 3 5 7
	")
}

ee,wfn = optimize('scf', return_wfn=True)
oeprop( wfn, 'DIPOLE', 'QUADRUPOLE', 'MULLIKEN_CHARGES')
f=open( 'psi4out.xyz', 'w' )
f.write( "9  " )
f.write( str(ee) + "\n" )
f.write( MOL.save_string_xyz() )
f.close()
--------------------------------------------------------------------------

    Molecular point group: c1
  Charge       = 0
  Multiplicity = 1
  Basis Set: CC-PVTZ
  Basis Set:
  @DF-RHF Final Energy:  -208.04342602888300
    Total Energy =                       -208.0434260288830615
    Molecular point group: c1
  Basis Set: CC-PVTZ
  Basis Set:
  Basis Set: CC-PVTZ
  Basis Set:
  @DF-RHF Final Energy:  -208.04361270429774
    Total Energy =                       -208.0436127042976295
  Basis Set: CC-PVTZ
  Basis Set:
  Basis Set: CC-PVTZ
  Basis Set:
  @DF-RHF Final Energy:  -208.04361604804413
    Total Energy =                       -208.0436160480440719
  Basis Set: CC-PVTZ
  Basis Set:
  Basis Set: CC-PVTZ
  Basis Set:
  @DF-RHF Final Energy:  -208.04365327805567
    Total Energy =                       -208.0436532780557570
  Basis Set: CC-PVTZ
  Basis Set:
  Basis Set: CC-PVTZ
  Basis Set:
  @DF-RHF Final Energy:  -208.04367161152018
    Total Energy =                       -208.0436716115200682
  Basis Set: CC-PVTZ
  Basis Set:
  Basis Set: CC-PVTZ
  Basis Set:
  @DF-RHF Final Energy:  -208.04368000796467
    Total Energy =                       -208.0436800079647242
  Basis Set: CC-PVTZ
  Basis Set:
  Charge       = 0
  Multiplicity = 1
  Basis Set: CC-PVTZ
  Basis Set:

    Orbital Energies (a.u.)
    -----------------------

    Doubly Occupied:

       1A    -20.516766     2A    -15.584453     3A    -11.336261
       4A    -11.260315     5A     -1.394076     6A     -1.239411
       7A     -0.969787     8A     -0.809001     9A     -0.749020
      10A     -0.645978    11A     -0.629936    12A     -0.596179
      13A     -0.558909    14A     -0.537709    15A     -0.428462
      16A     -0.396762

  @DF-RHF Final Energy:  -208.04368085457963

   => Energetics <=

    Nuclear Repulsion Energy =            122.9026954490627617
    One-Electron Energy =                -526.5867029512616000
    Two-Electron Energy =                 195.6403266476193039
    DFT Exchange-Correlation Energy =       0.0000000000000000
    Empirical Dispersion Energy =           0.0000000000000000
    PCM Polarization Energy =               0.0000000000000000
    EFP Energy =                            0.0000000000000000
    Total Energy =                       -208.0436808545795202
    Molecular point group: c1
  Basis Set: CC-PVTZ
  Basis Set:

  -Total Gradient:
     Atom            X                  Y                   Z
    ------   -----------------  -----------------  -----------------
       1        0.000000652784    -0.000003595848    -0.000015279637
       2        0.000072386371     0.000000653205     0.000067397925
       3       -0.000005006563    -0.000058065142     0.000017726004
       4       -0.000025238683     0.000025371989    -0.000023735873
       5       -0.000031002072     0.000053225945    -0.000017852364
       6       -0.000001911323    -0.000010253580    -0.000032418532
       7       -0.000000892822     0.000011112207    -0.000016336609
       8       -0.000011911922    -0.000016490786     0.000007548016
       9        0.000002924230    -0.000001957993     0.000012951069

  **** Optimization is complete! (in 7 steps) ****
    Final optimized geometry and variables:
    Molecular point group: c1

    Geometry (in Angstrom), charge = 0, multiplicity = 1:

    H            1.250934061767    -1.468401123242    -0.035225430435
    C            0.383372924870    -0.808495025443    -0.094720976853
    N            0.669989517640     0.459103842289     0.240461019577
    O           -0.687838575850    -1.201030680011    -0.434226943785
    C           -0.336895143256     1.496330321234     0.276977420898
    H            1.580668327246     0.656612565517     0.572739411186
    H           -0.933531235496     1.461795934655    -0.621950259651
    H            0.153355182794     2.457380245547     0.336542085510
    H           -0.997401002896     1.384954211918     1.128245014343

  Mulliken Charges: (a.u.)
   Center  Symbol    Alpha    Beta     Spin     Total
       1     H     0.46419  0.46419  0.00000  0.07162
       2     C     2.87989  2.87989  0.00000  0.24022
       3     N     3.60585  3.60585  0.00000 -0.21169
       4     O     4.21414  4.21414  0.00000 -0.42827
       5     C     3.07605  3.07605  0.00000 -0.15209
       6     H     0.41030  0.41030  0.00000  0.17939
       7     H     0.44202  0.44202  0.00000  0.11595
       8     H     0.45425  0.45425  0.00000  0.09150
       9     H     0.45331  0.45331  0.00000  0.09337

   Total alpha = 16.00000, Total beta = 16.00000, Total charge = -0.00000

*** Psi4 exiting successfully. Buy a developer a beer!
