  ==> Input File <==

--------------------------------------------------------------------------
set {
	reference rhf
	basis 6-31G*
}

set_num_threads( 1 )
memory 2 gb

molecule MOL {
0 1

O	 0.749854	 1.307668	 -0.000040
C	 0.576249	 0.131685	 -0.000108
C	 -0.766779	 -0.556801	 -0.000461
O	 1.568443	 -0.749345	 -0.000005
C	 -1.945214	 0.412366	 0.000161
H	 -0.796911	 -1.211249	 -0.867467
H	 -0.796854	 -1.212390	 0.865687
C	 -2.283726	 0.904716	 -1.406100
H	 -1.714763	 1.255770	 0.642161
H	 -2.809034	 -0.074750	 0.439601
H	 -1.442823	 1.424827	 -1.856455
H	 -3.122896	 1.592248	 -1.383852
H	 -2.550308	 0.079726	 -2.060927
C	 2.886820	 -0.232538	 0.000322
H	 3.059106	 0.369571	 -0.880203
H	 3.540187	 -1.091012	 0.000050
H	 3.059019	 0.368956	 0.881266

	symmetry c1
}
set optking {
	frozen_dihedral = ("
		1 2 3 6,
		14 4 2 1
	")
}

ee = energy('scf')
oeprop('DIPOLE', 'QUADRUPOLE', 'MULLIKEN_CHARGES')
f=open( 'psi4out.xyz', 'w' )
f.write( "17  " )
f.write( str(ee) + "\n" )
f.write( MOL.save_string_xyz() )
f.close()
--------------------------------------------------------------------------

    Molecular point group: c1

    Geometry (in Angstrom), charge = 0, multiplicity = 1:

       Center              X                  Y                   Z               Mass
    ------------   -----------------  -----------------  -----------------  -----------------
           O          0.602051582382     1.127818309269     0.206960205993    15.994914619560
           C          0.428446582382    -0.048164690731     0.206892205993    12.000000000000
           C         -0.914581417618    -0.736650690731     0.206539205993    12.000000000000
           O          1.420640582382    -0.929194690731     0.206995205993    15.994914619560
           C         -2.093016417618     0.232516309269     0.207161205993    12.000000000000
           H         -0.944713417618    -1.391098690731    -0.660466794007     1.007825032070
           H         -0.944656417618    -1.392239690731     1.072687205993     1.007825032070
           C         -2.431528417618     0.724866309269    -1.199099794007    12.000000000000
           H         -1.862565417618     1.075920309269     0.849161205993     1.007825032070
           H         -2.956836417618    -0.254599690731     0.646601205993     1.007825032070
           H         -1.590625417618     1.244977309269    -1.649454794007     1.007825032070
           H         -3.270698417618     1.412398309269    -1.176851794007     1.007825032070
           H         -2.698110417618    -0.100123690731    -1.853926794007     1.007825032070
           C          2.739017582382    -0.412387690731     0.207322205993    12.000000000000
           H          2.911303582382     0.189721309269    -0.673202794007     1.007825032070
           H          3.392384582382    -1.270861690731     0.207050205993     1.007825032070
           H          2.911216582382     0.189106309269     1.088266205993     1.007825032070

  Charge       = 0
  Multiplicity = 1
  Basis Set: 6-31G*
  Basis Set:

    Orbital Energies (a.u.)
    -----------------------

    Doubly Occupied:

       1A    -20.604803     2A    -20.546876     3A    -11.373474
       4A    -11.281611     5A    -11.235397     6A    -11.220732
       7A    -11.208429     8A     -1.470587     9A     -1.364299
      10A     -1.079721    11A     -0.999586    12A     -0.937606
      13A     -0.829240    14A     -0.766553    15A     -0.703100
      16A     -0.681970    17A     -0.672494    18A     -0.618179
      19A     -0.614373    20A     -0.568033    21A     -0.565201
      22A     -0.533825    23A     -0.523831    24A     -0.487159
      25A     -0.484158    26A     -0.479958    27A     -0.457098
      28A     -0.438791

  @DF-RHF Final Energy:  -344.90545835498551

   => Energetics <=

    Nuclear Repulsion Energy =            317.3979633893026175
    One-Electron Energy =               -1099.1125935196462251
    Two-Electron Energy =                 436.8091717753590046
    DFT Exchange-Correlation Energy =       0.0000000000000000
    Empirical Dispersion Energy =           0.0000000000000000
    PCM Polarization Energy =               0.0000000000000000
    EFP Energy =                            0.0000000000000000
    Total Energy =                       -344.9054583549846029

  Mulliken Charges: (a.u.)
   Center  Symbol    Alpha    Beta     Spin     Total
       1     O     4.28591  4.28591  0.00000 -0.57181
       2     C     2.60754  2.60754  0.00000  0.78492
       3     C     3.20833  3.20833  0.00000 -0.41665
       4     O     4.30624  4.30624  0.00000 -0.61248
       5     C     3.15604  3.15604  0.00000 -0.31208
       6     H     0.40008  0.40008  0.00000  0.19985
       7     H     0.39823  0.39823  0.00000  0.20355
       8     C     3.24460  3.24460  0.00000 -0.48920
       9     H     0.40383  0.40383  0.00000  0.19235
      10     H     0.41835  0.41835  0.00000  0.16330
      11     H     0.41016  0.41016  0.00000  0.17968
      12     H     0.41775  0.41775  0.00000  0.16450
      13     H     0.42430  0.42430  0.00000  0.15140
      14     C     3.09244  3.09244  0.00000 -0.18489
      15     H     0.40901  0.40901  0.00000  0.18198
      16     H     0.40827  0.40827  0.00000  0.18346
      17     H     0.40893  0.40893  0.00000  0.18214

   Total alpha = 28.00000, Total beta = 28.00000, Total charge = -0.00000
