  ==> Input File <==

--------------------------------------------------------------------------
set {
	reference rhf
	basis cc-pvtz
}

set_num_threads( 4 )
memory 2 gb

molecule MOL {
0 1

H	 2.828711	 -0.346904	 0.001083
C	 1.876752	 0.015931	 -0.363450
C	 0.776285	 -0.474665	 0.563092
H	 1.728113	 -0.357244	 -1.367440
H	 1.906171	 1.096574	 -0.386153
N	 -0.540022	 0.017605	 0.071630
H	 0.707111	 -1.548969	 0.573035
H	 0.886169	 -0.084184	 1.560432
O	 -0.629231	 1.173252	 -0.174779
O	 -1.417417	 -0.774527	 -0.012629

	symmetry c1
}
set optking {
	frozen_dihedral = ("
		9 6 3 2
	")
}

ee = optimize('scf')
oeprop('DIPOLE', 'QUADRUPOLE', 'MULLIKEN_CHARGES')
f=open( 'psi4out.xyz', 'w' )
f.write( "10  " )
f.write( str(ee) + "\n" )
f.write( MOL.save_string_xyz() )
f.close()
--------------------------------------------------------------------------

    Molecular point group: c1
  Charge       = 0
  Multiplicity = 1
  Basis Set: CC-PVTZ
  Basis Set:
  @DF-RHF Final Energy:  -282.81272804985372
    Total Energy =                       -282.8127280498537743
    Molecular point group: c1
  Basis Set: CC-PVTZ
  Basis Set:
  Basis Set: CC-PVTZ
  Basis Set:
  @DF-RHF Final Energy:  -282.81013219840588
    Total Energy =                       -282.8101321984058814
  Basis Set: CC-PVTZ
  Basis Set:
  Basis Set: CC-PVTZ
  Basis Set:
  @DF-RHF Final Energy:  -282.81234719342353
    Total Energy =                       -282.8123471934235909
  Basis Set: CC-PVTZ
  Basis Set:
  Basis Set: CC-PVTZ
  Basis Set:
  @DF-RHF Final Energy:  -282.81312546230606
    Total Energy =                       -282.8131254623060613
  Basis Set: CC-PVTZ
  Basis Set:
  Basis Set: CC-PVTZ
  Basis Set:
  @DF-RHF Final Energy:  -282.81313107945965
    Total Energy =                       -282.8131310794596516
  Basis Set: CC-PVTZ
  Basis Set:
  Charge       = 0
  Multiplicity = 1
  Basis Set: CC-PVTZ
  Basis Set:

    Orbital Energies (a.u.)
    -----------------------

    Doubly Occupied:

       1A    -20.593707     2A    -20.590847     3A    -15.839013
       4A    -11.302439     5A    -11.247122     6A     -1.638229
       7A     -1.422529     8A     -1.125043     9A     -0.966976
      10A     -0.837627    11A     -0.764690    12A     -0.743933
      13A     -0.731258    14A     -0.652128    15A     -0.591340
      16A     -0.563071    17A     -0.542238    18A     -0.489628
      19A     -0.479429    20A     -0.455807

  @DF-RHF Final Energy:  -282.81313233087803

   => Energetics <=

    Nuclear Repulsion Energy =            186.6150332511998329
    One-Electron Energy =                -755.7022230963427774
    Two-Electron Energy =                 286.2740575142648822
    DFT Exchange-Correlation Energy =       0.0000000000000000
    Empirical Dispersion Energy =           0.0000000000000000
    PCM Polarization Energy =               0.0000000000000000
    EFP Energy =                            0.0000000000000000
    Total Energy =                       -282.8131323308780338
    Molecular point group: c1
  Basis Set: CC-PVTZ
  Basis Set:

  -Total Gradient:
     Atom            X                  Y                   Z
    ------   -----------------  -----------------  -----------------
       1        0.000012241341    -0.000003738480    -0.000000073169
       2        0.000054647031     0.000208640257     0.000120130849
       3       -0.000036925839    -0.000252062211    -0.000282418937
       4       -0.000005949955     0.000001501330     0.000010456105
       5       -0.000003323983    -0.000019580929    -0.000009398279
       6       -0.000101353986     0.000207773435     0.000366569760
       7       -0.000025483815     0.000009472981     0.000002073027
       8        0.000002504717     0.000007830682     0.000001806537
       9        0.000130902627    -0.000070801950    -0.000229088422
      10       -0.000027258137    -0.000089035113     0.000019942528

  **** Optimization is complete! (in 6 steps) ****
    Final optimized geometry and variables:
    Molecular point group: c1

    Geometry (in Angstrom), charge = 0, multiplicity = 1:

    H            2.844818479892    -0.365136482059    -0.007438266391
    C            1.904293241171     0.020092147994    -0.380151528518
    C            0.791282419661    -0.463370228107     0.528267063023
    H            1.765533323879    -0.342690087089    -1.390486701227
    H            1.950735801494     1.097816188162    -0.398802190950
    N           -0.543023761248     0.018649874416     0.065930716919
    H            0.714514677424    -1.535423199736     0.566969107079
    H            0.895348928953    -0.068477796354     1.528554645896
    O           -0.651056636192     1.175469598856    -0.168341018976
    O           -1.410710867178    -0.782745297935    -0.019328242223

  Mulliken Charges: (a.u.)
   Center  Symbol    Alpha    Beta     Spin     Total
       1     H     0.44891  0.44891  0.00000  0.10218
       2     C     3.14123  3.14123  0.00000 -0.28246
       3     C     3.03918  3.03918  0.00000 -0.07835
       4     H     0.44528  0.44528  0.00000  0.10943
       5     H     0.43636  0.43636  0.00000  0.12728
       6     N     3.27792  3.27792  0.00000  0.44417
       7     H     0.43166  0.43166  0.00000  0.13667
       8     H     0.43748  0.43748  0.00000  0.12503
       9     O     4.17345  4.17345  0.00000 -0.34690
      10     O     4.16852  4.16852  0.00000 -0.33704

   Total alpha = 20.00000, Total beta = 20.00000, Total charge = -0.00000
