  ==> Input File <==

--------------------------------------------------------------------------
set {
	reference rhf
	basis cc-pvtz
}

set_num_threads( 4 )
memory 2 gb

molecule MOL {
0 1

H	 1.071884	 0.400346	 0.649415
C	 0.788096	 -0.429819	 0.000000
N	 -0.537714	 -0.645117	 0.000000
O	 1.596558	 -1.046069	 -0.619147
C	 -1.522613	 0.412524	 0.000000
H	 -0.845894	 -1.585866	 0.000000
H	 -2.150256	 0.356137	 -0.880771
H	 -1.005621	 1.357208	 0.000000
H	 -2.150256	 0.356137	 0.880771

	symmetry c1
}
set optking {
	frozen_dihedral = ("
		1 2 3 6
	")
}

ee = optimize('scf')
oeprop('DIPOLE', 'QUADRUPOLE', 'MULLIKEN_CHARGES')
f=open( 'psi4out.xyz', 'w' )
f.write( "9  " )
f.write( str(ee) + "\n" )
f.write( MOL.save_string_xyz() )
f.close()
--------------------------------------------------------------------------

    Molecular point group: c1
  Charge       = 0
  Multiplicity = 1
  Basis Set: CC-PVTZ
  Basis Set:
  @DF-RHF Final Energy:  -208.02626581692937
    Total Energy =                       -208.0262658169293388
    Molecular point group: c1
  Basis Set: CC-PVTZ
  Basis Set:
  Basis Set: CC-PVTZ
  Basis Set:
  @DF-RHF Final Energy:  -208.02913131146181
    Total Energy =                       -208.0291313114618106
  Basis Set: CC-PVTZ
  Basis Set:
  Basis Set: CC-PVTZ
  Basis Set:
  @DF-RHF Final Energy:  -208.03296414415996
    Total Energy =                       -208.0329641441600472
  Basis Set: CC-PVTZ
  Basis Set:
  Basis Set: CC-PVTZ
  Basis Set:
  @DF-RHF Final Energy:  -208.03496159100479
    Total Energy =                       -208.0349615910047305
  Basis Set: CC-PVTZ
  Basis Set:
  @DF-RHF Final Energy:  -208.03514756597261
    Total Energy =                       -208.0351475659726930
  @DF-RHF Final Energy:  -208.03526394292956
    Total Energy =                       -208.0352639429295607
  @DF-RHF Final Energy:  -208.03546369621563
    Total Energy =                       -208.0354636962156292
  @DF-RHF Final Energy:  -208.03556339851497
    Total Energy =                       -208.0355633985150234
  @DF-RHF Final Energy:  -208.03558295989166
    Total Energy =                       -208.0355829598917694
  @DF-RHF Final Energy:  -208.03558417084463
    Total Energy =                       -208.0355841708446860
  @DF-RHF Final Energy:  -208.03389366601920
    Total Energy =                       -208.0338936660192530
  @DF-RHF Final Energy:  -208.02863398425518
    Total Energy =                       -208.0286339842552650
  Basis Set: CC-PVTZ
  Basis Set:
  @DF-RHF Final Energy:  -208.03550106173910
    Total Energy =                       -208.0355010617390121
  Basis Set: CC-PVTZ
  Basis Set:
  Basis Set: CC-PVTZ
  Basis Set:
  @DF-RHF Final Energy:  -208.03557675021682
    Total Energy =                       -208.0355767502168760
  Basis Set: CC-PVTZ
  Basis Set:
  Basis Set: CC-PVTZ
  Basis Set:
  @DF-RHF Final Energy:  -208.03558172281703
    Total Energy =                       -208.0355817228170281
  Basis Set: CC-PVTZ
  Basis Set:
  Charge       = 0
  Multiplicity = 1
  Basis Set: CC-PVTZ
  Basis Set:

    Orbital Energies (a.u.)
    -----------------------

    Doubly Occupied:

       1A    -20.528895     2A    -15.580750     3A    -11.342291
       4A    -11.270012     5A     -1.403578     6A     -1.240888
       7A     -0.958777     8A     -0.842356     9A     -0.695676
      10A     -0.680615    11A     -0.639628    12A     -0.590035
      13A     -0.567719    14A     -0.546771    15A     -0.437080
      16A     -0.401968

  @DF-RHF Final Energy:  -208.03558194099935

   => Energetics <=

    Nuclear Repulsion Energy =            120.6231160472035384
    One-Electron Energy =                -521.8633169588323426
    Two-Electron Energy =                 193.2046189706295252
    DFT Exchange-Correlation Energy =       0.0000000000000000
    Empirical Dispersion Energy =           0.0000000000000000
    PCM Polarization Energy =               0.0000000000000000
    EFP Energy =                            0.0000000000000000
    Total Energy =                       -208.0355819409992648
    Molecular point group: c1
  Basis Set: CC-PVTZ
  Basis Set:

  -Total Gradient:
     Atom            X                  Y                   Z
    ------   -----------------  -----------------  -----------------
       1       -0.002003686641    -0.004699158824     0.008226080529
       2        0.001758544690     0.006921447854    -0.008047437451
       3        0.003700632334    -0.004248174828    -0.010363627276
       4        0.000013356608    -0.000005691752     0.000040565756
       5        0.000030992552     0.000088754697     0.000191671125
       6       -0.003446499368     0.002021644160     0.009979083043
       7        0.000000247704    -0.000006231563     0.000021609205
       8        0.000007949803    -0.000009974414    -0.000005552583
       9       -0.000061537681    -0.000062615330    -0.000042392347

  **** Optimization is complete! (in 16 steps) ****
    Final optimized geometry and variables:
    Molecular point group: c1

    Geometry (in Angstrom), charge = 0, multiplicity = 1:

    H            0.879875592140     0.939854977618     0.704991096505
    C            0.694125500739     0.025320543551     0.136024334768
    N           -0.601382524113    -0.117287164933    -0.269499638505
    O            1.544110323335    -0.783094997767    -0.030131647351
    C           -1.582408430844     0.876406323411     0.122960885847
    H           -0.927814150656    -1.054539584935    -0.190908867999
    H           -2.450709780848     0.790920507742    -0.514501546562
    H           -1.172245586246     1.866693888497    -0.016720887328
    H           -1.902805332287     0.778277730841     1.156181035957

  Mulliken Charges: (a.u.)
   Center  Symbol    Alpha    Beta     Spin     Total
       1     H     0.47226  0.47226  0.00000  0.05547
       2     C     2.87500  2.87500  0.00000  0.25001
       3     N     3.60024  3.60024  0.00000 -0.20048
       4     O     4.19425  4.19425  0.00000 -0.38850
       5     C     3.08345  3.08345  0.00000 -0.16690
       6     H     0.41928  0.41928  0.00000  0.16144
       7     H     0.44530  0.44530  0.00000  0.10941
       8     H     0.45199  0.45199  0.00000  0.09602
       9     H     0.45823  0.45823  0.00000  0.08354

   Total alpha = 16.00000, Total beta = 16.00000, Total charge = -0.00000
