  ==> Input File <==

--------------------------------------------------------------------------
set {
	reference rhf
	basis 6-31G*
}

set_num_threads( 1 )
memory 2 gb

molecule MOL {
0 1

O	 -2.439739	 -0.935931	 -0.423848
C	 -1.921153	 0.064240	 -0.045697
C	 -2.624470	 1.379923	 0.150949
O	 -0.632575	 0.154573	 0.251549
H	 -2.168117	 2.136577	 -0.476876
H	 -3.669540	 1.273223	 -0.098610
H	 -2.519365	 1.700893	 1.180846
C	 0.160891	 -1.019931	 0.106212
C	 1.589627	 -0.672828	 0.480843
H	 0.089836	 -1.367806	 -0.916050
H	 -0.238459	 -1.792301	 0.749618
C	 1.968917	 0.782692	 0.201557
H	 2.244885	 -1.335174	 -0.081179
H	 1.742011	 -0.900431	 1.532620
C	 3.420855	 1.090209	 0.565302
H	 1.806423	 0.999452	 -0.852346
H	 1.307779	 1.438972	 0.757931
H	 3.664716	 2.127546	 0.359156
H	 4.109041	 0.469713	 -0.001850
H	 3.607052	 0.910392	 1.620326

	symmetry c1
}
set optking {
	frozen_dihedral = ("
		16 12 9 8,
		2 4 8 10,
		1 2 4 8
	")
}

ee = energy('scf')
oeprop('DIPOLE', 'QUADRUPOLE', 'MULLIKEN_CHARGES')
f=open( 'psi4out.xyz', 'w' )
f.write( "20  " )
f.write( str(ee) + "\n" )
f.write( MOL.save_string_xyz() )
f.close()
--------------------------------------------------------------------------

    Molecular point group: c1

    Geometry (in Angstrom), charge = 0, multiplicity = 1:

       Center              X                  Y                   Z               Mass
    ------------   -----------------  -----------------  -----------------  -----------------
           O         -2.371244736677    -1.045328410719    -0.583708461906    15.994914619560
           C         -1.852658736677    -0.045157410719    -0.205557461906    12.000000000000
           C         -2.555975736677     1.270525589281    -0.008911461906    12.000000000000
           O         -0.564080736677     0.045175589281     0.091688538094    15.994914619560
           H         -2.099622736677     2.027179589281    -0.636736461906     1.007825032070
           H         -3.601045736677     1.163825589281    -0.258470461906     1.007825032070
           H         -2.450870736677     1.591495589281     1.020985538094     1.007825032070
           C          0.229385263323    -1.129328410719    -0.053648461906    12.000000000000
           C          1.658121263323    -0.782225410719     0.320982538094    12.000000000000
           H          0.158330263323    -1.477203410719    -1.075910461906     1.007825032070
           H         -0.169964736677    -1.901698410719     0.589757538094     1.007825032070
           C          2.037411263323     0.673294589281     0.041696538094    12.000000000000
           H          2.313379263323    -1.444571410719    -0.241039461906     1.007825032070
           H          1.810505263323    -1.009828410719     1.372759538094     1.007825032070
           C          3.489349263323     0.980811589281     0.405441538094    12.000000000000
           H          1.874917263323     0.890054589281    -1.012206461906     1.007825032070
           H          1.376273263323     1.329574589281     0.598070538094     1.007825032070
           H          3.733210263323     2.018148589281     0.199295538094     1.007825032070
           H          4.177535263323     0.360315589281    -0.161710461906     1.007825032070
           H          3.675546263323     0.800994589281     1.460465538094     1.007825032070

  Charge       = 0
  Multiplicity = 1
  Basis Set: 6-31G*
  Basis Set:

    Orbital Energies (a.u.)
    -----------------------

    Doubly Occupied:

       1A    -20.601536     2A    -20.544254     3A    -11.374591
       4A    -11.282044     5A    -11.233760     6A    -11.224386
       7A    -11.218130     8A    -11.211424     9A     -1.468337
      10A     -1.362629    11A     -1.084939    12A     -1.027354
      13A     -0.981273    14A     -0.879271    15A     -0.817739
      16A     -0.763304    17A     -0.690489    18A     -0.688371
      19A     -0.667479    20A     -0.633147    21A     -0.596132
      22A     -0.592841    23A     -0.573412    24A     -0.548660
      25A     -0.543639    26A     -0.534522    27A     -0.508180
      28A     -0.482704    29A     -0.474650    30A     -0.467842
      31A     -0.446917    32A     -0.438744

  @DF-RHF Final Energy:  -383.94011202135925

   => Energetics <=

    Nuclear Repulsion Energy =            388.2598399109128877
    One-Electron Energy =               -1292.4744685991086044
    Two-Electron Energy =                 520.2745166668357797
    DFT Exchange-Correlation Energy =       0.0000000000000000
    Empirical Dispersion Energy =           0.0000000000000000
    PCM Polarization Energy =               0.0000000000000000
    EFP Energy =                            0.0000000000000000
    Total Energy =                       -383.9401120213599370

  Mulliken Charges: (a.u.)
   Center  Symbol    Alpha    Beta     Spin     Total
       1     O     4.28340  4.28340  0.00000 -0.56680
       2     C     2.61837  2.61837  0.00000  0.76325
       3     C     3.28191  3.28191  0.00000 -0.56382
       4     O     4.31020  4.31020  0.00000 -0.62041
       5     H     0.40054  0.40054  0.00000  0.19892
       6     H     0.39672  0.39672  0.00000  0.20655
       7     H     0.40086  0.40086  0.00000  0.19827
       8     C     2.99856  2.99856  0.00000  0.00287
       9     C     3.17333  3.17333  0.00000 -0.34667
      10     H     0.40980  0.40980  0.00000  0.18041
      11     H     0.40804  0.40804  0.00000  0.18393
      12     C     3.14943  3.14943  0.00000 -0.29887
      13     H     0.41707  0.41707  0.00000  0.16586
      14     H     0.41680  0.41680  0.00000  0.16641
      15     C     3.24064  3.24064  0.00000 -0.48127
      16     H     0.42232  0.42232  0.00000  0.15536
      17     H     0.40976  0.40976  0.00000  0.18048
      18     H     0.41814  0.41814  0.00000  0.16372
      19     H     0.42247  0.42247  0.00000  0.15506
      20     H     0.42163  0.42163  0.00000  0.15674

   Total alpha = 32.00000, Total beta = 32.00000, Total charge = -0.00000
