  ==> Input File <==

--------------------------------------------------------------------------
set {
	reference rhf
	basis 6-31G*
}

set_num_threads( 4 )
memory 2 gb

molecule MOL {
0 1

O	 1.761872	 1.193883	 0.499756
C	 1.705091	 0.115954	 0.001797
C	 0.503426	 -0.463312	 -0.704121
O	 2.721346	 -0.737485	 -0.000216
C	 -0.695667	 0.479554	 -0.732805
H	 0.816187	 -0.733276	 -1.709116
H	 0.256688	 -1.399214	 -0.210232
C	 -1.897663	 -0.131876	 -1.454207
H	 -0.408760	 1.408317	 -1.215786
H	 -0.969583	 0.740830	 0.284552
C	 -3.109369	 0.800923	 -1.493112
H	 -1.615577	 -0.395002	 -2.472631
H	 -2.179023	 -1.064074	 -0.966636
C	 -4.310444	 0.188982	 -2.212973
H	 -2.830648	 1.731656	 -1.982185
H	 -3.392902	 1.063972	 -0.476475
H	 -4.068312	 -0.053369	 -3.243920
H	 -5.152815	 0.873633	 -2.223671
H	 -4.634761	 -0.726679	 -1.726460
C	 4.024888	 -0.184556	 -0.001949
H	 4.179030	 0.422472	 -0.882452
H	 4.701782	 -1.024608	 -0.003642
H	 4.181981	 0.421185	 0.878906

	symmetry c1
}
set optking {
	frozen_dihedral = ("
		1 2 4 20
	")
}

ee = optimize('scf')
oeprop('DIPOLE', 'QUADRUPOLE', 'MULLIKEN_CHARGES')
f=open( 'psi4out.xyz', 'w' )
f.write( "23  " )
f.write( str(ee) + "\n" )
f.write( MOL.save_string_xyz() )
f.close()
--------------------------------------------------------------------------

    Molecular point group: c1
  Charge       = 0
  Multiplicity = 1
  Basis Set: 6-31G*
  Basis Set:
  @DF-RHF Final Energy:  -422.97102100481641
    Total Energy =                       -422.9710210048160661
    Molecular point group: c1
  Basis Set: 6-31G*
  Basis Set:
  Basis Set: 6-31G*
  Basis Set:
  @DF-RHF Final Energy:  -422.96779033123681
    Total Energy =                       -422.9677903312369835
  Basis Set: 6-31G*
  Basis Set:
  Basis Set: 6-31G*
  Basis Set:
  @DF-RHF Final Energy:  -422.97148404987280
    Total Energy =                       -422.9714840498729700
  Basis Set: 6-31G*
  Basis Set:
  Basis Set: 6-31G*
  Basis Set:
  @DF-RHF Final Energy:  -422.97155015045047
    Total Energy =                       -422.9715501504501844
  Basis Set: 6-31G*
  Basis Set:
  Basis Set: 6-31G*
  Basis Set:
  @DF-RHF Final Energy:  -422.97156121915776
    Total Energy =                       -422.9715612191574792
  Basis Set: 6-31G*
  Basis Set:
  Basis Set: 6-31G*
  Basis Set:
  @DF-RHF Final Energy:  -422.97156421629069
    Total Energy =                       -422.9715642162906306
  Basis Set: 6-31G*
  Basis Set:
  Charge       = 0
  Multiplicity = 1
  Basis Set: 6-31G*
  Basis Set:

    Orbital Energies (a.u.)
    -----------------------

    Doubly Occupied:

       1A    -20.599174     2A    -20.547824     3A    -11.372947
       4A    -11.282965     5A    -11.235857     6A    -11.219482
       7A    -11.218102     8A    -11.216623     9A    -11.209776
      10A     -1.466217    11A     -1.363585    12A     -1.093297
      13A     -1.043206    14A     -0.985971    15A     -0.933430
      16A     -0.844701    17A     -0.795283    18A     -0.766595
      19A     -0.696287    20A     -0.681520    21A     -0.671734
      22A     -0.651178    23A     -0.609887    24A     -0.601095
      25A     -0.574008    26A     -0.564191    27A     -0.553180
      28A     -0.527778    29A     -0.516614    30A     -0.507820
      31A     -0.484724    32A     -0.470059    33A     -0.466369
      34A     -0.463427    35A     -0.453527    36A     -0.433914

  @DF-RHF Final Energy:  -422.97156510611694

   => Energetics <=

    Nuclear Repulsion Energy =            451.8481573107129634
    One-Electron Energy =               -1471.3947376680225716
    Two-Electron Energy =                 596.5750152511917577
    DFT Exchange-Correlation Energy =       0.0000000000000000
    Empirical Dispersion Energy =           0.0000000000000000
    PCM Polarization Energy =               0.0000000000000000
    EFP Energy =                            0.0000000000000000
    Total Energy =                       -422.9715651061178505
    Molecular point group: c1
  Basis Set: 6-31G*
  Basis Set:

  -Total Gradient:
     Atom            X                  Y                   Z
    ------   -----------------  -----------------  -----------------
       1       -0.003452600238    -0.002852876996     0.007556477324
       2        0.005247903924     0.004106235510    -0.014720359851
       3       -0.000009738171    -0.000062384457     0.000184263033
       4       -0.002326026159    -0.000724247355     0.014003976553
       5        0.000027377675    -0.000022946320    -0.000042238641
       6        0.000038135993     0.000005333346    -0.000057974899
       7        0.000015532763     0.000018136741    -0.000050119723
       8       -0.000001206707     0.000002326219    -0.000004212982
       9       -0.000001861958    -0.000024004219     0.000007531862
      10       -0.000015884011     0.000022633893     0.000038966733
      11        0.000009058275     0.000009506463    -0.000006073286
      12        0.000003890099     0.000009273437    -0.000007747101
      13        0.000004921652    -0.000001271141    -0.000010490425
      14        0.000000046091    -0.000013076158     0.000016688036
      15       -0.000000460909    -0.000004639380    -0.000006883805
      16        0.000002810467     0.000008385725     0.000001163788
      17        0.000001592758     0.000005420546     0.000002267820
      18        0.000001568460    -0.000001035424     0.000006724800
      19       -0.000002032357    -0.000005378143    -0.000003845984
      20        0.000430534371    -0.000531418197    -0.007067225940
      21       -0.000009757473     0.000024285527     0.000089404377
      22       -0.000001058932    -0.000021661440     0.000025138495
      23        0.000037254379     0.000053401818     0.000044569813

  **** Optimization is complete! (in 7 steps) ****
    Final optimized geometry and variables:
    Molecular point group: c1

    Geometry (in Angstrom), charge = 0, multiplicity = 1:

    O            1.691441745132     1.128542045806     1.012983638783
    C            1.612545837759     0.022411797253     0.589083832764
    C            0.401371104853    -0.573015511336    -0.084546786217
    O            2.583353273397    -0.880745384071     0.728043754322
    C           -0.814694257021     0.347880875849    -0.078410310482
    H            0.694416625242    -0.828182569866    -1.100548997719
    H            0.187271421372    -1.518328433850     0.405346752355
    C           -2.021330104108    -0.278046306701    -0.779274116021
    H           -0.554841190239     1.286456495155    -0.557261328178
    H           -1.071268047358     0.593567998361     0.947757135839
    C           -3.251184564045     0.631455513333    -0.778432571352
    H           -1.758008811791    -0.523049359591    -1.807251133251
    H           -2.273317900818    -1.221452388433    -0.297265242529
    C           -4.457314080079     0.004388800351    -1.476513281017
    H           -3.002132937354     1.572836608405    -1.263057599999
    H           -3.515223205689     0.877476229857     0.247644339220
    H           -4.235701051481    -0.221137561415    -2.515902941164
    H           -5.312819897989     0.672351870629    -1.458610104970
    H           -4.751888988906    -0.923076491614    -0.993492201645
    C            3.911693823155    -0.393705645996     0.790232272752
    H            4.128403235042     0.218494667566    -0.075086708464
    H            4.548378339898    -1.264695415832     0.794264055960
    H            4.069230064291     0.187357718571     1.687054829943

  Mulliken Charges: (a.u.)
   Center  Symbol    Alpha    Beta     Spin     Total
       1     O     4.27953  4.27953  0.00000 -0.55907
       2     C     2.60453  2.60453  0.00000  0.79095
       3     C     3.21016  3.21016  0.00000 -0.42031
       4     O     4.30987  4.30987  0.00000 -0.61974
       5     C     3.15279  3.15279  0.00000 -0.30557
       6     H     0.40292  0.40292  0.00000  0.19417
       7     H     0.39897  0.39897  0.00000  0.20205
       8     C     3.15326  3.15326  0.00000 -0.30651
       9     H     0.41086  0.41086  0.00000  0.17828
      10     H     0.41241  0.41241  0.00000  0.17518
      11     C     3.15156  3.15156  0.00000 -0.30313
      12     H     0.42427  0.42427  0.00000  0.15146
      13     H     0.42376  0.42376  0.00000  0.15248
      14     C     3.23959  3.23959  0.00000 -0.47918
      15     H     0.42134  0.42134  0.00000  0.15732
      16     H     0.42125  0.42125  0.00000  0.15750
      17     H     0.42190  0.42190  0.00000  0.15620
      18     H     0.41844  0.41844  0.00000  0.16312
      19     H     0.42174  0.42174  0.00000  0.15652
      20     C     3.09322  3.09322  0.00000 -0.18644
      21     H     0.41514  0.41514  0.00000  0.16972
      22     H     0.40744  0.40744  0.00000  0.18512
      23     H     0.40505  0.40505  0.00000  0.18989

   Total alpha = 36.00000, Total beta = 36.00000, Total charge = -0.00000
