  ==> Input File <==

--------------------------------------------------------------------------
set {
	reference rhf
	basis cc-pvtz
}

set_num_threads( 4 )
memory 2 gb

molecule MOL {
0 1

H	 1.651322	 -0.822465	 0.000000
O	 0.729993	 -1.034364	 0.000000
C	 0.037305	 0.100061	 0.000000
C	 -1.018193	 0.114195	 -1.064801
O	 0.255038	 0.974579	 0.764596
H	 -0.555055	 -0.016084	 -2.034336
H	 -1.554005	 1.048218	 -1.029700
H	 -1.697888	 -0.713906	 -0.910750

	symmetry c1
}
set optking {
	frozen_dihedral = ("
		4 3 2 1
	")
}

ee = optimize('scf')
oeprop('DIPOLE', 'QUADRUPOLE', 'MULLIKEN_CHARGES')
f=open( 'psi4out.xyz', 'w' )
f.write( "8  " )
f.write( str(ee) + "\n" )
f.write( MOL.save_string_xyz() )
f.close()
--------------------------------------------------------------------------

    Molecular point group: c1
  Charge       = 0
  Multiplicity = 1
  Basis Set: CC-PVTZ
  Basis Set:
  @DF-RHF Final Energy:  -227.89265610273642
    Total Energy =                       -227.8926561027365096
    Molecular point group: c1
  Basis Set: CC-PVTZ
  Basis Set:
  Basis Set: CC-PVTZ
  Basis Set:
  @DF-RHF Final Energy:  -227.89070596871426
    Total Energy =                       -227.8907059687143999
  Basis Set: CC-PVTZ
  Basis Set:
  Basis Set: CC-PVTZ
  Basis Set:
  @DF-RHF Final Energy:  -227.89340536653793
    Total Energy =                       -227.8934053665379906
  Basis Set: CC-PVTZ
  Basis Set:
  Basis Set: CC-PVTZ
  Basis Set:
  @DF-RHF Final Energy:  -227.89355796538678
    Total Energy =                       -227.8935579653866625
  Basis Set: CC-PVTZ
  Basis Set:
  Basis Set: CC-PVTZ
  Basis Set:
  @DF-RHF Final Energy:  -227.89361852005476
    Total Energy =                       -227.8936185200547300
  Basis Set: CC-PVTZ
  Basis Set:
  Basis Set: CC-PVTZ
  Basis Set:
  @DF-RHF Final Energy:  -227.89364094995449
    Total Energy =                       -227.8936409499544880
  Basis Set: CC-PVTZ
  Basis Set:
  Basis Set: CC-PVTZ
  Basis Set:
  @DF-RHF Final Energy:  -227.89364348315803
    Total Energy =                       -227.8936434831580868
  Basis Set: CC-PVTZ
  Basis Set:
  Charge       = 0
  Multiplicity = 1
  Basis Set: CC-PVTZ
  Basis Set:

    Orbital Energies (a.u.)
    -----------------------

    Doubly Occupied:

       1A    -20.596698     2A    -20.547618     3A    -11.379253
       4A    -11.240010     5A     -1.471993     6A     -1.372602
       7A     -1.026165     8A     -0.831575     9A     -0.708222
      10A     -0.681361    11A     -0.660855    12A     -0.584416
      13A     -0.581605    14A     -0.539014    15A     -0.492014
      16A     -0.452914

  @DF-RHF Final Energy:  -227.89364365917640

   => Energetics <=

    Nuclear Repulsion Energy =            122.4100156547598317
    One-Electron Energy =                -554.2746879312953752
    Two-Electron Energy =                 203.9710286173591385
    DFT Exchange-Correlation Energy =       0.0000000000000000
    Empirical Dispersion Energy =           0.0000000000000000
    PCM Polarization Energy =               0.0000000000000000
    EFP Energy =                            0.0000000000000000
    Total Energy =                       -227.8936436591764050
    Molecular point group: c1
  Basis Set: CC-PVTZ
  Basis Set:

  -Total Gradient:
     Atom            X                  Y                   Z
    ------   -----------------  -----------------  -----------------
       1       -0.000113075081    -0.000750630876    -0.011721538770
       2        0.002277629095     0.001769235746     0.012452496959
       3       -0.006738208582    -0.003772085390     0.004149109166
       4        0.004818531421     0.002581379143    -0.004938468807
       5       -0.000236572285     0.000117135404     0.000067755005
       6        0.000021971612     0.000026473255     0.000012091760
       7       -0.000034494229     0.000007280615    -0.000047967526
       8        0.000004218050     0.000021212105     0.000026522215

  **** Optimization is complete! (in 8 steps) ****
    Final optimized geometry and variables:
    Molecular point group: c1

    Geometry (in Angstrom), charge = 0, multiplicity = 1:

    H            1.586977662253    -0.937053672332     0.128923994800
    O            0.655921772387    -1.089717517984     0.148769497817
    C           -0.004579670837     0.081322690546     0.086093815008
    C           -1.074098039880     0.079854792421    -0.965528682941
    O            0.302071237983     1.013999732058     0.736326124818
    H           -0.581836196934     0.073609640833    -1.930882235581
    H           -1.687792268600     0.961240502999    -0.873666562686
    H           -1.677762763264    -0.815212939174    -0.900204714861

  Mulliken Charges: (a.u.)
   Center  Symbol    Alpha    Beta     Spin     Total
       1     H     0.37881  0.37881  0.00000  0.24237
       2     O     4.17381  4.17381  0.00000 -0.34763
       3     C     2.80439  2.80439  0.00000  0.39122
       4     C     3.13574  3.13574  0.00000 -0.27149
       5     O     4.17631  4.17631  0.00000 -0.35262
       6     H     0.44831  0.44831  0.00000  0.10338
       7     H     0.43879  0.43879  0.00000  0.12242
       8     H     0.44383  0.44383  0.00000  0.11235

   Total alpha = 16.00000, Total beta = 16.00000, Total charge = -0.00000
