  ==> Input File <==

--------------------------------------------------------------------------
set {
	reference rhf
	basis 6-31G*
}

set_num_threads( 1 )
memory 2 gb

molecule MOL {
0 1

O	 1.617080	 1.024438	 -0.759799
C	 1.705091	 0.115954	 0.001797
C	 0.704308	 -0.228310	 1.077800
O	 2.721346	 -0.737485	 -0.000216
C	 -0.488237	 0.722179	 1.123085
H	 0.384921	 -1.252990	 0.908279
H	 1.236481	 -0.237771	 2.025123
C	 -1.485893	 0.349782	 2.220840
H	 -0.984157	 0.719909	 0.157556
H	 -0.131916	 1.735964	 1.276659
C	 -2.689092	 1.292480	 2.279934
H	 -1.836756	 -0.669075	 2.063292
H	 -0.982017	 0.351498	 3.186235
C	 -3.684957	 0.920610	 3.377757
H	 -3.195056	 1.289945	 1.317056
H	 -2.340280	 2.310535	 2.438148
H	 -4.078524	 -0.080794	 3.227725
H	 -4.525851	 1.606955	 3.394426
H	 -3.216781	 0.947467	 4.357757
C	 4.024888	 -0.184556	 -0.001949
H	 4.179030	 0.422472	 -0.882452
H	 4.701782	 -1.024608	 -0.003642
H	 4.181981	 0.421185	 0.878906

	symmetry c1
}
set optking {
	frozen_dihedral = ("
		15 11 8 12,
		9 5 8 12,
		1 2 3 6,
		9 5 3 6
	")
}

ee = energy('scf')
oeprop('DIPOLE', 'QUADRUPOLE', 'MULLIKEN_CHARGES')
f=open( 'psi4out.xyz', 'w' )
f.write( "23  " )
f.write( str(ee) + "\n" )
f.write( MOL.save_string_xyz() )
f.close()
--------------------------------------------------------------------------

    Molecular point group: c1

    Geometry (in Angstrom), charge = 0, multiplicity = 1:

       Center              X                  Y                   Z               Mass
    ------------   -----------------  -----------------  -----------------  -----------------
           O          1.311412091031     0.662873402442    -1.784633724215    15.994914619560
           C          1.399423091031    -0.245610597558    -1.023037724215    12.000000000000
           C          0.398640091031    -0.589874597558     0.052965275785    12.000000000000
           O          2.415678091031    -1.099049597558    -1.025050724215    15.994914619560
           C         -0.793904908969     0.360614402442     0.098250275785    12.000000000000
           H          0.079253091031    -1.614554597558    -0.116555724215     1.007825032070
           H          0.930813091031    -0.599335597558     1.000288275785     1.007825032070
           C         -1.791560908969    -0.011782597558     1.196005275785    12.000000000000
           H         -1.289824908969     0.358344402442    -0.867278724215     1.007825032070
           H         -0.437583908969     1.374399402442     0.251824275785     1.007825032070
           C         -2.994759908969     0.930915402442     1.255099275785    12.000000000000
           H         -2.142423908969    -1.030639597558     1.038457275785     1.007825032070
           H         -1.287684908969    -0.010066597558     2.161400275785     1.007825032070
           C         -3.990624908969     0.559045402442     2.352922275785    12.000000000000
           H         -3.500723908969     0.928380402442     0.292221275785     1.007825032070
           H         -2.645947908969     1.948970402442     1.413313275785     1.007825032070
           H         -4.384191908969    -0.442358597558     2.202890275785     1.007825032070
           H         -4.831518908969     1.245390402442     2.369591275785     1.007825032070
           H         -3.522448908969     0.585902402442     3.332922275785     1.007825032070
           C          3.719220091031    -0.546120597558    -1.026783724215    12.000000000000
           H          3.873362091031     0.060907402442    -1.907286724215     1.007825032070
           H          4.396114091031    -1.386172597558    -1.028476724215     1.007825032070
           H          3.876313091031     0.059620402442    -0.145928724215     1.007825032070

  Charge       = 0
  Multiplicity = 1
  Basis Set: 6-31G*
  Basis Set:

    Orbital Energies (a.u.)
    -----------------------

    Doubly Occupied:

       1A    -20.593060     2A    -20.550095     3A    -11.373057
       4A    -11.287226     5A    -11.235929     6A    -11.219235
       7A    -11.218149     8A    -11.216719     9A    -11.209909
      10A     -1.466115    11A     -1.364146    12A     -1.093185
      13A     -1.042567    14A     -0.986669    15A     -0.936115
      16A     -0.845843    17A     -0.795445    18A     -0.767706
      19A     -0.696307    20A     -0.681459    21A     -0.672818
      22A     -0.650430    23A     -0.610698    24A     -0.604988
      25A     -0.575681    26A     -0.565592    27A     -0.554454
      28A     -0.532337    29A     -0.508779    30A     -0.506625
      31A     -0.485177    32A     -0.471390    33A     -0.468057
      34A     -0.465468    35A     -0.451289    36A     -0.431121

  @DF-RHF Final Energy:  -422.96443285900517

   => Energetics <=

    Nuclear Repulsion Energy =            452.5646487769507189
    One-Electron Energy =               -1472.7904722951441272
    Two-Electron Energy =                 597.2613906591915338
    DFT Exchange-Correlation Energy =       0.0000000000000000
    Empirical Dispersion Energy =           0.0000000000000000
    PCM Polarization Energy =               0.0000000000000000
    EFP Energy =                            0.0000000000000000
    Total Energy =                       -422.9644328590019313

  Mulliken Charges: (a.u.)
   Center  Symbol    Alpha    Beta     Spin     Total
       1     O     4.27322  4.27322  0.00000 -0.54644
       2     C     2.60615  2.60615  0.00000  0.78770
       3     C     3.21036  3.21036  0.00000 -0.42072
       4     O     4.31045  4.31045  0.00000 -0.62090
       5     C     3.15334  3.15334  0.00000 -0.30668
       6     H     0.39916  0.39916  0.00000  0.20167
       7     H     0.40477  0.40477  0.00000  0.19047
       8     C     3.15311  3.15311  0.00000 -0.30623
       9     H     0.41092  0.41092  0.00000  0.17816
      10     H     0.41280  0.41280  0.00000  0.17440
      11     C     3.15151  3.15151  0.00000 -0.30302
      12     H     0.42372  0.42372  0.00000  0.15255
      13     H     0.42471  0.42471  0.00000  0.15058
      14     C     3.23957  3.23957  0.00000 -0.47914
      15     H     0.42107  0.42107  0.00000  0.15786
      16     H     0.42160  0.42160  0.00000  0.15681
      17     H     0.42169  0.42169  0.00000  0.15663
      18     H     0.41844  0.41844  0.00000  0.16312
      19     H     0.42204  0.42204  0.00000  0.15592
      20     C     3.09509  3.09509  0.00000 -0.19018
      21     H     0.40256  0.40256  0.00000  0.19489
      22     H     0.40544  0.40544  0.00000  0.18913
      23     H     0.41829  0.41829  0.00000  0.16341

   Total alpha = 36.00000, Total beta = 36.00000, Total charge = -0.00000
