                              Psi4 1.0.54 Driver

  ==> Input File <==

--------------------------------------------------------------------------
set {
	reference rhf
	basis cc-pvtz
}

set_num_threads( 4 )
memory 2 gb

molecule MOL {
0 1

O	 -2.817697	 1.304178	 0.001046
C	 -2.664672	 0.129869	 0.003507
C	 -3.797908	 -0.860100	 -0.001145
O	 -1.481217	 -0.452708	 0.001092
H	 -4.408836	 -0.679689	 -0.875387
H	 -3.443486	 -1.878443	 -0.002770
H	 -4.412123	 -0.683688	 0.871605
C	 -0.332055	 0.384012	 -0.000250
C	 0.892252	 -0.506059	 -0.000295
H	 -0.360822	 1.020205	 -0.874146
H	 -0.359817	 1.021310	 0.872861
C	 1.380162	 -0.811923	 -1.413360
H	 0.655861	 -1.429584	 0.518252
H	 1.679998	 -0.020987	 0.567003
C	 2.615105	 -1.708257	 -1.438392
H	 0.581965	 -1.288026	 -1.977439
H	 1.603961	 0.118674	 -1.928992
C	 3.103698	 -2.013179	 -2.850238
H	 2.392164	 -2.639239	 -0.924948
H	 3.413480	 -1.233451	 -0.875148
H	 2.338255	 -2.519705	 -3.428490
H	 3.980173	 -2.650351	 -2.832670
H	 3.367177	 -1.102981	 -3.378417

	symmetry c1
}
set optking {
	frozen_dihedral = ("
		13 9 8 10
	")
}

ee,wfn = optimize('scf', return_wfn=True)
oeprop( wfn, 'DIPOLE', 'QUADRUPOLE', 'MULLIKEN_CHARGES')
f=open( 'psi4out.xyz', 'w' )
f.write( "23  " )
f.write( str(ee) + "\n" )
f.write( MOL.save_string_xyz() )
f.close()
--------------------------------------------------------------------------

    Molecular point group: c1
  Charge       = 0
  Multiplicity = 1
  Basis Set: CC-PVTZ
  Basis Set:
  @DF-RHF Final Energy:  -423.13164279401889
    Total Energy =                       -423.1316427940188305
    Molecular point group: c1
  Basis Set: CC-PVTZ
  Basis Set:
  Basis Set: CC-PVTZ
  Basis Set:
  @DF-RHF Final Energy:  -423.13178775141546
    Total Energy =                       -423.1317877514152315
  Basis Set: CC-PVTZ
  Basis Set:
  Basis Set: CC-PVTZ
  Basis Set:
  @DF-RHF Final Energy:  -423.13197715595095
    Total Energy =                       -423.1319771559512901
  Basis Set: CC-PVTZ
  Basis Set:
  Basis Set: CC-PVTZ
  Basis Set:
  @DF-RHF Final Energy:  -423.13208072040101
    Total Energy =                       -423.1320807204008361
  Basis Set: CC-PVTZ
  Basis Set:
  Basis Set: CC-PVTZ
  Basis Set:
  @DF-RHF Final Energy:  -423.13209487817562
    Total Energy =                       -423.1320948781752804
  Basis Set: CC-PVTZ
  Basis Set:
  Basis Set: CC-PVTZ
  Basis Set:
  @DF-RHF Final Energy:  -423.13210203328362
    Total Energy =                       -423.1321020332838998
  Basis Set: CC-PVTZ
  Basis Set:
  Charge       = 0
  Multiplicity = 1
  Basis Set: CC-PVTZ
  Basis Set:

    Orbital Energies (a.u.)
    -----------------------

    Doubly Occupied:

       1A    -20.595542     2A    -20.529312     3A    -11.366128
       4A    -11.280321     5A    -11.230772     6A    -11.222853
       7A    -11.218270     8A    -11.217646     9A    -11.210025
      10A     -1.470464    11A     -1.363427    12A     -1.093201
      13A     -1.042185    14A     -1.003285    15A     -0.931455
      16A     -0.843204    17A     -0.799507    18A     -0.781737
      19A     -0.690767    20A     -0.684891    21A     -0.669206
      22A     -0.645290    23A     -0.609491    24A     -0.584820
      25A     -0.578002    26A     -0.576762    27A     -0.559524
      28A     -0.534720    29A     -0.529214    30A     -0.505657
      31A     -0.499248    32A     -0.473987    33A     -0.471072
      34A     -0.464790    35A     -0.447998    36A     -0.439866

  @DF-RHF Final Energy:  -423.13210246845887

   => Energetics <=

    Nuclear Repulsion Energy =            456.5348825482763573
    One-Electron Energy =               -1481.0046886214272490
    Two-Electron Energy =                 601.3377036046920239
    DFT Exchange-Correlation Energy =       0.0000000000000000
    Empirical Dispersion Energy =           0.0000000000000000
    PCM Polarization Energy =               0.0000000000000000
    EFP Energy =                            0.0000000000000000
    Total Energy =                       -423.1321024684589247
    Molecular point group: c1
  Basis Set: CC-PVTZ
  Basis Set:

  -Total Gradient:
     Atom            X                  Y                   Z
    ------   -----------------  -----------------  -----------------
       1       -0.000022248833    -0.000042333559     0.000022845283
       2        0.000001969263     0.000010018850    -0.000046332682
       3        0.000000355069     0.000011930436     0.000010806778
       4       -0.000016252371    -0.000011196128     0.000050171775
       5        0.000015168311    -0.000009048522     0.000027011019
       6       -0.000008283967     0.000042884659     0.000001019289
       7        0.000017185505    -0.000005543738    -0.000027280883
       8        0.002572908506     0.003671912855     0.002046635153
       9        0.000995486321     0.001285181722     0.004151290046
      10       -0.002251470739    -0.003199813802    -0.002333770465
      11       -0.000006254876    -0.000017023517    -0.000007783082
      12        0.000007947465     0.000004336699    -0.000006223960
      13       -0.001300581947    -0.001752821092    -0.003898883639
      14       -0.000002858462     0.000008804062    -0.000004559248
      15        0.000000760231    -0.000002203217     0.000005636278
      16        0.000000430134     0.000007291833    -0.000003424699
      17        0.000006008390     0.000002304480     0.000009343641
      18       -0.000009221647    -0.000003047990     0.000000988267
      19        0.000002933339    -0.000003310383     0.000006119275
      20       -0.000001469179     0.000001209298    -0.000006417299
      21        0.000001414187    -0.000000034848    -0.000001099787
      22       -0.000004145730    -0.000000376298     0.000002773819
      23        0.000000221027     0.000000878202     0.000001135121

  **** Optimization is complete! (in 7 steps) ****
    Final optimized geometry and variables:
    Molecular point group: c1

    Geometry (in Angstrom), charge = 0, multiplicity = 1:

    O           -2.493280926231     1.751017153068     0.632623127723
    C           -2.304045008685     0.582041371762     0.606138636639
    C           -3.406924344462    -0.439768138435     0.537521105557
    O           -1.104779313220     0.035019599795     0.635391041313
    H           -3.992777043386    -0.254263967124    -0.352697130726
    H           -3.023061586135    -1.447290553782     0.522882291283
    H           -4.055438320800    -0.303684574895     1.392509101146
    C            0.021511780248     0.909235231504     0.698950069855
    C            1.274954068046     0.048103729801     0.664502717851
    H           -0.033393345542     1.569932877387    -0.154409375272
    H           -0.048298300184     1.497521715318     1.601450391301
    C            1.759210467291    -0.254457555016    -0.752875510935
    H            1.053324353588    -0.890284584660     1.159904633035
    H            2.062291236495     0.542450355037     1.223161794692
    C            2.971155582887    -1.180161454452    -0.788518340564
    H            0.946823107187    -0.703121610382    -1.318285879218
    H            2.004891907983     0.677926122480    -1.255331762197
    C            3.458326464507    -1.473940173782    -2.203344380648
    H            2.723387947027    -2.114101332827    -0.291651555620
    H            3.779675233271    -0.735496327670    -0.214313017814
    H            2.682087355404    -1.949897120542    -2.793153377491
    H            4.317601576010    -2.134421035820    -2.193300917839
    H            3.748090967179    -0.562147434042    -2.714873021911

  Mulliken Charges: (a.u.)
   Center  Symbol    Alpha    Beta     Spin     Total
       1     O     4.20296  4.20296  0.00000 -0.40592
       2     C     2.81325  2.81325  0.00000  0.37350
       3     C     3.13942  3.13942  0.00000 -0.27883
       4     O     4.14993  4.14993  0.00000 -0.29985
       5     H     0.44213  0.44213  0.00000  0.11574
       6     H     0.44242  0.44242  0.00000  0.11516
       7     H     0.44182  0.44182  0.00000  0.11635
       8     C     2.98728  2.98728  0.00000  0.02544
       9     C     3.08812  3.08812  0.00000 -0.17624
      10     H     0.45300  0.45300  0.00000  0.09399
      11     H     0.44469  0.44469  0.00000  0.11062
      12     C     3.08988  3.08988  0.00000 -0.17976
      13     H     0.45005  0.45005  0.00000  0.09991
      14     H     0.44850  0.44850  0.00000  0.10300
      15     C     3.08614  3.08614  0.00000 -0.17229
      16     H     0.45118  0.45118  0.00000  0.09763
      17     H     0.45418  0.45418  0.00000  0.09164
      18     C     3.14962  3.14962  0.00000 -0.29924
      19     H     0.45342  0.45342  0.00000  0.09316
      20     H     0.45465  0.45465  0.00000  0.09070
      21     H     0.45472  0.45472  0.00000  0.09057
      22     H     0.44792  0.44792  0.00000  0.10416
      23     H     0.45472  0.45472  0.00000  0.09056

   Total alpha = 36.00000, Total beta = 36.00000, Total charge =  0.00000

*** Psi4 exiting successfully. Buy a developer a beer!
