                              Psi4 1.0.54 Driver

  ==> Input File <==

--------------------------------------------------------------------------
set {
	reference rhf
	basis cc-pvtz
}

set_num_threads( 4 )
memory 2 gb

molecule MOL {
0 1

H	 -2.305261	 -0.736190	 1.064507
N	 -1.529793	 -0.108568	 1.046818
C	 -0.561396	 -0.500007	 0.035200
H	 -1.119342	 -0.121542	 1.957146
C	 0.575129	 0.507849	 -0.048832
H	 -1.075386	 -0.538091	 -0.919568
H	 -0.145691	 -1.494136	 0.206403
C	 1.951750	 -0.141983	 0.035101
H	 0.478254	 1.061643	 -0.975981
H	 0.467676	 1.231891	 0.755499
H	 2.101550	 -0.848142	 -0.774949
H	 2.738260	 0.600794	 -0.026526
H	 2.078939	 -0.679792	 0.968824

	symmetry c1
}
set optking {
	frozen_dihedral = ("
		6 3 5 9
	")
}

ee,wfn = optimize('scf', return_wfn=True)
oeprop( wfn, 'DIPOLE', 'QUADRUPOLE', 'MULLIKEN_CHARGES')
f=open( 'psi4out.xyz', 'w' )
f.write( "13  " )
f.write( str(ee) + "\n" )
f.write( MOL.save_string_xyz() )
f.close()
--------------------------------------------------------------------------

    Molecular point group: c1
  Charge       = 0
  Multiplicity = 1
  Basis Set: CC-PVTZ
  Basis Set:
  @DF-RHF Final Energy:  -173.34610418582471
    Total Energy =                       -173.3461041858247427
    Molecular point group: c1
  Basis Set: CC-PVTZ
  Basis Set:
  Basis Set: CC-PVTZ
  Basis Set:
  @DF-RHF Final Energy:  -173.34647022622008
    Total Energy =                       -173.3464702262202195
  Basis Set: CC-PVTZ
  Basis Set:
  Basis Set: CC-PVTZ
  Basis Set:
  @DF-RHF Final Energy:  -173.34657640519555
    Total Energy =                       -173.3465764051956057
  Basis Set: CC-PVTZ
  Basis Set:
  Basis Set: CC-PVTZ
  Basis Set:
  @DF-RHF Final Energy:  -173.34657779570139
    Total Energy =                       -173.3465777957012506
  Basis Set: CC-PVTZ
  Basis Set:
  Charge       = 0
  Multiplicity = 1
  Basis Set: CC-PVTZ
  Basis Set:

    Orbital Energies (a.u.)
    -----------------------

    Doubly Occupied:

       1A    -15.526826     2A    -11.238629     3A    -11.210448
       4A    -11.207366     5A     -1.177146     6A     -1.033826
       7A     -0.899587     8A     -0.799635     9A     -0.667947
      10A     -0.622766    11A     -0.601990    12A     -0.564967
      13A     -0.540595    14A     -0.489242    15A     -0.477903
      16A     -0.465042    17A     -0.383147

  @DF-RHF Final Energy:  -173.34657795574682

   => Energetics <=

    Nuclear Repulsion Energy =            131.9525194575375338
    One-Electron Energy =                -494.7840696040333910
    Two-Electron Energy =                 189.4849721907490050
    DFT Exchange-Correlation Energy =       0.0000000000000000
    Empirical Dispersion Energy =           0.0000000000000000
    PCM Polarization Energy =               0.0000000000000000
    EFP Energy =                            0.0000000000000000
    Total Energy =                       -173.3465779557468238
    Molecular point group: c1
  Basis Set: CC-PVTZ
  Basis Set:

  -Total Gradient:
     Atom            X                  Y                   Z
    ------   -----------------  -----------------  -----------------
       1       -0.000016281604     0.000000391457     0.000011924251
       2        0.000020335118    -0.000019872254    -0.000028697634
       3        0.002079807844    -0.002439399249    -0.001130038871
       4        0.000005138416    -0.000002198430    -0.000008740605
       5       -0.001948636178     0.002336606830     0.001508144002
       6       -0.001437689777     0.001686544989     0.000711460161
       7       -0.000001684535     0.000012707129     0.000003594997
       8       -0.000011299539     0.000010148171     0.000010528883
       9        0.001309790157    -0.001588063041    -0.001077100413
      10        0.000001822272    -0.000002477357     0.000005590693
      11       -0.000010453864    -0.000004368891     0.000001361216
      12        0.000005775003     0.000004517768    -0.000004403290
      13        0.000003376687     0.000005462881    -0.000003623390

  **** Optimization is complete! (in 5 steps) ****
    Final optimized geometry and variables:
    Molecular point group: c1

    Geometry (in Angstrom), charge = 0, multiplicity = 1:

    H           -2.417170803002    -0.662745319170     0.756255707978
    N           -1.644281828952    -0.031038540099     0.746990276181
    C           -0.656478689795    -0.430137457918    -0.247400637777
    H           -1.248394156318    -0.038145990067     1.664100148369
    C            0.494559696356     0.588363559186    -0.327104892216
    H           -1.173714885674    -0.474439762576    -1.198011101692
    H           -0.251475594481    -1.423327360772    -0.057687098375
    C            1.877874710232    -0.054386083646    -0.267085090610
    H            0.417895155599     1.153889782726    -1.248814664302
    H            0.387685867273     1.300990044546     0.481960829238
    H            2.021049018946    -0.756330441263    -1.082129944903
    H            2.660074020445     0.693017392167    -0.335643697364
    H            2.018688299869    -0.598053297978     0.661700618069

  Mulliken Charges: (a.u.)
   Center  Symbol    Alpha    Beta     Spin     Total
       1     H     0.42967  0.42967  0.00000  0.14065
       2     N     3.68896  3.68896  0.00000 -0.37793
       3     C     3.03039  3.03039  0.00000 -0.06078
       4     H     0.43097  0.43097  0.00000  0.13806
       5     C     3.08557  3.08557  0.00000 -0.17115
       6     H     0.45552  0.45552  0.00000  0.08896
       7     H     0.46593  0.46593  0.00000  0.06815
       8     C     3.14917  3.14917  0.00000 -0.29834
       9     H     0.45180  0.45180  0.00000  0.09640
      10     H     0.44964  0.44964  0.00000  0.10072
      11     H     0.45570  0.45570  0.00000  0.08860
      12     H     0.44952  0.44952  0.00000  0.10095
      13     H     0.45715  0.45715  0.00000  0.08570

   Total alpha = 17.00000, Total beta = 17.00000, Total charge =  0.00000

*** Psi4 exiting successfully. Buy a developer a beer!
