  ==> Input File <==

--------------------------------------------------------------------------
set {
	reference rhf
	basis 6-31G*
}

set_num_threads( 4 )
memory 2 gb

molecule MOL {
0 1

H	 -0.367348	 2.047014	 -0.308205
C	 0.352277	 1.337084	 0.083769
N	 -0.000016	 0.000074	 -0.335546
H	 1.328359	 1.600444	 -0.307950
H	 0.381933	 1.450534	 1.172486
C	 -0.020588	 -0.925810	 0.773772
C	 -1.237343	 -0.023594	 -1.081613
H	 -0.217730	 -1.928647	 0.412101
H	 0.945691	 -0.932273	 1.265428
H	 -0.780518	 -0.679903	 1.522717
H	 -1.159289	 0.628324	 -1.944332
H	 -1.432097	 -1.028387	 -1.439246
H	 -2.100367	 0.299103	 -0.490019

	symmetry c1
}
set optking {
	frozen_dihedral = ("
		6 3 2 1
	")
}

ee = optimize('scf')
oeprop('DIPOLE', 'QUADRUPOLE', 'MULLIKEN_CHARGES')
f=open( 'psi4out.xyz', 'w' )
f.write( "13  " )
f.write( str(ee) + "\n" )
f.write( MOL.save_string_xyz() )
f.close()
--------------------------------------------------------------------------

    Molecular point group: c1
  Charge       = 0
  Multiplicity = 1
  Basis Set: 6-31G*
  Basis Set:
  @DF-RHF Final Energy:  -173.26179325985674
    Total Energy =                       -173.2617932598568018
    Molecular point group: c1
  Basis Set: 6-31G*
  Basis Set:
  Basis Set: 6-31G*
  Basis Set:
  @DF-RHF Final Energy:  -173.26236667776243
    Total Energy =                       -173.2623666777623725
  Basis Set: 6-31G*
  Basis Set:
  Basis Set: 6-31G*
  Basis Set:
  @DF-RHF Final Energy:  -173.26251676053278
    Total Energy =                       -173.2625167605327476
  Basis Set: 6-31G*
  Basis Set:
  Charge       = 0
  Multiplicity = 1
  Basis Set: 6-31G*
  Basis Set:

    Orbital Energies (a.u.)
    -----------------------

    Doubly Occupied:

       1A    -15.539845     2A    -11.235329     3A    -11.235297
       4A    -11.235228     5A     -1.219068     6A     -0.951118
       7A     -0.950310     8A     -0.806592     9A     -0.637076
      10A     -0.628066    11A     -0.626303    12A     -0.550589
      13A     -0.547322    14A     -0.513819    15A     -0.500443
      16A     -0.498592    17A     -0.339873

  @DF-RHF Final Energy:  -173.26251920597517

   => Energetics <=

    Nuclear Repulsion Energy =            138.7855640905696930
    One-Electron Energy =                -508.0664259907781570
    Two-Electron Energy =                 196.0183426942332972
    DFT Exchange-Correlation Energy =       0.0000000000000000
    Empirical Dispersion Energy =           0.0000000000000000
    PCM Polarization Energy =               0.0000000000000000
    EFP Energy =                            0.0000000000000000
    Total Energy =                       -173.2625192059751953
    Molecular point group: c1
  Basis Set: 6-31G*
  Basis Set:

  -Total Gradient:
     Atom            X                  Y                   Z
    ------   -----------------  -----------------  -----------------
       1       -0.000866246015    -0.000150737265     0.001386329018
       2        0.000662041889     0.000421441428    -0.001586903462
       3        0.001563691751    -0.000321357287    -0.000037208052
       4        0.000003594995    -0.000026760415     0.000002706212
       5       -0.000004421593     0.000062939356    -0.000010891413
       6       -0.001339862334     0.000096204469     0.000262253280
       7       -0.000174866116    -0.000123461447     0.000040944668
       8        0.000007826428    -0.000046086134     0.000014733272
       9       -0.000021239730     0.000061846193    -0.000079786907
      10        0.000034854393     0.000039647512    -0.000038330489
      11        0.000081235219    -0.000001978034     0.000059740969
      12       -0.000006764870    -0.000020388041    -0.000013977988
      13        0.000060155984     0.000008689667     0.000000390894

  **** Optimization is complete! (in 4 steps) ****
    Final optimized geometry and variables:
    Molecular point group: c1

    Geometry (in Angstrom), charge = 0, multiplicity = 1:

    H           -0.093236425274     1.986770337305    -0.159610850787
    C            0.614390843021     1.248839704922     0.203650718462
    N            0.226665063727    -0.097482028038    -0.197670215919
    H            1.597714917799     1.504191044248    -0.179472690172
    H            0.641662790692     1.352890669212     1.285697374890
    C            0.219698450317    -1.036170594415     0.900469825839
    C           -1.002058372020    -0.139709524739    -0.957430723456
    H            0.034762068878    -2.037374864553     0.527491605282
    H            1.187803485229    -1.039856515420     1.388410067791
    H           -0.539741373302    -0.809398016605     1.655727904922
    H           -0.920624502766     0.502577830380    -1.826629356880
    H           -1.179176881011    -1.149826959866    -1.309612670983
    H           -1.878548825247     0.175758629153    -0.382112732901

  Mulliken Charges: (a.u.)
   Center  Symbol    Alpha    Beta     Spin     Total
       1     H     0.42170  0.42170  0.00000  0.15661
       2     C     3.14415  3.14415  0.00000 -0.28830
       3     N     3.77054  3.77054  0.00000 -0.54108
       4     H     0.41561  0.41561  0.00000  0.16877
       5     H     0.42452  0.42452  0.00000  0.15096
       6     C     3.14181  3.14181  0.00000 -0.28362
       7     C     3.14160  3.14160  0.00000 -0.28320
       8     H     0.41794  0.41794  0.00000  0.16412
       9     H     0.41639  0.41639  0.00000  0.16721
      10     H     0.43556  0.43556  0.00000  0.12889
      11     H     0.41638  0.41638  0.00000  0.16723
      12     H     0.41804  0.41804  0.00000  0.16391
      13     H     0.43575  0.43575  0.00000  0.12849

   Total alpha = 17.00000, Total beta = 17.00000, Total charge = -0.00000
