                              Psi4 1.0.54 Driver

  ==> Input File <==

--------------------------------------------------------------------------
set {
	reference rhf
	basis cc-pvtz
}

set_num_threads( 4 )
memory 2 gb

molecule MOL {
0 1

H	 -1.752232	 -2.214755	 -0.011938
C	 -1.343852	 -1.221619	 -0.018179
N	 -0.058800	 -1.097635	 -0.261688
C	 -2.148159	 -0.124236	 0.219734
C	 0.449026	 0.119242	 -0.273393
H	 -3.196988	 -0.237571	 0.417076
N	 -1.655094	 1.094230	 0.209506
C	 -0.370318	 1.215445	 -0.035100
C	 1.924033	 0.265863	 -0.538106
H	 0.033214	 2.210441	 -0.046812
C	 2.577954	 -1.046530	 -0.973376
H	 2.055325	 1.008502	 -1.315932
H	 2.413204	 0.642907	 0.352267
H	 3.629128	 -0.893836	 -1.187041
H	 2.101768	 -1.431889	 -1.865410
H	 2.498823	 -1.798517	 -0.196330

	symmetry c1
}
set optking {
	frozen_dihedral = ("
		12 9 5 3
	")
}

ee,wfn = optimize('scf', return_wfn=True)
oeprop( wfn, 'DIPOLE', 'QUADRUPOLE', 'MULLIKEN_CHARGES')
f=open( 'psi4out.xyz', 'w' )
f.write( "16  " )
f.write( str(ee) + "\n" )
f.write( MOL.save_string_xyz() )
f.close()
--------------------------------------------------------------------------

    Molecular point group: c1
  Charge       = 0
  Multiplicity = 1
  Basis Set: CC-PVTZ
  Basis Set:
  @DF-RHF Final Energy:  -340.87014700159193
    Total Energy =                       -340.8701470015918744
    Molecular point group: c1
  Basis Set: CC-PVTZ
  Basis Set:
  Basis Set: CC-PVTZ
  Basis Set:
  @DF-RHF Final Energy:  -340.87079170302093
    Total Energy =                       -340.8707917030209273
  Basis Set: CC-PVTZ
  Basis Set:
  Basis Set: CC-PVTZ
  Basis Set:
  @DF-RHF Final Energy:  -340.87095307864627
    Total Energy =                       -340.8709530786463233
  Basis Set: CC-PVTZ
  Basis Set:
  Basis Set: CC-PVTZ
  Basis Set:
  @DF-RHF Final Energy:  -340.87098591504696
    Total Energy =                       -340.8709859150468446
  Basis Set: CC-PVTZ
  Basis Set:
  Basis Set: CC-PVTZ
  Basis Set:
  @DF-RHF Final Energy:  -340.87100388934266
    Total Energy =                       -340.8710038893424894
  Basis Set: CC-PVTZ
  Basis Set:
  Basis Set: CC-PVTZ
  Basis Set:
  @DF-RHF Final Energy:  -340.87100638580836
    Total Energy =                       -340.8710063858084141
  Basis Set: CC-PVTZ
  Basis Set:
  Charge       = 0
  Multiplicity = 1
  Basis Set: CC-PVTZ
  Basis Set:

    Orbital Energies (a.u.)
    -----------------------

    Doubly Occupied:

       1A    -15.580274     2A    -15.574888     3A    -11.280653
       4A    -11.270402     5A    -11.269404     6A    -11.265769
       7A    -11.233738     8A    -11.210971     9A     -1.315739
      10A     -1.223875    11A     -1.084740    12A     -1.015233
      13A     -0.912441    14A     -0.890284    15A     -0.824992
      16A     -0.720543    17A     -0.707927    18A     -0.658005
      19A     -0.630450    20A     -0.604336    21A     -0.569411
      22A     -0.560574    23A     -0.523229    24A     -0.504237
      25A     -0.501848    26A     -0.487488    27A     -0.435066
      28A     -0.397235    29A     -0.345469

  @DF-RHF Final Energy:  -340.87100710879196

   => Energetics <=

    Nuclear Repulsion Energy =            350.4162997954685466
    One-Electron Energy =               -1155.3761719963590622
    Two-Electron Energy =                 464.0888650920986152
    DFT Exchange-Correlation Energy =       0.0000000000000000
    Empirical Dispersion Energy =           0.0000000000000000
    PCM Polarization Energy =               0.0000000000000000
    EFP Energy =                            0.0000000000000000
    Total Energy =                       -340.8710071087918436
    Molecular point group: c1
  Basis Set: CC-PVTZ
  Basis Set:

  -Total Gradient:
     Atom            X                  Y                   Z
    ------   -----------------  -----------------  -----------------
       1        0.000025247387    -0.000009569912     0.000015614803
       2       -0.000020631793    -0.000002776783    -0.000068250469
       3       -0.000071116725    -0.000056569998    -0.000059754709
       4        0.000053482118    -0.000012937051    -0.000021358564
       5        0.000032255833    -0.000013437254     0.000147426523
       6        0.000003880500     0.000011785706     0.000019473942
       7        0.000076685665     0.000039114132    -0.000017622241
       8       -0.000092014725    -0.000007549009     0.000041209522
       9        0.000064208557     0.000168033782     0.000058736732
      10       -0.000009315335     0.000023005331    -0.000005193605
      11       -0.000009173178    -0.000076249259    -0.000032711971
      12       -0.000025278726    -0.000064805933    -0.000093522057
      13       -0.000027997043    -0.000006051773    -0.000014232452
      14       -0.000057732018     0.000003656206     0.000023930328
      15        0.000031622443     0.000014362198     0.000027983315
      16        0.000025877044    -0.000010010382    -0.000021729095

  **** Optimization is complete! (in 7 steps) ****
    Final optimized geometry and variables:
    Molecular point group: c1

    Geometry (in Angstrom), charge = 0, multiplicity = 1:

    H           -1.942934902476    -1.940735235357     0.140784119265
    C           -1.442765420720    -0.991116827916     0.156700726317
    N           -0.138423724689    -0.992185955337    -0.060150225505
    C           -2.136311372588     0.169610197540     0.392787013646
    C            0.483983974470     0.160113350625    -0.043786979732
    H           -3.194610070341     0.161595669753     0.568317855289
    N           -1.521334467443     1.340540578835     0.410574949769
    C           -0.234105603727     1.335546430356     0.195320734355
    C            1.976422963009     0.216261205095    -0.275693493462
    H            0.270161518912     2.284609257589     0.206529802329
    C            2.611287441259    -1.106994293328    -0.679956790847
    H            2.173963813179     0.965744441639    -1.035787560412
    H            2.446014885344     0.584425711449     0.632074680919
    H            3.675191465398    -0.971453660493    -0.833396369257
    H            2.179799324036    -1.484811237602    -1.597709661035
    H            2.468789085647    -1.860755889787     0.082084648462

  Mulliken Charges: (a.u.)
   Center  Symbol    Alpha    Beta     Spin     Total
       1     H     0.41470  0.41470  0.00000  0.17060
       2     C     3.04882  3.04882  0.00000 -0.09765
       3     N     3.58879  3.58879  0.00000 -0.17758
       4     C     3.04676  3.04676  0.00000 -0.09353
       5     C     2.94523  2.94523  0.00000  0.10955
       6     H     0.41362  0.41362  0.00000  0.17275
       7     N     3.58677  3.58677  0.00000 -0.17354
       8     C     3.07371  3.07371  0.00000 -0.14742
       9     C     3.08162  3.08162  0.00000 -0.16324
      10     H     0.41612  0.41612  0.00000  0.16776
      11     C     3.14355  3.14355  0.00000 -0.28710
      12     H     0.44685  0.44685  0.00000  0.10630
      13     H     0.44599  0.44599  0.00000  0.10801
      14     H     0.45012  0.45012  0.00000  0.09975
      15     H     0.44980  0.44980  0.00000  0.10040
      16     H     0.44754  0.44754  0.00000  0.10492

   Total alpha = 29.00000, Total beta = 29.00000, Total charge =  0.00000

*** Psi4 exiting successfully. Buy a developer a beer!
