                              Psi4 1.0.54 Driver

  ==> Input File <==

--------------------------------------------------------------------------
set {
	reference rhf
	basis cc-pvtz
}

set_num_threads( 4 )
memory 2 gb

molecule MOL {
0 1

O	 0.130850	 1.174101	 0.432860
C	 0.029490	 0.077183	 0.000078
C	 -1.232113	 -0.748027	 0.000015
O	 1.035230	 -0.580662	 -0.552153
C	 -2.501422	 0.088592	 -0.000052
H	 -1.188777	 -1.400384	 -0.865133
H	 -1.188857	 -1.400312	 0.865225
H	 -2.548170	 0.725504	 -0.873205
H	 -3.371613	 -0.556398	 -0.000040
H	 -2.548215	 0.725571	 0.873047
C	 2.283603	 0.078764	 -0.618211
H	 2.205764	 0.984827	 -1.200643
H	 2.960642	 -0.612248	 -1.093548
H	 2.637072	 0.325608	 0.371926

	symmetry c1
}
set optking {
	frozen_dihedral = ("
		4 2 3 6
	")
}

ee,wfn = optimize('scf', return_wfn=True)
oeprop( wfn, 'DIPOLE', 'QUADRUPOLE', 'MULLIKEN_CHARGES')
f=open( 'psi4out.xyz', 'w' )
f.write( "14  " )
f.write( str(ee) + "\n" )
f.write( MOL.save_string_xyz() )
f.close()
--------------------------------------------------------------------------

    Molecular point group: c1
  Charge       = 0
  Multiplicity = 1
  Basis Set: CC-PVTZ
  Basis Set:
  @DF-RHF Final Energy:  -305.98691365379699
    Total Energy =                       -305.9869136537969325
    Molecular point group: c1
  Basis Set: CC-PVTZ
  Basis Set:
  Basis Set: CC-PVTZ
  Basis Set:
  @DF-RHF Final Energy:  -305.98696499287246
    Total Energy =                       -305.9869649928723447
  Basis Set: CC-PVTZ
  Basis Set:
  Basis Set: CC-PVTZ
  Basis Set:
  @DF-RHF Final Energy:  -305.98671540200706
    Total Energy =                       -305.9867154020068369
  Basis Set: CC-PVTZ
  Basis Set:
  Basis Set: CC-PVTZ
  Basis Set:
  @DF-RHF Final Energy:  -305.98712547845662
    Total Energy =                       -305.9871254784566190
  Basis Set: CC-PVTZ
  Basis Set:
  Charge       = 0
  Multiplicity = 1
  Basis Set: CC-PVTZ
  Basis Set:

    Orbital Energies (a.u.)
    -----------------------

    Doubly Occupied:

       1A    -20.598276     2A    -20.533782     3A    -11.365220
       4A    -11.279194     5A    -11.236883     6A    -11.216278
       7A     -1.473422     8A     -1.366277     9A     -1.065408
      10A     -0.981405    11A     -0.879692    12A     -0.772022
      13A     -0.702440    14A     -0.685593    15A     -0.675512
      16A     -0.620865    17A     -0.603890    18A     -0.551148
      19A     -0.539042    20A     -0.520741    21A     -0.516203
      22A     -0.496748    23A     -0.461314    24A     -0.441692

  @DF-RHF Final Energy:  -305.98713067493406

   => Energetics <=

    Nuclear Repulsion Energy =            247.5610050803128672
    One-Electron Energy =                -907.9301782778403549
    Two-Electron Energy =                 354.3820425225937925
    DFT Exchange-Correlation Energy =       0.0000000000000000
    Empirical Dispersion Energy =           0.0000000000000000
    PCM Polarization Energy =               0.0000000000000000
    EFP Energy =                            0.0000000000000000
    Total Energy =                       -305.9871306749337236
    Molecular point group: c1
  Basis Set: CC-PVTZ
  Basis Set:

  -Total Gradient:
     Atom            X                  Y                   Z
    ------   -----------------  -----------------  -----------------
       1        0.000086319633    -0.000020394134     0.000003399217
       2        0.000223587825    -0.000842614348     0.001189472323
       3       -0.000691581651     0.001165508358    -0.001027035903
       4       -0.000265465542     0.000460714568    -0.000829793272
       5       -0.000001164008     0.000008083808    -0.000047820020
       6        0.000529987993    -0.000736805167     0.000712999546
       7        0.000014311239     0.000018596274    -0.000042800388
       8        0.000000822662    -0.000034342524     0.000061614155
       9        0.000041146383     0.000026113180    -0.000003261472
      10        0.000017609201    -0.000046643779    -0.000040469948
      11        0.000067735488     0.000033558261     0.000037039206
      12       -0.000016249164    -0.000060113245     0.000038319031
      13       -0.000009289253     0.000029206003     0.000009179658
      14        0.000002229197    -0.000000867254    -0.000060842133

  **** Optimization is complete! (in 5 steps) ****
    Final optimized geometry and variables:
    Molecular point group: c1

    Geometry (in Angstrom), charge = 0, multiplicity = 1:

    O            0.147088737089     1.165467976235     0.501363645133
    C            0.041470269250     0.055198831142     0.103813184893
    C           -1.234630784911    -0.747894353827     0.114338291877
    O            1.054307739985    -0.636998260356    -0.388283335994
    C           -2.486939597249     0.115995819635     0.089378059970
    H           -1.207191853628    -1.451258980773    -0.706663992354
    H           -1.205050031294    -1.344126699308     1.022113828824
    H           -2.539781751035     0.700025332239    -0.821086488533
    H           -3.370599280007    -0.507776488643     0.141785287326
    H           -2.498982320698     0.802482732954     0.923816654945
    C            2.321580407034    -0.010462372806    -0.401781018830
    H            2.296098794131     0.886115509276    -1.002742328355
    H            3.003122442051    -0.727152075009    -0.830215801149
    H            2.631011478666     0.245731024023     0.600562523310

  Mulliken Charges: (a.u.)
   Center  Symbol    Alpha    Beta     Spin     Total
       1     O     4.19890  4.19890  0.00000 -0.39780
       2     C     2.80533  2.80533  0.00000  0.38935
       3     C     3.09087  3.09087  0.00000 -0.18174
       4     O     4.14555  4.14555  0.00000 -0.29109
       5     C     3.14128  3.14128  0.00000 -0.28257
       6     H     0.43845  0.43845  0.00000  0.12309
       7     H     0.44528  0.44528  0.00000  0.10944
       8     H     0.45225  0.45225  0.00000  0.09551
       9     H     0.45004  0.45004  0.00000  0.09991
      10     H     0.44326  0.44326  0.00000  0.11348
      11     C     3.03495  3.03495  0.00000 -0.06990
      12     H     0.45407  0.45407  0.00000  0.09185
      13     H     0.44529  0.44529  0.00000  0.10941
      14     H     0.45447  0.45447  0.00000  0.09106

   Total alpha = 24.00000, Total beta = 24.00000, Total charge = -0.00000

*** Psi4 exiting successfully. Buy a developer a beer!
