  ==> Input File <==

--------------------------------------------------------------------------
set {
	reference rhf
	basis 6-31G*
}

set_num_threads( 4 )
memory 2 gb

molecule MOL {
0 1

O	 0.625848	 1.349995	 -0.000749
C	 0.486307	 0.169203	 0.000779
C	 1.608116	 -0.841643	 0.000302
O	 -0.698257	 -0.426125	 0.001050
C	 2.990107	 -0.200498	 -0.000684
H	 1.468623	 -1.481519	 -0.865924
H	 1.469683	 -1.481289	 0.866878
H	 3.129736	 0.423364	 -0.875135
H	 3.757882	 -0.966877	 -0.001197
H	 3.130964	 0.423383	 0.873533
C	 -1.480346	 -0.335460	 -1.185338
C	 -2.770724	 -1.087441	 -0.936819
H	 -0.922400	 -0.760190	 -2.008675
H	 -1.661777	 0.706905	 -1.409277
H	 -2.571613	 -2.128321	 -0.708604
H	 -3.399772	 -1.043691	 -1.820014
H	 -3.315155	 -0.653233	 -0.105968

	symmetry c1
}
set optking {
	frozen_dihedral = ("
		11 4 2 3
	")
}

ee = optimize('scf')
oeprop('DIPOLE', 'QUADRUPOLE', 'MULLIKEN_CHARGES')
f=open( 'psi4out.xyz', 'w' )
f.write( "17  " )
f.write( str(ee) + "\n" )
f.write( MOL.save_string_xyz() )
f.close()
--------------------------------------------------------------------------

    Molecular point group: c1
  Charge       = 0
  Multiplicity = 1
  Basis Set: 6-31G*
  Basis Set:
  @DF-RHF Final Energy:  -344.89479815931463
    Total Energy =                       -344.8947981593144050
    Molecular point group: c1
  Basis Set: 6-31G*
  Basis Set:
  Basis Set: 6-31G*
  Basis Set:
  @DF-RHF Final Energy:  -344.89477228808886
    Total Energy =                       -344.8947722880889160
  Basis Set: 6-31G*
  Basis Set:
  Basis Set: 6-31G*
  Basis Set:
  @DF-RHF Final Energy:  -344.89501797111916
    Total Energy =                       -344.8950179711193300
  Basis Set: 6-31G*
  Basis Set:
  Basis Set: 6-31G*
  Basis Set:
  @DF-RHF Final Energy:  -344.89565794221880
    Total Energy =                       -344.8956579422190316
  Basis Set: 6-31G*
  Basis Set:
  @DF-RHF Final Energy:  -344.89566848364461
    Total Energy =                       -344.8956684836444424
  Basis Set: 6-31G*
  Basis Set:
  @DF-RHF Final Energy:  -344.89566842196371
    Total Energy =                       -344.8956684219638191
  Basis Set: 6-31G*
  Basis Set:
  Basis Set: 6-31G*
  Basis Set:
  @DF-RHF Final Energy:  -344.89550010311513
    Total Energy =                       -344.8955001031152392
  Basis Set: 6-31G*
  Basis Set:
  Basis Set: 6-31G*
  Basis Set:
  @DF-RHF Final Energy:  -344.89566908883290
    Total Energy =                       -344.8956690888324488
  Basis Set: 6-31G*
  Basis Set:
  Charge       = 0
  Multiplicity = 1
  Basis Set: 6-31G*
  Basis Set:

    Orbital Energies (a.u.)
    -----------------------

    Doubly Occupied:

       1A    -20.583808     2A    -20.554751     3A    -11.373939
       4A    -11.292722     5A    -11.240818     6A    -11.223693
       7A    -11.217923     8A     -1.458519     9A     -1.364805
      10A     -1.066611    11A     -1.034784    12A     -0.906211
      13A     -0.858832    14A     -0.769449    15A     -0.700606
      16A     -0.682275    17A     -0.657953    18A     -0.633624
      19A     -0.601323    20A     -0.563249    21A     -0.556992
      22A     -0.528491    23A     -0.524451    24A     -0.518958
      25A     -0.504738    26A     -0.491252    27A     -0.449821
      28A     -0.434061

  @DF-RHF Final Energy:  -344.89566933573940

   => Energetics <=

    Nuclear Repulsion Energy =            314.2636399519261658
    One-Electron Energy =               -1092.7293040115055192
    Two-Electron Energy =                 433.5699947238398408
    DFT Exchange-Correlation Energy =       0.0000000000000000
    Empirical Dispersion Energy =           0.0000000000000000
    PCM Polarization Energy =               0.0000000000000000
    EFP Energy =                            0.0000000000000000
    Total Energy =                       -344.8956693357395125
    Molecular point group: c1
  Basis Set: 6-31G*
  Basis Set:

  -Total Gradient:
     Atom            X                  Y                   Z
    ------   -----------------  -----------------  -----------------
       1       -0.000015846966     0.000064918427     0.000145494634
       2        0.001225799431    -0.002280318201     0.005918488101
       3        0.000027832011    -0.000016373298    -0.004965893160
       4       -0.003482094392     0.006910460211     0.000718232774
       5       -0.000023488340    -0.000004632612     0.000034664004
       6        0.000022642767     0.000010512066     0.000017262878
       7       -0.000014421591    -0.000035044629     0.000019361421
       8        0.000007149037     0.000010777835    -0.000013224681
       9       -0.000014730453    -0.000005113040    -0.000006667859
      10       -0.000005267263    -0.000000919907    -0.000005698388
      11        0.002225908694    -0.004629099510    -0.001893435483
      12        0.000003472128     0.000002130348    -0.000000664697
      13        0.000037156483    -0.000035390661     0.000009698711
      14       -0.000007220132     0.000007756422     0.000026658922
      15       -0.000001996428    -0.000000788919    -0.000002347232
      16        0.000006727257    -0.000002342665    -0.000000495830
      17        0.000008377759     0.000003468131    -0.000001434117

  **** Optimization is complete! (in 9 steps) ****
    Final optimized geometry and variables:
    Molecular point group: c1

    Geometry (in Angstrom), charge = 0, multiplicity = 1:

    O            0.514923457085     1.525582505395     0.246956776470
    C            0.401391052433     0.348762001494     0.295809580490
    C            1.547998106204    -0.631688264448     0.287553659370
    O           -0.801998192647    -0.260186307421     0.316446612184
    C            2.918130136644     0.029371132817     0.361438710947
    H            1.442745037534    -1.220329084161    -0.621133985341
    H            1.396111617988    -1.329485044445     1.105675615320
    H            3.069929972164     0.706006650716    -0.470564589282
    H            3.699889677262    -0.722338014901     0.339180760567
    H            3.023447827043     0.602931145932     1.274679823255
    C           -1.586426776519    -0.171531312715    -0.865692461941
    C           -2.909261036231    -0.856032832395    -0.597353716416
    H           -1.057130622110    -0.659211122234    -1.679236395984
    H           -1.727222619513     0.870074876178    -1.123678298020
    H           -2.754546554918    -1.894960838413    -0.330172795855
    H           -3.535498955936    -0.815880539109    -1.482805882882
    H           -3.428974762866    -0.365496233048     0.217080352261

  Mulliken Charges: (a.u.)
   Center  Symbol    Alpha    Beta     Spin     Total
       1     O     4.26036  4.26036  0.00000 -0.52071
       2     C     2.60931  2.60931  0.00000  0.78138
       3     C     3.20811  3.20811  0.00000 -0.41623
       4     O     4.32319  4.32319  0.00000 -0.64639
       5     C     3.23986  3.23986  0.00000 -0.47972
       6     H     0.40567  0.40567  0.00000  0.18867
       7     H     0.39921  0.39921  0.00000  0.20159
       8     H     0.40935  0.40935  0.00000  0.18130
       9     H     0.41782  0.41782  0.00000  0.16436
      10     H     0.40989  0.40989  0.00000  0.18021
      11     C     3.00303  3.00303  0.00000 -0.00607
      12     C     3.24718  3.24718  0.00000 -0.49435
      13     H     0.42390  0.42390  0.00000  0.15220
      14     H     0.40678  0.40678  0.00000  0.18644
      15     H     0.41161  0.41161  0.00000  0.17678
      16     H     0.41729  0.41729  0.00000  0.16541
      17     H     0.40743  0.40743  0.00000  0.18513

   Total alpha = 28.00000, Total beta = 28.00000, Total charge =  0.00000
