  ==> Input File <==

--------------------------------------------------------------------------
set {
	reference rhf
	basis 6-31G*
}

set_num_threads( 1 )
memory 2 gb

molecule MOL {
0 1

O	 1.415913	 0.973913	 -0.775174
C	 1.122059	 0.121804	 -0.000188
C	 -0.170150	 -0.657997	 -0.000612
O	 1.915103	 -0.262730	 0.991875
C	 -1.412532	 0.227344	 -0.000452
H	 -0.153702	 -1.313099	 -0.867402
H	 -0.153924	 -1.313811	 0.865644
C	 -2.706999	 -0.587347	 -0.000541
H	 -1.388000	 0.879466	 -0.868000
H	 -1.387972	 0.879138	 0.867341
C	 -3.956778	 0.291888	 0.000910
H	 -2.726114	 -1.239230	 -0.871609
H	 -2.725217	 -1.240844	 0.869333
H	 -3.985213	 0.933254	 -0.875158
H	 -4.860123	 -0.309979	 0.000519
H	 -3.984618	 0.931166	 0.878514
C	 3.165231	 0.392458	 1.106115
H	 3.755866	 0.242385	 0.213861
H	 3.655008	 -0.052801	 1.958061
H	 3.025801	 1.451979	 1.265740

	symmetry c1
}
set optking {
	frozen_dihedral = ("
		9 5 8 12,
		9 5 3 6,
		1 2 4 17
	")
}

ee = energy('scf')
oeprop('DIPOLE', 'QUADRUPOLE', 'MULLIKEN_CHARGES')
f=open( 'psi4out.xyz', 'w' )
f.write( "20  " )
f.write( str(ee) + "\n" )
f.write( MOL.save_string_xyz() )
f.close()
--------------------------------------------------------------------------

    Molecular point group: c1

    Geometry (in Angstrom), charge = 0, multiplicity = 1:

       Center              X                  Y                   Z               Mass
    ------------   -----------------  -----------------  -----------------  -----------------
           O          1.461091020026     0.899143322588    -0.949122885627    15.994914619560
           C          1.167237020026     0.047034322588    -0.174136885627    12.000000000000
           C         -0.124971979974    -0.732766677412    -0.174560885627    12.000000000000
           O          1.960281020026    -0.337499677412     0.817926114373    15.994914619560
           C         -1.367353979974     0.152574322588    -0.174400885627    12.000000000000
           H         -0.108523979974    -1.387868677412    -1.041350885627     1.007825032070
           H         -0.108745979974    -1.388580677412     0.691695114373     1.007825032070
           C         -2.661820979974    -0.662116677412    -0.174489885627    12.000000000000
           H         -1.342821979974     0.804696322588    -1.041948885627     1.007825032070
           H         -1.342793979974     0.804368322588     0.693392114373     1.007825032070
           C         -3.911599979974     0.217118322588    -0.173038885627    12.000000000000
           H         -2.680935979974    -1.313999677412    -1.045557885627     1.007825032070
           H         -2.680038979974    -1.315613677412     0.695384114373     1.007825032070
           H         -3.940034979974     0.858484322588    -1.049106885627     1.007825032070
           H         -4.814944979974    -0.384748677412    -0.173429885627     1.007825032070
           H         -3.939439979974     0.856396322588     0.704565114373     1.007825032070
           C          3.210409020026     0.317688322588     0.932166114373    12.000000000000
           H          3.801044020026     0.167615322588     0.039912114373     1.007825032070
           H          3.700186020026    -0.127570677412     1.784112114373     1.007825032070
           H          3.070979020026     1.377209322588     1.091791114373     1.007825032070

  Charge       = 0
  Multiplicity = 1
  Basis Set: 6-31G*
  Basis Set:

    Orbital Energies (a.u.)
    -----------------------

    Doubly Occupied:

       1A    -20.605203     2A    -20.543530     3A    -11.371816
       4A    -11.280462     5A    -11.233838     6A    -11.225778
       7A    -11.222828     8A    -11.212777     9A     -1.469345
      10A     -1.362031    11A     -1.091249    12A     -1.025078
      13A     -0.969226    14A     -0.887953    15A     -0.806537
      16A     -0.771094    17A     -0.694630    18A     -0.681344
      19A     -0.672446    20A     -0.646330    21A     -0.599170
      22A     -0.592061    23A     -0.574798    24A     -0.550646
      25A     -0.534623    26A     -0.523514    27A     -0.502251
      28A     -0.480995    29A     -0.478586    30A     -0.472181
      31A     -0.454734    32A     -0.432775

  @DF-RHF Final Energy:  -383.93970185994010

   => Energetics <=

    Nuclear Repulsion Energy =            381.3365361842854782
    One-Electron Energy =               -1278.6125310797824568
    Two-Electron Energy =                 513.3362930355569915
    DFT Exchange-Correlation Energy =       0.0000000000000000
    Empirical Dispersion Energy =           0.0000000000000000
    PCM Polarization Energy =               0.0000000000000000
    EFP Energy =                            0.0000000000000000
    Total Energy =                       -383.9397018599399871

  Mulliken Charges: (a.u.)
   Center  Symbol    Alpha    Beta     Spin     Total
       1     O     4.28603  4.28603  0.00000 -0.57207
       2     C     2.60736  2.60736  0.00000  0.78528
       3     C     3.20741  3.20741  0.00000 -0.41482
       4     O     4.30397  4.30397  0.00000 -0.60794
       5     C     3.15856  3.15856  0.00000 -0.31713
       6     H     0.40109  0.40109  0.00000  0.19783
       7     H     0.40023  0.40023  0.00000  0.19954
       8     C     3.15380  3.15380  0.00000 -0.30759
       9     H     0.40545  0.40545  0.00000  0.18910
      10     H     0.41661  0.41661  0.00000  0.16679
      11     C     3.24001  3.24001  0.00000 -0.48002
      12     H     0.42080  0.42080  0.00000  0.15840
      13     H     0.42148  0.42148  0.00000  0.15703
      14     H     0.41921  0.41921  0.00000  0.16159
      15     H     0.41795  0.41795  0.00000  0.16410
      16     H     0.42049  0.42049  0.00000  0.15901
      17     C     3.09345  3.09345  0.00000 -0.18691
      18     H     0.40881  0.40881  0.00000  0.18239
      19     H     0.40849  0.40849  0.00000  0.18302
      20     H     0.40880  0.40880  0.00000  0.18241

   Total alpha = 32.00000, Total beta = 32.00000, Total charge = -0.00000
