  ==> Input File <==

--------------------------------------------------------------------------
set {
	reference rhf
	basis 6-31G*
}

set_num_threads( 4 )
memory 2 gb

molecule MOL {
0 1

O	 0.634919	 0.407177	 -0.967180
C	 0.028650	 0.075053	 -0.000277
C	 -1.233602	 -0.752807	 0.000328
O	 0.392842	 0.398468	 1.233687
C	 -2.501530	 0.091881	 0.000126
H	 -1.193807	 -1.406641	 -0.865785
H	 -1.193516	 -1.405779	 0.867015
H	 -2.545121	 0.729328	 -0.874513
H	 -3.377167	 -0.548497	 0.000561
H	 -2.544818	 0.730135	 0.874258
C	 1.566270	 1.178891	 1.373671
H	 2.420209	 0.657053	 0.966379
H	 1.693055	 1.333422	 2.433817
H	 1.454609	 2.126972	 0.867564

	symmetry c1
}
set optking {
	frozen_dihedral = ("
		4 2 3 6
	")
}

ee = optimize('scf')
oeprop('DIPOLE', 'QUADRUPOLE', 'MULLIKEN_CHARGES')
f=open( 'psi4out.xyz', 'w' )
f.write( "14  " )
f.write( str(ee) + "\n" )
f.write( MOL.save_string_xyz() )
f.close()
--------------------------------------------------------------------------

    Molecular point group: c1
  Charge       = 0
  Multiplicity = 1
  Basis Set: 6-31G*
  Basis Set:
  @DF-RHF Final Energy:  -305.86981503668324
    Total Energy =                       -305.8698150366827804
    Molecular point group: c1
  Basis Set: 6-31G*
  Basis Set:
  Basis Set: 6-31G*
  Basis Set:
  @DF-RHF Final Energy:  -305.87018841980370
    Total Energy =                       -305.8701884198040943
  Basis Set: 6-31G*
  Basis Set:
  Basis Set: 6-31G*
  Basis Set:
  @DF-RHF Final Energy:  -305.86906114273336
    Total Energy =                       -305.8690611427330168
  Basis Set: 6-31G*
  Basis Set:
  Basis Set: 6-31G*
  Basis Set:
  @DF-RHF Final Energy:  -305.87039813503299
    Total Energy =                       -305.8703981350331560
  Basis Set: 6-31G*
  Basis Set:
  Basis Set: 6-31G*
  Basis Set:
  @DF-RHF Final Energy:  -305.87040223998792
    Total Energy =                       -305.8704022399878113
  Basis Set: 6-31G*
  Basis Set:
  Charge       = 0
  Multiplicity = 1
  Basis Set: 6-31G*
  Basis Set:

    Orbital Energies (a.u.)
    -----------------------

    Doubly Occupied:

       1A    -20.605692     2A    -20.543743     3A    -11.371720
       4A    -11.281292     5A    -11.237120     6A    -11.227585
       7A     -1.469728     8A     -1.362173     9A     -1.067259
      10A     -0.977696    11A     -0.883249    12A     -0.773891
      13A     -0.697434    14A     -0.678945    15A     -0.673290
      16A     -0.616798    17A     -0.597193    18A     -0.567473
      19A     -0.542523    20A     -0.518790    21A     -0.508521
      22A     -0.506572    23A     -0.455365    24A     -0.434519

  @DF-RHF Final Energy:  -305.87040241226020

   => Energetics <=

    Nuclear Repulsion Energy =            247.9877029649525468
    One-Electron Energy =                -908.5190684092065112
    Two-Electron Energy =                 354.6609630319938447
    DFT Exchange-Correlation Energy =       0.0000000000000000
    Empirical Dispersion Energy =           0.0000000000000000
    PCM Polarization Energy =               0.0000000000000000
    EFP Energy =                            0.0000000000000000
    Total Energy =                       -305.8704024122601481
    Molecular point group: c1
  Basis Set: 6-31G*
  Basis Set:

  -Total Gradient:
     Atom            X                  Y                   Z
    ------   -----------------  -----------------  -----------------
       1       -0.000024214114    -0.000009372595     0.000021686000
       2       -0.000233409446     0.000364203520    -0.000048690690
       3       -0.000192883157     0.000293543431    -0.000283316533
       4        0.000217054560    -0.000296413755     0.000065398277
       5        0.000008309759    -0.000003683534     0.000000079753
       6        0.000225907975    -0.000327351929     0.000247713319
       7       -0.000004846276     0.000002973597    -0.000000631590
       8        0.000003571634     0.000002990971     0.000000821524
       9        0.000005546267    -0.000002090713    -0.000000208870
      10       -0.000004817026     0.000002867028     0.000004579870
      11        0.000004363069    -0.000045738815    -0.000012222380
      12        0.000010505869     0.000013292592     0.000004554227
      13       -0.000006969501     0.000003320018     0.000001747459
      14       -0.000008119613     0.000001460184    -0.000001510365

  **** Optimization is complete! (in 6 steps) ****
    Final optimized geometry and variables:
    Molecular point group: c1

    Geometry (in Angstrom), charge = 0, multiplicity = 1:

    O            0.752275088160     0.185379586316    -1.250006100388
    C            0.191424510956    -0.192948912655    -0.271943975540
    C           -1.062157722808    -1.032057206637    -0.272959738657
    O            0.586243776137     0.112356237927     0.956944561826
    C           -2.310900406017    -0.141307998789    -0.300086078292
    H           -1.030978702271    -1.661963521044    -1.152601362107
    H           -1.072154121174    -1.662324043079     0.607487475676
    H           -2.312183864369     0.492910449740    -1.179365446914
    H           -3.205983803095    -0.752615126920    -0.322273637100
    H           -2.357130465583     0.491089143319     0.579775068145
    C            1.728818122932     0.940607437266     1.076578843519
    H            2.588912645820     0.467516252423     0.625277518042
    H            1.887276697296     1.073865205996     2.135357811163
    H            1.557401105006     1.895054565231     0.599950703959

  Mulliken Charges: (a.u.)
   Center  Symbol    Alpha    Beta     Spin     Total
       1     O     4.28492  4.28492  0.00000 -0.56985
       2     C     2.61679  2.61679  0.00000  0.76642
       3     C     3.19430  3.19430  0.00000 -0.38859
       4     O     4.30249  4.30249  0.00000 -0.60498
       5     C     3.25138  3.25138  0.00000 -0.50276
       6     H     0.39948  0.39948  0.00000  0.20105
       7     H     0.40299  0.40299  0.00000  0.19403
       8     H     0.40697  0.40697  0.00000  0.18605
       9     H     0.41134  0.41134  0.00000  0.17733
      10     H     0.41064  0.41064  0.00000  0.17872
      11     C     3.09286  3.09286  0.00000 -0.18572
      12     H     0.40825  0.40825  0.00000  0.18350
      13     H     0.40860  0.40860  0.00000  0.18279
      14     H     0.40899  0.40899  0.00000  0.18202

   Total alpha = 24.00000, Total beta = 24.00000, Total charge = -0.00000
