  ==> Input File <==

--------------------------------------------------------------------------
set {
	reference rhf
	basis cc-pvtz
}

set_num_threads( 4 )
memory 2 gb

molecule MOL {
0 1

H	 -3.162190	 0.493205	 -0.000107
C	 -2.363908	 -0.234727	 0.000005
O	 -1.158738	 0.454634	 -0.000087
H	 -2.464314	 -0.863616	 -0.882153
H	 -2.464327	 -0.863359	 0.882345
C	 -0.028611	 -0.359694	 0.000037
C	 1.092928	 0.343003	 0.738115
H	 0.274722	 -0.578408	 -1.024068
H	 -0.254502	 -1.312639	 0.479111
C	 2.370789	 -0.487333	 0.782450
H	 1.282318	 1.294498	 0.253643
H	 0.757317	 0.566051	 1.744876
H	 2.737868	 -0.701668	 -0.215748
H	 3.154382	 0.037789	 1.314662
H	 2.209438	 -1.434840	 1.285705

	symmetry c1
}
set optking {
	frozen_dihedral = ("
		8 6 3 2
	")
}

ee = optimize('scf')
oeprop('DIPOLE', 'QUADRUPOLE', 'MULLIKEN_CHARGES')
f=open( 'psi4out.xyz', 'w' )
f.write( "15  " )
f.write( str(ee) + "\n" )
f.write( MOL.save_string_xyz() )
f.close()
--------------------------------------------------------------------------

    Molecular point group: c1
  Charge       = 0
  Multiplicity = 1
  Basis Set: CC-PVTZ
  Basis Set:
  @DF-RHF Final Energy:  -232.22615589014990
    Total Energy =                       -232.2261558901498120
    Molecular point group: c1
  Basis Set: CC-PVTZ
  Basis Set:
  Basis Set: CC-PVTZ
  Basis Set:
  @DF-RHF Final Energy:  -232.22627759024260
    Total Energy =                       -232.2262775902426597
  Basis Set: CC-PVTZ
  Basis Set:
  Basis Set: CC-PVTZ
  Basis Set:
  @DF-RHF Final Energy:  -232.22631122877067
    Total Energy =                       -232.2263112287704985
  Basis Set: CC-PVTZ
  Basis Set:
  Charge       = 0
  Multiplicity = 1
  Basis Set: CC-PVTZ
  Basis Set:

    Orbital Energies (a.u.)
    -----------------------

    Doubly Occupied:

       1A    -20.545951     2A    -11.264191     3A    -11.262205
       4A    -11.212358     5A    -11.210548     6A     -1.379381
       7A     -1.057982     8A     -0.956475     9A     -0.877696
      10A     -0.808749    11A     -0.675449    12A     -0.655207
      13A     -0.633423    14A     -0.605915    15A     -0.566300
      16A     -0.541243    17A     -0.503452    18A     -0.490858
      19A     -0.480088    20A     -0.463563    21A     -0.412213

  @DF-RHF Final Energy:  -232.22631166288087

   => Energetics <=

    Nuclear Repulsion Energy =            189.9772249517103262
    One-Electron Energy =                -691.2005834078358930
    Two-Electron Energy =                 268.9970467932448628
    DFT Exchange-Correlation Energy =       0.0000000000000000
    Empirical Dispersion Energy =           0.0000000000000000
    PCM Polarization Energy =               0.0000000000000000
    EFP Energy =                            0.0000000000000000
    Total Energy =                       -232.2263116628806756
    Molecular point group: c1
  Basis Set: CC-PVTZ
  Basis Set:

  -Total Gradient:
     Atom            X                  Y                   Z
    ------   -----------------  -----------------  -----------------
       1       -0.000005923485     0.000002970275    -0.000003040821
       2       -0.000092359888     0.000018403930     0.002334031178
       3        0.000545269540     0.000545239441    -0.003359019700
       4        0.000021643996     0.000011592147     0.000011685910
       5        0.000030794618     0.000005912426    -0.000004895277
       6       -0.002196408229    -0.002899736228     0.001033817027
       7       -0.000010583914    -0.000001000692    -0.000043162480
       8        0.001682131903     0.002336354391     0.000024404011
       9        0.000002066224    -0.000017850830    -0.000000548789
      10        0.000014451608    -0.000012389298     0.000013966534
      11        0.000008012682     0.000013867628     0.000005373391
      12       -0.000009416821    -0.000004809691    -0.000006759551
      13        0.000000825114     0.000000647637    -0.000000733037
      14        0.000004436837    -0.000000892551     0.000001233274
      15        0.000005059814     0.000001691416    -0.000006351670

  **** Optimization is complete! (in 4 steps) ****
    Final optimized geometry and variables:
    Molecular point group: c1

    Geometry (in Angstrom), charge = 0, multiplicity = 1:

    H           -3.111549494653     0.593961805863    -0.341520882017
    C           -2.330455921325    -0.152354418526    -0.317922991722
    O           -1.110453598380     0.511004296762    -0.300502888476
    H           -2.432801103531    -0.788381641821    -1.195002507178
    H           -2.461313810978    -0.767498099677     0.569279466040
    C            0.018106495814    -0.310422195811    -0.272267354340
    C            1.142514651043     0.404354456554     0.454194916534
    H            0.333794141921    -0.534773754233    -1.290192185834
    H           -0.206632280330    -1.252202010585     0.223866092631
    C            2.435190633696    -0.404020660703     0.467367695409
    H            1.306862322450     1.362588779703    -0.026478738235
    H            0.822472374295     0.615411538825     1.468923179664
    H            2.788273780301    -0.600587630477    -0.539490923919
    H            3.219195959448     0.128004750697     0.992294948929
    H            2.299027113939    -1.360305338868     0.961927659238

  Mulliken Charges: (a.u.)
   Center  Symbol    Alpha    Beta     Spin     Total
       1     H     0.44864  0.44864  0.00000  0.10271
       2     C     3.03218  3.03218  0.00000 -0.06437
       3     O     4.17491  4.17491  0.00000 -0.34983
       4     H     0.47172  0.47172  0.00000  0.05657
       5     H     0.47173  0.47173  0.00000  0.05653
       6     C     2.95862  2.95862  0.00000  0.08277
       7     C     3.08010  3.08010  0.00000 -0.16021
       8     H     0.46785  0.46785  0.00000  0.06430
       9     H     0.47662  0.47662  0.00000  0.04677
      10     C     3.15574  3.15574  0.00000 -0.31148
      11     H     0.45034  0.45034  0.00000  0.09932
      12     H     0.45342  0.45342  0.00000  0.09315
      13     H     0.45550  0.45550  0.00000  0.08900
      14     H     0.44638  0.44638  0.00000  0.10723
      15     H     0.45623  0.45623  0.00000  0.08754

   Total alpha = 21.00000, Total beta = 21.00000, Total charge = -0.00000
