  ==> Input File <==

--------------------------------------------------------------------------
set {
	reference rhf
	basis 6-31G*
}

set_num_threads( 4 )
memory 2 gb

molecule MOL {
0 1

H	 2.591676	 2.013956	 0.335017
O	 3.341076	 1.666752	 -0.126416
C	 3.569581	 0.339145	 0.272707
C	 2.539767	 -0.640285	 -0.279495
H	 4.553106	 0.084646	 -0.100901
H	 3.608576	 0.269204	 1.359154
C	 1.115811	 -0.397273	 0.226630
H	 2.556196	 -0.582511	 -1.364741
H	 2.852081	 -1.648031	 -0.010655
C	 1.083779	 0.251055	 1.613520
H	 0.580947	 -1.342498	 0.255541
H	 0.584962	 0.242123	 -0.478857
C	 -0.317652	 0.594558	 2.131533
H	 1.580354	 -0.404443	 2.326670
H	 1.672711	 1.165306	 1.581840
C	 -1.212855	 -0.614072	 2.418419
H	 -0.211329	 1.172318	 3.047342
H	 -0.814157	 1.249827	 1.417430
C	 -2.559964	 -0.225926	 3.031671
H	 -0.694021	 -1.292845	 3.093837
H	 -1.391866	 -1.172926	 1.503029
C	 -3.458055	 -1.430042	 3.313095
H	 -2.390115	 0.321125	 3.956536
H	 -3.075591	 0.459945	 2.362647
H	 -2.983561	 -2.119711	 4.005508
H	 -4.403717	 -1.122642	 3.748827
H	 -3.677196	 -1.977947	 2.400877

	symmetry c1
}
set optking {
	frozen_dihedral = ("
		10 7 4 8
	")
}

ee = optimize('scf')
oeprop('DIPOLE', 'QUADRUPOLE', 'MULLIKEN_CHARGES')
f=open( 'psi4out.xyz', 'w' )
f.write( "27  " )
f.write( str(ee) + "\n" )
f.write( MOL.save_string_xyz() )
f.close()
--------------------------------------------------------------------------

    Molecular point group: c1
  Charge       = 0
  Multiplicity = 1
  Basis Set: 6-31G*
  Basis Set:
  @DF-RHF Final Energy:  -388.27099135940642
    Total Energy =                       -388.2709913594067075
    Molecular point group: c1
  Basis Set: 6-31G*
  Basis Set:
  Basis Set: 6-31G*
  Basis Set:
  @DF-RHF Final Energy:  -388.27415300180905
    Total Energy =                       -388.2741530018095091
  Basis Set: 6-31G*
  Basis Set:
  Basis Set: 6-31G*
  Basis Set:
  @DF-RHF Final Energy:  -388.27520058143051
    Total Energy =                       -388.2752005814313634
  Basis Set: 6-31G*
  Basis Set:
  Basis Set: 6-31G*
  Basis Set:
  @DF-RHF Final Energy:  -388.27516319634344
    Total Energy =                       -388.2751631963429872
  Basis Set: 6-31G*
  Basis Set:
  Basis Set: 6-31G*
  Basis Set:
  @DF-RHF Final Energy:  -388.27520623684899
    Total Energy =                       -388.2752062368490442
  Basis Set: 6-31G*
  Basis Set:
  Basis Set: 6-31G*
  Basis Set:
  @DF-RHF Final Energy:  -388.27528821135814
    Total Energy =                       -388.2752882113583155
  Basis Set: 6-31G*
  Basis Set:
  Charge       = 0
  Multiplicity = 1
  Basis Set: 6-31G*
  Basis Set:

    Orbital Energies (a.u.)
    -----------------------

    Doubly Occupied:

       1A    -20.550740     2A    -11.264834     3A    -11.223832
       4A    -11.220541     5A    -11.219474     6A    -11.217695
       7A    -11.216451     8A    -11.216010     9A    -11.210602
      10A     -1.357436    11A     -1.096916    12A     -1.060644
      13A     -1.011870    14A     -0.948185    15A     -0.894202
      16A     -0.829644    17A     -0.799626    18A     -0.774090
      19A     -0.689188    20A     -0.652510    21A     -0.645465
      22A     -0.611358    23A     -0.601658    24A     -0.583232
      25A     -0.571125    26A     -0.566875    27A     -0.543585
      28A     -0.528121    29A     -0.518887    30A     -0.497461
      31A     -0.483061    32A     -0.472297    33A     -0.465097
      34A     -0.460945    35A     -0.456688    36A     -0.441697
      37A     -0.422186

  @DF-RHF Final Energy:  -388.27528857284733

   => Energetics <=

    Nuclear Repulsion Energy =            464.5906169018861647
    One-Electron Energy =               -1447.0833560562041384
    Two-Electron Energy =                 594.2174505814705299
    DFT Exchange-Correlation Energy =       0.0000000000000000
    Empirical Dispersion Energy =           0.0000000000000000
    PCM Polarization Energy =               0.0000000000000000
    EFP Energy =                            0.0000000000000000
    Total Energy =                       -388.2752885728474439
    Molecular point group: c1
  Basis Set: 6-31G*
  Basis Set:

  -Total Gradient:
     Atom            X                  Y                   Z
    ------   -----------------  -----------------  -----------------
       1        0.000025646399     0.000022124560    -0.000000626990
       2       -0.000060415427     0.000006112040     0.000010497228
       3        0.000048113026    -0.000003013632    -0.000040063366
       4       -0.002118899375    -0.006097343707    -0.001638608877
       5        0.000011555274    -0.000029599169     0.000019120609
       6       -0.000019553583     0.000016929800    -0.000012461194
       7       -0.000124464641    -0.005441351039     0.003098642889
       8        0.001852226501     0.006748441388     0.000603194394
       9        0.000006309008    -0.000010914603     0.000004199178
      10        0.000404511392     0.004757570312    -0.002032063872
      11        0.000005174479    -0.000002128948    -0.000013827878
      12        0.000002529235    -0.000011040221     0.000013407419
      13       -0.000035317008     0.000046486008    -0.000049507999
      14       -0.000000680882     0.000012381130     0.000013757664
      15        0.000000738538    -0.000013051551    -0.000007597455
      16        0.000026555921     0.000015256712     0.000001658420
      17       -0.000026257749    -0.000032768955    -0.000007200778
      18       -0.000000928543     0.000028300806    -0.000000804452
      19        0.000006656403    -0.000001440682     0.000031724843
      20        0.000005719885     0.000015345785    -0.000002740554
      21       -0.000006176460    -0.000018876846     0.000017539730
      22       -0.000012903693     0.000000653259    -0.000022634936
      23        0.000000609199    -0.000012122655     0.000012928151
      24        0.000013989218     0.000003506794     0.000010784343
      25       -0.000001671292     0.000011013341     0.000001298779
      26       -0.000004782264    -0.000000495012    -0.000009501680
      27        0.000001716445    -0.000009974920    -0.000001113614

  **** Optimization is complete! (in 7 steps) ****
    Final optimized geometry and variables:
    Molecular point group: c1

    Geometry (in Angstrom), charge = 0, multiplicity = 1:

    H            2.311334335311     2.053394346077    -1.273625297634
    O            3.052189818152     1.619341316333    -1.670789088995
    C            3.161610735780     0.307799175397    -1.176811985269
    C            2.019602986503    -0.596340480353    -1.637754001991
    H            4.092854556987    -0.073341074374    -1.575883223489
    H            3.256991114456     0.311192925750    -0.094186121996
    C            0.611379525717    -0.257960196607    -1.096847639807
    H            2.005482203744    -0.498199774257    -2.718827940517
    H            2.278721158026    -1.622310210858    -1.389608365082
    C            0.545266627131     0.351527896357     0.309648713652
    H            0.008664416267    -1.158626753466    -1.136583167700
    H            0.135679536083     0.443116307483    -1.780061995540
    C           -0.879920473533     0.651862111452     0.792320598900
    H            1.032192131425    -0.307660074446     1.026602550785
    H            1.106743254193     1.281800753599     0.334754504883
    C           -1.739659738183    -0.583350960321     1.074477334782
    H           -0.814197964067     1.241467177583     1.704234520068
    H           -1.382112474293     1.282429934831     0.060258792122
    C           -3.113461411224    -0.232269342283     1.649945150461
    H           -1.214452159870    -1.233228986976     1.772990847007
    H           -1.877916407313    -1.161305406534     0.164415045121
    C           -3.977921998850    -1.462206021358     1.924780402702
    H           -2.984778155706     0.331311973223     2.571532898179
    H           -3.634601362317     0.427576922311     0.959506344051
    H           -3.499044839297    -2.126429069088     2.638733437292
    H           -4.944218936145    -1.180963816763     2.331836870748
    H           -4.154839297344    -2.028752352128     1.014855452612

  Mulliken Charges: (a.u.)
   Center  Symbol    Alpha    Beta     Spin     Total
       1     H     0.27783  0.27783  0.00000  0.44435
       2     O     4.37463  4.37463  0.00000 -0.74925
       3     C     3.00020  3.00020  0.00000 -0.00040
       4     C     3.16558  3.16558  0.00000 -0.33115
       5     H     0.41447  0.41447  0.00000  0.17106
       6     H     0.42844  0.42844  0.00000  0.14313
       7     C     3.16490  3.16490  0.00000 -0.32979
       8     H     0.41210  0.41210  0.00000  0.17581
       9     H     0.42248  0.42248  0.00000  0.15504
      10     C     3.15821  3.15821  0.00000 -0.31643
      11     H     0.41444  0.41444  0.00000  0.17112
      12     H     0.42094  0.42094  0.00000  0.15813
      13     C     3.15293  3.15293  0.00000 -0.30587
      14     H     0.42083  0.42083  0.00000  0.15833
      15     H     0.43089  0.43089  0.00000  0.13823
      16     C     3.15294  3.15294  0.00000 -0.30588
      17     H     0.42065  0.42065  0.00000  0.15871
      18     H     0.42330  0.42330  0.00000  0.15341
      19     C     3.15145  3.15145  0.00000 -0.30290
      20     H     0.42402  0.42402  0.00000  0.15196
      21     H     0.42167  0.42167  0.00000  0.15667
      22     C     3.23934  3.23934  0.00000 -0.47869
      23     H     0.42285  0.42285  0.00000  0.15431
      24     H     0.42267  0.42267  0.00000  0.15466
      25     H     0.42168  0.42168  0.00000  0.15665
      26     H     0.41889  0.41889  0.00000  0.16222
      27     H     0.42170  0.42170  0.00000  0.15659

   Total alpha = 37.00000, Total beta = 37.00000, Total charge = -0.00000
