  ==> Input File <==

--------------------------------------------------------------------------
set {
	reference rhf
	basis 6-31G*
}

set_num_threads( 4 )
memory 2 gb

molecule MOL {
0 1

H	 -2.499100	 -0.730091	 -0.745082
O	 -2.347518	 -0.290803	 0.079804
C	 -1.184022	 0.487508	 -0.006784
C	 0.062599	 -0.378592	 0.031606
H	 -1.176523	 1.099369	 -0.904519
H	 -1.187323	 1.153111	 0.844927
O	 1.171513	 0.459272	 -0.058250
H	 0.050699	 -1.089204	 -0.797170
H	 0.078739	 -0.954914	 0.954740
C	 1.390132	 1.250262	 1.066776
H	 1.563431	 0.642490	 1.952897
H	 2.268204	 1.851976	 0.877479
H	 0.545652	 1.908654	 1.259558

	symmetry c1
}
set optking {
	frozen_dihedral = ("
		10 7 4 8
	")
}

ee = optimize('scf')
oeprop('DIPOLE', 'QUADRUPOLE', 'MULLIKEN_CHARGES')
f=open( 'psi4out.xyz', 'w' )
f.write( "13  " )
f.write( str(ee) + "\n" )
f.write( MOL.save_string_xyz() )
f.close()
--------------------------------------------------------------------------

    Molecular point group: c1
  Charge       = 0
  Multiplicity = 1
  Basis Set: 6-31G*
  Basis Set:
  @DF-RHF Final Energy:  -267.94348018071929
    Total Energy =                       -267.9434801807190070
    Molecular point group: c1
  Basis Set: 6-31G*
  Basis Set:
  Basis Set: 6-31G*
  Basis Set:
  @DF-RHF Final Energy:  -267.94541712436262
    Total Energy =                       -267.9454171243626774
  Basis Set: 6-31G*
  Basis Set:
  Basis Set: 6-31G*
  Basis Set:
  @DF-RHF Final Energy:  -267.94733609804518
    Total Energy =                       -267.9473360980450707
  Basis Set: 6-31G*
  Basis Set:
  Basis Set: 6-31G*
  Basis Set:
  @DF-RHF Final Energy:  -267.94750618485250
    Total Energy =                       -267.9475061848526138
  Basis Set: 6-31G*
  Basis Set:
  Basis Set: 6-31G*
  Basis Set:
  @DF-RHF Final Energy:  -267.94752172216511
    Total Energy =                       -267.9475217221651633
  Basis Set: 6-31G*
  Basis Set:
  Charge       = 0
  Multiplicity = 1
  Basis Set: 6-31G*
  Basis Set:

    Orbital Energies (a.u.)
    -----------------------

    Doubly Occupied:

       1A    -20.563088     2A    -20.561682     3A    -11.272074
       4A    -11.271387     5A    -11.270146     6A     -1.386086
       7A     -1.367346     8A     -1.013584     9A     -0.930531
      10A     -0.834330    11A     -0.711605    12A     -0.674159
      13A     -0.657042    14A     -0.642917    15A     -0.596079
      16A     -0.568051    17A     -0.533756    18A     -0.517867
      19A     -0.467880    20A     -0.460647    21A     -0.406794

  @DF-RHF Final Energy:  -267.94752255094181

   => Energetics <=

    Nuclear Repulsion Energy =            192.2058881833896464
    One-Electron Energy =                -746.8927198365342974
    Two-Electron Energy =                 286.7393091022025828
    DFT Exchange-Correlation Energy =       0.0000000000000000
    Empirical Dispersion Energy =           0.0000000000000000
    PCM Polarization Energy =               0.0000000000000000
    EFP Energy =                            0.0000000000000000
    Total Energy =                       -267.9475225509420397
    Molecular point group: c1
  Basis Set: 6-31G*
  Basis Set:

  -Total Gradient:
     Atom            X                  Y                   Z
    ------   -----------------  -----------------  -----------------
       1        0.000002533262     0.000007303991     0.000003344045
       2        0.000017407908    -0.000037211630    -0.000011250525
       3        0.000012372118     0.000060400162     0.000030012747
       4        0.000717152965    -0.000932752844     0.000805408343
       5        0.000005180951    -0.000009611440    -0.000001593754
       6        0.000001794728     0.000003248834    -0.000008734610
       7        0.000883985010    -0.001186654023     0.000597290771
       8       -0.000889059419     0.001070553621    -0.000879777792
       9       -0.000025492531    -0.000004035843    -0.000003090505
      10       -0.000724689371     0.001019514841    -0.000546834119
      11       -0.000001553721    -0.000007414788     0.000001043381
      12        0.000005528987     0.000021370328     0.000015187051
      13       -0.000005160883    -0.000004711207    -0.000001005033

  **** Optimization is complete! (in 6 steps) ****
    Final optimized geometry and variables:
    Molecular point group: c1

    Geometry (in Angstrom), charge = 0, multiplicity = 1:

    H           -2.216845975044    -1.124678619170    -1.040100287075
    O           -2.155271252165    -0.688245380046    -0.201841116764
    C           -1.051007207810     0.177098336016    -0.200740276654
    C            0.252914997246    -0.614317540280    -0.162769577871
    H           -1.052747653548     0.831843951526    -1.068854524289
    H           -1.160425357037     0.796754752390     0.678575434848
    O            1.392088372563     0.185823595674    -0.266712704217
    H            0.275533663173    -1.278150244765    -1.020000586704
    H            0.282604376548    -1.225097243996     0.737294011957
    C            1.690042609635     0.975071535582     0.845054364362
    H            1.710116461214     0.382559779586     1.757566726571
    H            2.671769310611     1.398061459509     0.682738402708
    H            0.981960705449     1.788388915288     0.975401999879

  Mulliken Charges: (a.u.)
   Center  Symbol    Alpha    Beta     Spin     Total
       1     H     0.28076  0.28076  0.00000  0.43847
       2     O     4.37008  4.37008  0.00000 -0.74017
       3     C     3.01058  3.01058  0.00000 -0.02116
       4     C     3.00194  3.00194  0.00000 -0.00388
       5     H     0.42258  0.42258  0.00000  0.15485
       6     H     0.41494  0.41494  0.00000  0.17013
       7     O     4.30663  4.30663  0.00000 -0.61326
       8     H     0.42055  0.42055  0.00000  0.15889
       9     H     0.42256  0.42256  0.00000  0.15488
      10     C     3.08356  3.08356  0.00000 -0.16712
      11     H     0.42796  0.42796  0.00000  0.14408
      12     H     0.41014  0.41014  0.00000  0.17972
      13     H     0.42772  0.42772  0.00000  0.14455

   Total alpha = 21.00000, Total beta = 21.00000, Total charge =  0.00000
