  ==> Input File <==

--------------------------------------------------------------------------
set {
	reference rhf
	basis 6-31G*
}

set_num_threads( 4 )
memory 2 gb

molecule MOL {
0 1

H	 -3.269016	 -0.876744	 0.468090
C	 -2.809304	 0.000122	 0.025886
N	 -1.391456	 0.000019	 0.300661
H	 -3.037557	 -0.000063	 -1.044252
H	 -3.269223	 0.876956	 0.468000
C	 -0.851428	 -1.341302	 0.405609
C	 -1.058401	 0.781781	 1.475281
H	 -1.302782	 -1.892565	 1.236209
H	 -1.076779	 -1.880757	 -0.508594
C	 0.655776	 -1.293318	 0.602089
H	 -1.434730	 1.790719	 1.341196
H	 -1.523456	 0.371060	 2.376691
C	 0.448802	 0.829766	 1.671759
H	 1.032105	 -2.302255	 0.736173
H	 1.120830	 -0.882596	 -0.299322
N	 0.988830	 -0.511555	 1.776708
H	 0.674153	 1.369221	 2.585963
H	 0.900157	 1.381029	 0.841160
C	 2.406678	 -0.511659	 2.051484
H	 2.754901	 -1.529986	 2.183859
H	 2.603026	 0.030294	 2.969941
H	 2.997086	 -0.052053	 1.253062

	symmetry c1
}
set optking {
	frozen_dihedral = ("
		6 3 2 4
	")
}

ee = optimize('scf')
oeprop('DIPOLE', 'QUADRUPOLE', 'MULLIKEN_CHARGES')
f=open( 'psi4out.xyz', 'w' )
f.write( "22  " )
f.write( str(ee) + "\n" )
f.write( MOL.save_string_xyz() )
f.close()
--------------------------------------------------------------------------

    Molecular point group: c1
  Charge       = 0
  Multiplicity = 1
  Basis Set: 6-31G*
  Basis Set:
  @DF-RHF Final Energy:  -344.22616391012139
    Total Energy =                       -344.2261639101213859
    Molecular point group: c1
  Basis Set: 6-31G*
  Basis Set:
  Basis Set: 6-31G*
  Basis Set:
  @DF-RHF Final Energy:  -344.22698807773128
    Total Energy =                       -344.2269880777314484
  Basis Set: 6-31G*
  Basis Set:
  Basis Set: 6-31G*
  Basis Set:
  @DF-RHF Final Energy:  -344.22710569001600
    Total Energy =                       -344.2271056900160602
  Basis Set: 6-31G*
  Basis Set:
  Basis Set: 6-31G*
  Basis Set:
  @DF-RHF Final Energy:  -344.22710907718880
    Total Energy =                       -344.2271090771887430
  Basis Set: 6-31G*
  Basis Set:
  Charge       = 0
  Multiplicity = 1
  Basis Set: 6-31G*
  Basis Set:

    Orbital Energies (a.u.)
    -----------------------

    Doubly Occupied:

       1A    -15.541503     2A    -15.541456     3A    -11.238566
       4A    -11.238419     5A    -11.237817     6A    -11.237750
       7A    -11.235674     8A    -11.235558     9A     -1.254049
      10A     -1.202693    11A     -1.023965    12A     -0.991148
      13A     -0.911610    14A     -0.865915    15A     -0.835595
      16A     -0.755457    17A     -0.664930    18A     -0.635151
      19A     -0.628957    20A     -0.624705    21A     -0.620849
      22A     -0.580797    23A     -0.549003    24A     -0.548238
      25A     -0.541224    26A     -0.519892    27A     -0.496493
      28A     -0.488140    29A     -0.463158    30A     -0.454849
      31A     -0.349934    32A     -0.344846

  @DF-RHF Final Energy:  -344.22710941983320

   => Energetics <=

    Nuclear Repulsion Energy =            421.1667259351413009
    One-Electron Energy =               -1301.0709954936348822
    Two-Electron Energy =                 535.6771601386603834
    DFT Exchange-Correlation Energy =       0.0000000000000000
    Empirical Dispersion Energy =           0.0000000000000000
    PCM Polarization Energy =               0.0000000000000000
    EFP Energy =                            0.0000000000000000
    Total Energy =                       -344.2271094198331411
    Molecular point group: c1
  Basis Set: 6-31G*
  Basis Set:

  -Total Gradient:
     Atom            X                  Y                   Z
    ------   -----------------  -----------------  -----------------
       1       -0.000012259700     0.000017680977    -0.000002770454
       2       -0.000211875152    -0.006710376030     0.001514806393
       3        0.001055852838     0.001389570946    -0.005430735562
       4       -0.000036826920     0.005296447672    -0.000018941841
       5       -0.000015030514     0.000009551523     0.000005694918
       6       -0.000775377975     0.000065603079     0.003936673302
       7       -0.000007079962    -0.000073784659    -0.000029576142
       8       -0.000015378905    -0.000000979278     0.000007846658
       9       -0.000002436427     0.000004770693     0.000002765872
      10        0.000015337107    -0.000014773394    -0.000006295007
      11        0.000004071175    -0.000007315284    -0.000001098093
      12       -0.000008850322     0.000000836935     0.000009900908
      13        0.000024490785     0.000024147785     0.000002162462
      14        0.000001651229    -0.000000796508     0.000002482158
      15       -0.000001098895    -0.000001037257    -0.000000044424
      16       -0.000016403493    -0.000001183438     0.000000652098
      17        0.000002190873    -0.000001645423     0.000002914356
      18       -0.000002218860    -0.000001448178     0.000000405527
      19       -0.000003064126     0.000005441350     0.000002692776
      20        0.000000907742     0.000000302630    -0.000000243595
      21        0.000003238808    -0.000000396268     0.000000037438
      22        0.000000160693    -0.000000617874     0.000000670250

  **** Optimization is complete! (in 5 steps) ****
    Final optimized geometry and variables:
    Molecular point group: c1

    Geometry (in Angstrom), charge = 0, multiplicity = 1:

    H           -3.134320129442    -0.595902096682    -0.565890438701
    C           -2.615492832526     0.247052421201    -1.022772687278
    N           -1.191874299775     0.261784422353    -0.738515883054
    H           -2.787543702166     0.239996269642    -2.094502803839
    H           -3.073900637632     1.154954530718    -0.647197248935
    C           -0.650300630984    -1.079977606171    -0.626038049044
    C           -0.859660410467     1.029543378172     0.449395607906
    H           -1.100862698475    -1.621292237396     0.210851727236
    H           -0.882029635129    -1.627754050413    -1.534293033108
    C            0.857589092305    -1.036420993628    -0.437823048064
    H           -1.235789476799     2.039661899774     0.329171187889
    H           -1.318087759042     0.607398195402     1.348651921957
    C            0.648284858423     1.081994699869     0.639522830892
    H            1.232102725705    -2.046442102711    -0.305869247552
    H            1.319376376583    -0.626471327756    -1.341189804490
    N            1.196619771431    -0.256498922605     0.736159024988
    H            0.875230950340     1.618847066729     1.554995301961
    H            1.092177137803     1.639416474237    -0.191030466733
    C            2.616332464749    -0.250093021698     0.999877590406
    H            2.971222927959    -1.267004791996     1.125702161809
    H            2.816980403970     0.289472397459     1.918844248467
    H            3.198175202950     0.215758497248     0.198758026918

  Mulliken Charges: (a.u.)
   Center  Symbol    Alpha    Beta     Spin     Total
       1     H     0.42873  0.42873  0.00000  0.14255
       2     C     3.14080  3.14080  0.00000 -0.28160
       3     N     3.78708  3.78708  0.00000 -0.57417
       4     H     0.41518  0.41518  0.00000  0.16964
       5     H     0.41977  0.41977  0.00000  0.16046
       6     C     3.05919  3.05919  0.00000 -0.11837
       7     C     3.05849  3.05849  0.00000 -0.11697
       8     H     0.42779  0.42779  0.00000  0.14441
       9     H     0.41728  0.41728  0.00000  0.16544
      10     C     3.05579  3.05579  0.00000 -0.11157
      11     H     0.41752  0.41752  0.00000  0.16497
      12     H     0.42853  0.42853  0.00000  0.14295
      13     C     3.05634  3.05634  0.00000 -0.11267
      14     H     0.41812  0.41812  0.00000  0.16375
      15     H     0.42841  0.42841  0.00000  0.14318
      16     N     3.78703  3.78703  0.00000 -0.57407
      17     H     0.41814  0.41814  0.00000  0.16371
      18     H     0.42842  0.42842  0.00000  0.14316
      19     C     3.14026  3.14026  0.00000 -0.28051
      20     H     0.41686  0.41686  0.00000  0.16629
      21     H     0.41686  0.41686  0.00000  0.16628
      22     H     0.43343  0.43343  0.00000  0.13314

   Total alpha = 32.00000, Total beta = 32.00000, Total charge =  0.00000
