                              Psi4 1.0.54 Driver

  ==> Input File <==

--------------------------------------------------------------------------
set {
	reference rhf
	basis cc-pvtz
}

set_num_threads( 4 )
memory 2 gb

molecule MOL {
0 1

H	 2.084253	 -0.462233	 -0.964951
O	 2.063695	 -0.083403	 -0.105237
C	 0.742924	 0.005675	 0.350750
H	 0.731380	 0.039219	 1.440080
C	 -0.064076	 -1.193495	 -0.124425
C	 -0.047832	 1.190568	 -0.194462
H	 0.194729	 -1.376165	 -1.161308
H	 0.163013	 -2.094508	 0.429933
C	 -1.533112	 -0.752002	 0.006102
H	 0.148003	 1.266545	 -1.259275
H	 0.226235	 2.136493	 0.259722
C	 -1.506634	 0.799189	 0.067162
H	 -2.124360	 -1.110499	 -0.826089
H	 -1.983103	 -1.158030	 0.903403
H	 -2.183808	 1.252169	 -0.644677
H	 -1.813926	 1.138698	 1.049457

	symmetry c1
}
set optking {
	frozen_dihedral = ("
		1 2 3 6
	")
}

ee,wfn = optimize('scf', return_wfn=True)
oeprop( wfn, 'DIPOLE', 'QUADRUPOLE', 'MULLIKEN_CHARGES')
f=open( 'psi4out.xyz', 'w' )
f.write( "16  " )
f.write( str(ee) + "\n" )
f.write( MOL.save_string_xyz() )
f.close()
--------------------------------------------------------------------------

    Molecular point group: c1
  Charge       = 0
  Multiplicity = 1
  Basis Set: CC-PVTZ
  Basis Set:
  @DF-RHF Final Energy:  -270.11408650099162
    Total Energy =                       -270.1140865009913341
    Molecular point group: c1
  Basis Set: CC-PVTZ
  Basis Set:
  Basis Set: CC-PVTZ
  Basis Set:
  @DF-RHF Final Energy:  -270.11585761505546
    Total Energy =                       -270.1158576150554609
  Basis Set: CC-PVTZ
  Basis Set:
  Basis Set: CC-PVTZ
  Basis Set:
  @DF-RHF Final Energy:  -270.11610276895919
    Total Energy =                       -270.1161027689593084
  Basis Set: CC-PVTZ
  Basis Set:
  Basis Set: CC-PVTZ
  Basis Set:
  @DF-RHF Final Energy:  -270.11610774612677
    Total Energy =                       -270.1161077461267155
  Basis Set: CC-PVTZ
  Basis Set:
  Charge       = 0
  Multiplicity = 1
  Basis Set: CC-PVTZ
  Basis Set:

    Orbital Energies (a.u.)
    -----------------------

    Doubly Occupied:

       1A    -20.545038     2A    -11.267524     3A    -11.217774
       4A    -11.215913     5A    -11.215634     6A    -11.209415
       7A     -1.365757     8A     -1.116731     9A     -0.969812
      10A     -0.949882    11A     -0.804817    12A     -0.783878
      13A     -0.683401    14A     -0.663927    15A     -0.609395
      16A     -0.590864    17A     -0.579360    18A     -0.547018
      19A     -0.506144    20A     -0.484808    21A     -0.473791
      22A     -0.459518    23A     -0.454920    24A     -0.415528

  @DF-RHF Final Energy:  -270.11610808681451

   => Energetics <=

    Nuclear Repulsion Energy =            255.4688069139714344
    One-Electron Energy =                -872.9081366541425950
    Two-Electron Energy =                 347.3232216533566543
    DFT Exchange-Correlation Energy =       0.0000000000000000
    Empirical Dispersion Energy =           0.0000000000000000
    PCM Polarization Energy =               0.0000000000000000
    EFP Energy =                            0.0000000000000000
    Total Energy =                       -270.1161080868145064
    Molecular point group: c1
  Basis Set: CC-PVTZ
  Basis Set:

  -Total Gradient:
     Atom            X                  Y                   Z
    ------   -----------------  -----------------  -----------------
       1        0.000086098850    -0.001340267416     0.000503545423
       2       -0.000033543659     0.001866017763    -0.000253098868
       3       -0.000309626308    -0.000967862014    -0.000971807329
       4        0.000008902660    -0.000001296745     0.000009400495
       5        0.000023033520     0.000029502106    -0.000037844111
       6        0.000255957089     0.000433931523     0.000711957310
       7       -0.000001413430    -0.000006443319     0.000005758458
       8        0.000007182427     0.000019162374     0.000002938982
       9       -0.000019167625     0.000010782639    -0.000002097123
      10        0.000013402122     0.000001750294    -0.000004458515
      11        0.000008175581    -0.000011007494    -0.000000219797
      12       -0.000009017903    -0.000019507195     0.000029819740
      13       -0.000015323829    -0.000001221660    -0.000002634155
      14       -0.000006413847     0.000001048457    -0.000002835259
      15        0.000004094577    -0.000009466290     0.000005795534
      16       -0.000012340224    -0.000005123020     0.000005779214

  **** Optimization is complete! (in 5 steps) ****
    Final optimized geometry and variables:
    Molecular point group: c1

    Geometry (in Angstrom), charge = 0, multiplicity = 1:

    H            2.169778057004    -0.351579491351    -0.944935124411
    O            2.094498902915    -0.034204007824    -0.063122169370
    C            0.750690044830    -0.007905567130     0.323624674519
    H            0.763938769231     0.013511640702     1.408294354708
    C           -0.084347842765    -1.195865635116    -0.145988403472
    C           -0.040878823003     1.193471201319    -0.181776411849
    H            0.128453032176    -1.374903111090    -1.197910173685
    H            0.147176342380    -2.108321886823     0.387762661145
    C           -1.543505815932    -0.738326921251     0.030379146995
    H            0.121663321764     1.293667540362    -1.252204028920
    H            0.264840924450     2.122359288064     0.281591545071
    C           -1.495870223998     0.812337752376     0.111533265127
    H           -2.163132305944    -1.078856596507    -0.788663912984
    H           -1.970671774311    -1.152485937307     0.934780057769
    H           -2.189263781388     1.280735000736    -0.574140132881
    H           -1.771955604671     1.140122038149     1.106788556746

  Mulliken Charges: (a.u.)
   Center  Symbol    Alpha    Beta     Spin     Total
       1     H     0.39433  0.39433  0.00000  0.21135
       2     O     4.20723  4.20723  0.00000 -0.41446
       3     C     2.93171  2.93171  0.00000  0.13658
       4     H     0.44609  0.44609  0.00000  0.10783
       5     C     3.11022  3.11022  0.00000 -0.22045
       6     C     3.09557  3.09557  0.00000 -0.19114
       7     H     0.46083  0.46083  0.00000  0.07833
       8     H     0.44125  0.44125  0.00000  0.11749
       9     C     3.10976  3.10976  0.00000 -0.21953
      10     H     0.46118  0.46118  0.00000  0.07764
      11     H     0.44399  0.44399  0.00000  0.11202
      12     C     3.11377  3.11377  0.00000 -0.22755
      13     H     0.44523  0.44523  0.00000  0.10954
      14     H     0.44642  0.44642  0.00000  0.10716
      15     H     0.44352  0.44352  0.00000  0.11297
      16     H     0.44890  0.44890  0.00000  0.10220

   Total alpha = 24.00000, Total beta = 24.00000, Total charge =  0.00000

*** Psi4 exiting successfully. Buy a developer a beer!
