  ==> Input File <==

--------------------------------------------------------------------------
set {
	reference rhf
	basis 6-31G*
}

set_num_threads( 4 )
memory 2 gb

molecule MOL {
0 1

H	 1.831338	 -0.696335	 -1.142672
O	 1.014532	 -0.685367	 -0.664942
C	 0.702312	 0.627605	 -0.264544
C	 -0.714990	 0.596302	 0.266387
H	 0.758565	 1.310418	 -1.108023
H	 1.386206	 0.972756	 0.507910
O	 -1.405996	 -0.526611	 -0.195820
H	 -1.257453	 1.468809	 -0.075599
H	 -0.688972	 0.618407	 1.353696
H	 -0.890587	 -1.292708	 0.022039

	symmetry c1
}
set optking {
	frozen_dihedral = ("
		5 3 4 7
	")
}

ee = optimize('scf')
oeprop('DIPOLE', 'QUADRUPOLE', 'MULLIKEN_CHARGES')
f=open( 'psi4out.xyz', 'w' )
f.write( "10  " )
f.write( str(ee) + "\n" )
f.write( MOL.save_string_xyz() )
f.close()
--------------------------------------------------------------------------

    Molecular point group: c1
  Charge       = 0
  Multiplicity = 1
  Basis Set: 6-31G*
  Basis Set:
  @DF-RHF Final Energy:  -228.91432572505292
    Total Energy =                       -228.9143257250528904
    Molecular point group: c1
  Basis Set: 6-31G*
  Basis Set:
  Basis Set: 6-31G*
  Basis Set:
  @DF-RHF Final Energy:  -228.91702654480235
    Total Energy =                       -228.9170265448023542
  Basis Set: 6-31G*
  Basis Set:
  Basis Set: 6-31G*
  Basis Set:
  @DF-RHF Final Energy:  -228.91766854599538
    Total Energy =                       -228.9176685459952978
  Basis Set: 6-31G*
  Basis Set:
  Basis Set: 6-31G*
  Basis Set:
  @DF-RHF Final Energy:  -228.91779139926376
    Total Energy =                       -228.9177913992637627
  Basis Set: 6-31G*
  Basis Set:
  Basis Set: 6-31G*
  Basis Set:
  @DF-RHF Final Energy:  -228.91785920309107
    Total Energy =                       -228.9178592030910977
  Basis Set: 6-31G*
  Basis Set:
  Basis Set: 6-31G*
  Basis Set:
  @DF-RHF Final Energy:  -228.91787055089500
    Total Energy =                       -228.9178705508949747
  Basis Set: 6-31G*
  Basis Set:
  Basis Set: 6-31G*
  Basis Set:
  @DF-RHF Final Energy:  -228.91787249507286
    Total Energy =                       -228.9178724950727997
  Basis Set: 6-31G*
  Basis Set:
  Charge       = 0
  Multiplicity = 1
  Basis Set: 6-31G*
  Basis Set:

    Orbital Energies (a.u.)
    -----------------------

    Doubly Occupied:

       1A    -20.576790     2A    -20.540264     3A    -11.281914
       4A    -11.268657     5A     -1.389663     6A     -1.345024
       7A     -0.998942     8A     -0.846099     9A     -0.730532
      10A     -0.679453    11A     -0.656102    12A     -0.590607
      13A     -0.579226    14A     -0.539943    15A     -0.484666
      16A     -0.459863    17A     -0.419321

  @DF-RHF Final Energy:  -228.91787283878887

   => Energetics <=

    Nuclear Repulsion Energy =            134.9608814261007979
    One-Electron Energy =                -580.9833726412131227
    Two-Electron Energy =                 217.1046183763233728
    DFT Exchange-Correlation Energy =       0.0000000000000000
    Empirical Dispersion Energy =           0.0000000000000000
    PCM Polarization Energy =               0.0000000000000000
    EFP Energy =                            0.0000000000000000
    Total Energy =                       -228.9178728387889521
    Molecular point group: c1
  Basis Set: 6-31G*
  Basis Set:

  -Total Gradient:
     Atom            X                  Y                   Z
    ------   -----------------  -----------------  -----------------
       1        0.000010855102     0.000007160219     0.000010308972
       2        0.000004468519    -0.000118639060     0.000000058524
       3       -0.001659399417    -0.008374883485    -0.004220743197
       4       -0.002437798687     0.005765406616    -0.005334417048
       5        0.001928779586     0.005924642605     0.004697057964
       6       -0.000003349429    -0.000042684412     0.000002739729
       7        0.002143076238    -0.003141902275     0.004793028289
       8        0.000009274247     0.000006219833     0.000018441505
       9        0.000000901791     0.000001195259     0.000000445061
      10        0.000003192054    -0.000026515298     0.000033080201

  **** Optimization is complete! (in 8 steps) ****
    Final optimized geometry and variables:
    Molecular point group: c1

    Geometry (in Angstrom), charge = 0, multiplicity = 1:

    H            2.015001332921    -0.682510882917    -0.807507019967
    O            1.144698599226    -0.662544228299    -0.436767674554
    C            0.783224466943     0.653831852036    -0.116012285844
    C           -0.628295828269     0.636857511846     0.499058946647
    H            0.829481993355     1.317782454037    -0.975415170212
    H            1.474831459561     1.065240718915     0.616256986273
    O           -1.375991103420    -0.474485057457     0.111476952806
    H           -1.171201726731     1.525532240138     0.204149610295
    H           -0.539539030862     0.653827145793     1.583271861266
    H           -0.782502900732    -1.202408928800    -0.019027423886

  Mulliken Charges: (a.u.)
   Center  Symbol    Alpha    Beta     Spin     Total
       1     H     0.27360  0.27360  0.00000  0.45280
       2     O     4.37970  4.37970  0.00000 -0.75941
       3     C     3.01417  3.01417  0.00000 -0.02834
       4     C     2.99361  2.99361  0.00000  0.01279
       5     H     0.42403  0.42403  0.00000  0.15194
       6     H     0.42707  0.42707  0.00000  0.14587
       7     O     4.37741  4.37741  0.00000 -0.75481
       8     H     0.41806  0.41806  0.00000  0.16387
       9     H     0.42798  0.42798  0.00000  0.14403
      10     H     0.26437  0.26437  0.00000  0.47126

   Total alpha = 17.00000, Total beta = 17.00000, Total charge = -0.00000
