                              Psi4 1.0.54 Driver

  ==> Input File <==

--------------------------------------------------------------------------
set {
	reference rhf
	basis cc-pvtz
}

set_num_threads( 4 )
memory 2 gb

molecule MOL {
0 1

O	 -2.817697	 1.304178	 0.001046
C	 -2.664672	 0.129869	 0.003507
C	 -3.797908	 -0.860100	 -0.001145
O	 -1.481217	 -0.452708	 0.001092
H	 -4.408836	 -0.679689	 -0.875387
H	 -3.443486	 -1.878443	 -0.002770
H	 -4.412123	 -0.683688	 0.871605
C	 -0.332055	 0.384012	 -0.000250
C	 0.892252	 -0.506059	 -0.000295
H	 -0.360822	 1.020205	 -0.874146
H	 -0.359817	 1.021310	 0.872861
C	 2.188199	 0.299473	 -0.001416
H	 0.857046	 -1.152781	 -0.871031
H	 0.857910	 -1.151798	 0.871202
C	 3.435971	 -0.575584	 0.078992
H	 2.236172	 0.907860	 -0.901161
H	 2.184364	 0.993532	 0.835389
C	 4.731183	 0.229050	 0.079093
H	 3.441835	 -1.268404	 -0.757681
H	 3.389234	 -1.183896	 0.977802
H	 4.823437	 0.822444	 -0.824355
H	 5.596447	 -0.420915	 0.137143
H	 4.770276	 0.907848	 0.924408

	symmetry c1
}
set optking {
	frozen_dihedral = ("
		16 12 9 13
	")
}

ee,wfn = optimize('scf', return_wfn=True)
oeprop( wfn, 'DIPOLE', 'QUADRUPOLE', 'MULLIKEN_CHARGES')
f=open( 'psi4out.xyz', 'w' )
f.write( "23  " )
f.write( str(ee) + "\n" )
f.write( MOL.save_string_xyz() )
f.close()
--------------------------------------------------------------------------

    Molecular point group: c1
  Charge       = 0
  Multiplicity = 1
  Basis Set: CC-PVTZ
  Basis Set:
  @DF-RHF Final Energy:  -423.13477765670496
    Total Energy =                       -423.1347776567051824
    Molecular point group: c1
  Basis Set: CC-PVTZ
  Basis Set:
  Basis Set: CC-PVTZ
  Basis Set:
  @DF-RHF Final Energy:  -423.13455367222082
    Total Energy =                       -423.1345536722207044
  Basis Set: CC-PVTZ
  Basis Set:
  Basis Set: CC-PVTZ
  Basis Set:
  @DF-RHF Final Energy:  -423.13478471694509
    Total Energy =                       -423.1347847169450915
  Basis Set: CC-PVTZ
  Basis Set:
  Basis Set: CC-PVTZ
  Basis Set:
  @DF-RHF Final Energy:  -423.13478833122684
    Total Energy =                       -423.1347883312269005
  Basis Set: CC-PVTZ
  Basis Set:
  Charge       = 0
  Multiplicity = 1
  Basis Set: CC-PVTZ
  Basis Set:

    Orbital Energies (a.u.)
    -----------------------

    Doubly Occupied:

       1A    -20.595917     2A    -20.529510     3A    -11.366383
       4A    -11.279416     5A    -11.230650     6A    -11.222335
       7A    -11.221362     8A    -11.219448     9A    -11.210887
      10A     -1.471160    11A     -1.364001    12A     -1.095325
      13A     -1.043263    14A     -1.004258    15A     -0.931685
      16A     -0.842320    17A     -0.803028    18A     -0.776057
      19A     -0.694915    20A     -0.688302    21A     -0.671166
      22A     -0.648272    23A     -0.607113    24A     -0.589121
      25A     -0.584051    26A     -0.567295    27A     -0.559631
      28A     -0.538542    29A     -0.524182    30A     -0.505523
      31A     -0.491873    32A     -0.478243    33A     -0.471502
      34A     -0.466680    35A     -0.455233    36A     -0.438892

  @DF-RHF Final Energy:  -423.13478846967564

   => Energetics <=

    Nuclear Repulsion Energy =            450.4685890089424447
    One-Electron Energy =               -1468.8316718859750836
    Two-Electron Energy =                 595.2282944073569979
    DFT Exchange-Correlation Energy =       0.0000000000000000
    Empirical Dispersion Energy =           0.0000000000000000
    PCM Polarization Energy =               0.0000000000000000
    EFP Energy =                            0.0000000000000000
    Total Energy =                       -423.1347884696756410
    Molecular point group: c1
  Basis Set: CC-PVTZ
  Basis Set:

  -Total Gradient:
     Atom            X                  Y                   Z
    ------   -----------------  -----------------  -----------------
       1       -0.000003274002    -0.000044827718    -0.000002094216
       2        0.000009604370     0.000005954753     0.000002196610
       3       -0.000005076063     0.000023457185     0.000003656137
       4       -0.000063330056     0.000011677363    -0.000003434166
       5        0.000021174924    -0.000001649411     0.000023596821
       6       -0.000000678301     0.000001542416    -0.000000228823
       7        0.000019000739    -0.000000749231    -0.000025151116
       8        0.000022928806     0.000026962384     0.000032214875
       9        0.000358972759    -0.000577363900     0.000250587664
      10       -0.000002693574    -0.000010452332     0.000004175055
      11       -0.000012172734     0.000003556933    -0.000005149532
      12       -0.000365963242     0.000582005487     0.000235265044
      13       -0.000236179758     0.000381767396    -0.000277959125
      14        0.000010135156     0.000008434820    -0.000013347093
      15        0.000003521086    -0.000002280599     0.000047954683
      16        0.000236117483    -0.000392956697    -0.000253112515
      17       -0.000002918747    -0.000009755822    -0.000011927718
      18        0.000005506075    -0.000003540887    -0.000014069337
      19       -0.000000254802     0.000008734758     0.000006629141
      20        0.000009515211    -0.000007388164     0.000004728412
      21       -0.000000695973     0.000005203353     0.000001514845
      22        0.000000321679     0.000000453510    -0.000006013966
      23       -0.000003561044    -0.000008785596    -0.000000031680

  **** Optimization is complete! (in 5 steps) ****
    Final optimized geometry and variables:
    Molecular point group: c1

    Geometry (in Angstrom), charge = 0, multiplicity = 1:

    O           -2.817006903177     1.303604030700    -0.019383861548
    C           -2.664246186116     0.129241699321    -0.021987299994
    C           -3.797780144809    -0.860490933920    -0.031167424833
    O           -1.480936281450    -0.453354927519    -0.017093324612
    H           -4.406111362210    -0.678506530351    -0.906901037411
    H           -3.443628135649    -1.878960325973    -0.033312025057
    H           -4.414385029147    -0.685173284537     0.840145588964
    C           -0.331869724370     0.383118179097    -0.007789274219
    C            0.892586224604    -0.507113240068    -0.003537689288
    H           -0.354611775874     1.022821199417    -0.879436576854
    H           -0.364852732985     1.017279459899     0.867467567187
    C            2.187835986908     0.299733528214    -0.007761592924
    H            0.856880170716    -1.154112624698    -0.874037420882
    H            0.857288159674    -1.150231405152     0.869799380723
    C            3.436219301260    -0.575469646233     0.064367834901
    H            2.232195188888     0.907138490980    -0.908299140735
    H            2.188601707924     0.992443599732     0.830161389074
    C            4.731556364248     0.228727333352     0.045803345700
    H            3.432940101103    -1.273110517638    -0.768449398472
    H            3.399082641303    -1.178682946328     0.967077434821
    H            4.814367243153     0.816940907765    -0.861996691135
    H            5.597149466128    -0.421334243981     0.098317530045
    H            4.779952940752     0.912390798543     0.886781815135

  Mulliken Charges: (a.u.)
   Center  Symbol    Alpha    Beta     Spin     Total
       1     O     4.20243  4.20243  0.00000 -0.40487
       2     C     2.81528  2.81528  0.00000  0.36945
       3     C     3.14005  3.14005  0.00000 -0.28011
       4     O     4.14459  4.14459  0.00000 -0.28918
       5     H     0.44211  0.44211  0.00000  0.11579
       6     H     0.44186  0.44186  0.00000  0.11628
       7     H     0.44213  0.44213  0.00000  0.11574
       8     C     2.97902  2.97902  0.00000  0.04197
       9     C     3.08097  3.08097  0.00000 -0.16194
      10     H     0.45413  0.45413  0.00000  0.09174
      11     H     0.45397  0.45397  0.00000  0.09207
      12     C     3.09771  3.09771  0.00000 -0.19543
      13     H     0.45064  0.45064  0.00000  0.09872
      14     H     0.45096  0.45096  0.00000  0.09808
      15     C     3.08503  3.08503  0.00000 -0.17007
      16     H     0.45269  0.45269  0.00000  0.09462
      17     H     0.45305  0.45305  0.00000  0.09390
      18     C     3.14956  3.14956  0.00000 -0.29911
      19     H     0.45355  0.45355  0.00000  0.09290
      20     H     0.45346  0.45346  0.00000  0.09308
      21     H     0.45458  0.45458  0.00000  0.09085
      22     H     0.44769  0.44769  0.00000  0.10461
      23     H     0.45455  0.45455  0.00000  0.09090

   Total alpha = 36.00000, Total beta = 36.00000, Total charge =  0.00000

*** Psi4 exiting successfully. Buy a developer a beer!
