  ==> Input File <==

--------------------------------------------------------------------------
set {
	reference rhf
	basis cc-pvtz
}

set_num_threads( 4 )
memory 2 gb

molecule MOL {
0 1

H	 -3.034039	 -0.667848	 0.004703
O	 -2.240597	 -1.171748	 0.000934
C	 -1.159675	 -0.364500	 0.000370
C	 0.087362	 -0.797567	 -0.401833
C	 -1.342929	 0.941999	 0.426436
H	 0.232084	 -1.810495	 -0.730605
C	 1.148854	 0.090440	 -0.371717
H	 -2.324467	 1.246208	 0.734619
C	 -0.283813	 1.826823	 0.453579
H	 2.121214	 -0.243645	 -0.681030
C	 0.973850	 1.388863	 0.050512
C	 -0.487972	 3.254291	 0.894373
H	 1.808310	 2.063954	 0.070250
H	 0.313692	 3.578197	 1.546478
H	 -1.423654	 3.373424	 1.423573
H	 -0.502566	 3.920081	 0.038129

	symmetry c1
}
set optking {
	frozen_dihedral = ("
		5 3 2 1
	")
}

ee = optimize('scf')
oeprop('DIPOLE', 'QUADRUPOLE', 'MULLIKEN_CHARGES')
f=open( 'psi4out.xyz', 'w' )
f.write( "16  " )
f.write( str(ee) + "\n" )
f.write( MOL.save_string_xyz() )
f.close()
--------------------------------------------------------------------------

    Molecular point group: c1
  Charge       = 0
  Multiplicity = 1
  Basis Set: CC-PVTZ
  Basis Set:
  @DF-RHF Final Energy:  -344.71825267564299
    Total Energy =                       -344.7182526756429866
    Molecular point group: c1
  Basis Set: CC-PVTZ
  Basis Set:
  Basis Set: CC-PVTZ
  Basis Set:
  @DF-RHF Final Energy:  -344.71995770092991
    Total Energy =                       -344.7199577009299674
  Basis Set: CC-PVTZ
  Basis Set:
  Basis Set: CC-PVTZ
  Basis Set:
  @DF-RHF Final Energy:  -344.72009630279746
    Total Energy =                       -344.7200963027978560
  Basis Set: CC-PVTZ
  Basis Set:
  Basis Set: CC-PVTZ
  Basis Set:
  @DF-RHF Final Energy:  -344.72011467813388
    Total Energy =                       -344.7201146781338252
  Basis Set: CC-PVTZ
  Basis Set:
  @DF-RHF Final Energy:  -344.72012164420772
    Total Energy =                       -344.7201216442080636
  @DF-RHF Final Energy:  -344.72012527345225
    Total Energy =                       -344.7201252734522541
  @DF-RHF Final Energy:  -344.72013536157931
    Total Energy =                       -344.7201353615793096
  @DF-RHF Final Energy:  -344.72013987374640
    Total Energy =                       -344.7201398737464615
  @DF-RHF Final Energy:  -344.72014363420220
    Total Energy =                       -344.7201436342020884
  @DF-RHF Final Energy:  -344.72014685587538
    Total Energy =                       -344.7201468558753277
  @DF-RHF Final Energy:  -344.72014984951420
    Total Energy =                       -344.7201498495140299
  @DF-RHF Final Energy:  -344.72015302748105
    Total Energy =                       -344.7201530274812740
  @DF-RHF Final Energy:  -344.72016198928412
    Total Energy =                       -344.7201619892843496
  @DF-RHF Final Energy:  -344.72018624241127
    Total Energy =                       -344.7201862424115006
  @DF-RHF Final Energy:  -344.72020479820696
    Total Energy =                       -344.7202047982073054
  @DF-RHF Final Energy:  -344.72020948703852
    Total Energy =                       -344.7202094870388578
  @DF-RHF Final Energy:  -344.72021295878835
    Total Energy =                       -344.7202129587882951
  Basis Set: CC-PVTZ
  Basis Set:
  @DF-RHF Final Energy:  -344.72021590411214
    Total Energy =                       -344.7202159041122513
  Basis Set: CC-PVTZ
  Basis Set:
  Basis Set: CC-PVTZ
  Basis Set:
  @DF-RHF Final Energy:  -344.72021835684569
    Total Energy =                       -344.7202183568459191
  Basis Set: CC-PVTZ
  Basis Set:
  Basis Set: CC-PVTZ
  Basis Set:
  @DF-RHF Final Energy:  -344.72022272974186
    Total Energy =                       -344.7202227297420336
  Basis Set: CC-PVTZ
  Basis Set:
  Charge       = 0
  Multiplicity = 1
  Basis Set: CC-PVTZ
  Basis Set:

    Orbital Energies (a.u.)
    -----------------------

    Doubly Occupied:

       1A    -20.581786     2A    -11.294678     3A    -11.242115
       4A    -11.230941     5A    -11.221617     6A    -11.219069
       7A    -11.215245     8A    -11.213657     9A     -1.412119
      10A     -1.154535    11A     -1.047680    12A     -1.006803
      13A     -0.940883    14A     -0.844548    15A     -0.802871
      16A     -0.732360    17A     -0.683596    18A     -0.651927
      19A     -0.605934    20A     -0.596931    21A     -0.580132
      22A     -0.570143    23A     -0.569925    24A     -0.536035
      25A     -0.506787    26A     -0.484795    27A     -0.472371
      28A     -0.333668    29A     -0.311705

  @DF-RHF Final Energy:  -344.72022342103890

   => Energetics <=

    Nuclear Repulsion Energy =            346.3880593501147587
    One-Electron Energy =               -1154.0868476637547246
    Two-Electron Energy =                 462.9785648926004455
    DFT Exchange-Correlation Energy =       0.0000000000000000
    Empirical Dispersion Energy =           0.0000000000000000
    PCM Polarization Energy =               0.0000000000000000
    EFP Energy =                            0.0000000000000000
    Total Energy =                       -344.7202234210395204
    Molecular point group: c1
  Basis Set: CC-PVTZ
  Basis Set:

  -Total Gradient:
     Atom            X                  Y                   Z
    ------   -----------------  -----------------  -----------------
       1        0.000074741696     0.000046536586    -0.001799933681
       2        0.000112335802    -0.000286999092     0.003105044025
       3       -0.000458061676     0.000736562963    -0.002961430116
       4       -0.000083782747    -0.000099103775     0.000173479776
       5        0.000326031233    -0.000421514874     0.001448801166
       6        0.000023288884     0.000001443593     0.000020625678
       7        0.000031109488     0.000067131799    -0.000004469064
       8       -0.000009763271    -0.000003451579     0.000024196864
       9       -0.000027041925    -0.000010108307    -0.000001233682
      10       -0.000002249769    -0.000005986301     0.000003025797
      11        0.000026706684    -0.000028100264    -0.000006100916
      12       -0.000003658663     0.000002664046     0.000002692640
      13       -0.000000098427    -0.000001753821    -0.000002425077
      14       -0.000005756330     0.000005191699     0.000005088225
      15       -0.000003808758    -0.000005407973    -0.000005578155
      16        0.000000007773     0.000002895298    -0.000001783478

  **** Optimization is complete! (in 21 steps) ****
    Final optimized geometry and variables:
    Molecular point group: c1

    Geometry (in Angstrom), charge = 0, multiplicity = 1:

    H           -2.565015928265    -1.378654715026    -0.278243686593
    O           -1.743500295162    -1.834641099758    -0.249072757031
    C           -0.712092006351    -0.964684691287    -0.180783780838
    C            0.548568475032    -1.436564188607    -0.509773858990
    C           -0.879569468292     0.338606493730     0.240298591970
    H            0.662896171500    -2.454052118353    -0.826922602763
    C            1.623326391709    -0.582633626739    -0.418964685761
    H           -1.861664888968     0.685495664809     0.510901181763
    C            0.205111365453     1.203036601902     0.322783483600
    H            2.603095669052    -0.941292583864    -0.672329546422
    C            1.460810438433     0.731380344066    -0.008983647806
    C           -0.003514547239     2.628716056655     0.767461873258
    H            2.312482170105     1.381215958774     0.052770471638
    H            0.940389532115     3.139747857460     0.898368922461
    H           -0.540732719085     2.668518555580     1.707801537791
    H           -0.583573098939     3.180512383608     0.035919275952

  Mulliken Charges: (a.u.)
   Center  Symbol    Alpha    Beta     Spin     Total
       1     H     0.38655  0.38655  0.00000  0.22691
       2     O     4.17697  4.17697  0.00000 -0.35395
       3     C     2.84199  2.84199  0.00000  0.31602
       4     C     3.12385  3.12385  0.00000 -0.24770
       5     C     3.15206  3.15206  0.00000 -0.30412
       6     H     0.41928  0.41928  0.00000  0.16144
       7     C     3.04782  3.04782  0.00000 -0.09564
       8     H     0.43571  0.43571  0.00000  0.12858
       9     C     2.94621  2.94621  0.00000  0.10758
      10     H     0.42322  0.42322  0.00000  0.15357
      11     C     3.12514  3.12514  0.00000 -0.25029
      12     C     3.14919  3.14919  0.00000 -0.29839
      13     H     0.42668  0.42668  0.00000  0.14664
      14     H     0.44965  0.44965  0.00000  0.10070
      15     H     0.44819  0.44819  0.00000  0.10361
      16     H     0.44749  0.44749  0.00000  0.10502

   Total alpha = 29.00000, Total beta = 29.00000, Total charge =  0.00000
