                              Psi4 1.0.54 Driver

  ==> Input File <==

--------------------------------------------------------------------------
set {
	reference rhf
	basis cc-pvtz
}

set_num_threads( 4 )
memory 2 gb

molecule MOL {
0 1

H	 1.941250	 -4.955453	 2.863043
C	 1.922797	 -4.055739	 2.279701
C	 0.845194	 -3.774883	 1.451616
C	 2.966054	 -3.161369	 2.339637
H	 0.021795	 -4.461158	 1.391837
C	 0.817449	 -2.623328	 0.702502
H	 3.808422	 -3.361390	 2.974536
C	 2.954172	 -1.993513	 1.589716
H	 -0.010292	 -2.396938	 0.059647
C	 1.875670	 -1.723017	 0.767678
H	 3.781430	 -1.317974	 1.658649
O	 1.760432	 -0.625184	 0.000000
C	 2.773565	 0.334879	 0.000000
H	 2.728295	 0.960928	 -0.884150
H	 3.706387	 -0.206610	 0.000000
H	 2.728295	 0.960928	 0.884150

	symmetry c1
}
set optking {
	frozen_dihedral = ("
		10 12 13 14
	")
}

ee,wfn = optimize('scf', return_wfn=True)
oeprop( wfn, 'DIPOLE', 'QUADRUPOLE', 'MULLIKEN_CHARGES')
f=open( 'psi4out.xyz', 'w' )
f.write( "16  " )
f.write( str(ee) + "\n" )
f.write( MOL.save_string_xyz() )
f.close()
--------------------------------------------------------------------------

    Molecular point group: c1
  Charge       = 0
  Multiplicity = 1
  Basis Set: CC-PVTZ
  Basis Set:
  @DF-RHF Final Energy:  -344.70003615658726
    Total Energy =                       -344.7000361565874869
    Molecular point group: c1
  Basis Set: CC-PVTZ
  Basis Set:
  Basis Set: CC-PVTZ
  Basis Set:
  @DF-RHF Final Energy:  -344.70187779102702
    Total Energy =                       -344.7018777910272433
  Basis Set: CC-PVTZ
  Basis Set:
  Basis Set: CC-PVTZ
  Basis Set:
  @DF-RHF Final Energy:  -344.70279984655190
    Total Energy =                       -344.7027998465517271
  Basis Set: CC-PVTZ
  Basis Set:
  Basis Set: CC-PVTZ
  Basis Set:
  @DF-RHF Final Energy:  -344.70284979959001
    Total Energy =                       -344.7028497995900125
  Basis Set: CC-PVTZ
  Basis Set:
  Basis Set: CC-PVTZ
  Basis Set:
  @DF-RHF Final Energy:  -344.70285820254549
    Total Energy =                       -344.7028582025454853
  Basis Set: CC-PVTZ
  Basis Set:
  Charge       = 0
  Multiplicity = 1
  Basis Set: CC-PVTZ
  Basis Set:

    Orbital Energies (a.u.)
    -----------------------

    Doubly Occupied:

       1A    -20.579235     2A    -11.293432     3A    -11.278247
       4A    -11.231279     5A    -11.229998     6A    -11.221925
       7A    -11.218050     8A    -11.217110     9A     -1.418547
      10A     -1.150967    11A     -1.025428    12A     -1.016707
      13A     -0.943942    14A     -0.834784    15A     -0.808385
      16A     -0.725644    17A     -0.667626    18A     -0.666668
      19A     -0.659736    20A     -0.618941    21A     -0.590534
      22A     -0.580489    23A     -0.527855    24A     -0.522870
      25A     -0.512144    26A     -0.480294    27A     -0.465257
      28A     -0.339682    29A     -0.310446

  @DF-RHF Final Energy:  -344.70285882942443

   => Energetics <=

    Nuclear Repulsion Energy =            348.8057009671941273
    One-Electron Energy =               -1158.7446766946823118
    Two-Electron Energy =                 465.2361168980639263
    DFT Exchange-Correlation Energy =       0.0000000000000000
    Empirical Dispersion Energy =           0.0000000000000000
    PCM Polarization Energy =               0.0000000000000000
    EFP Energy =                            0.0000000000000000
    Total Energy =                       -344.7028588294243150
    Molecular point group: c1
  Basis Set: CC-PVTZ
  Basis Set:

  -Total Gradient:
     Atom            X                  Y                   Z
    ------   -----------------  -----------------  -----------------
       1       -0.000012636441    -0.000013490302     0.000003190404
       2        0.000130040176     0.000024599640     0.000052410653
       3       -0.000063786205     0.000066481044    -0.000043615809
       4       -0.000100618749    -0.000143842030     0.000039266737
       5        0.000024898407    -0.000013551860     0.000018684139
       6       -0.000088041131    -0.000087204868     0.000085046686
       7       -0.000012142966    -0.000007680011    -0.000008776192
       8       -0.000102869054     0.000098588061    -0.000079068694
       9        0.000022518264     0.000018191530    -0.000002818824
      10        0.001195595558    -0.001032555913    -0.001796293934
      11       -0.000010872529     0.000004902973    -0.000010862084
      12       -0.001096781270     0.001200839582     0.002307033837
      13       -0.001236717375     0.001478545979     0.000699875236
      14        0.001445265365    -0.001552193561    -0.001202965704
      15       -0.000101288329     0.000015937236     0.000027126616
      16        0.000007436282    -0.000057567499    -0.000088233070

  **** Optimization is complete! (in 6 steps) ****
    Final optimized geometry and variables:
    Molecular point group: c1

    Geometry (in Angstrom), charge = 0, multiplicity = 1:

    H           -0.005248669078    -2.857062536965     1.737094095821
    C           -0.044440195964    -1.950526230949     1.165372008405
    C           -0.987825211668    -1.792099008224     0.160698047418
    C            0.837499882261    -0.925077769599     1.417994560899
    H           -1.684709056059    -2.581247921445    -0.049328853398
    C           -1.040300980860    -0.632934364755    -0.576459448236
    H            1.570749961571    -1.027311410980     2.195515771998
    C            0.795726424753     0.252445172399     0.685481851662
    H           -1.764349606749    -0.500873715233    -1.356168702537
    C           -0.143282306782     0.397536327278    -0.319227149430
    H            1.486291650885     1.038365217026     0.913092478870
    O           -0.279126426664     1.502040939107    -1.074966457707
    C            0.736393494728     2.461635952627    -1.104598712648
    H            0.587963823647     3.040947741935    -2.002753944755
    H            1.715176836571     2.000279839146    -1.155971729001
    H            0.693137786191     3.112708265827    -0.238949102671

  Mulliken Charges: (a.u.)
   Center  Symbol    Alpha    Beta     Spin     Total
       1     H     0.42439  0.42439  0.00000  0.15121
       2     C     3.10040  3.10040  0.00000 -0.20081
       3     C     3.05834  3.05834  0.00000 -0.11669
       4     C     3.06210  3.06210  0.00000 -0.12420
       5     H     0.42296  0.42296  0.00000  0.15408
       6     C     3.11082  3.11082  0.00000 -0.22165
       7     H     0.42340  0.42340  0.00000  0.15320
       8     C     3.14087  3.14087  0.00000 -0.28175
       9     H     0.42059  0.42059  0.00000  0.15881
      10     C     2.85239  2.85239  0.00000  0.29522
      11     H     0.42283  0.42283  0.00000  0.15434
      12     O     4.15328  4.15328  0.00000 -0.30656
      13     C     3.04353  3.04353  0.00000 -0.08706
      14     H     0.44037  0.44037  0.00000  0.11926
      15     H     0.46403  0.46403  0.00000  0.07194
      16     H     0.45967  0.45967  0.00000  0.08066

   Total alpha = 29.00000, Total beta = 29.00000, Total charge =  0.00000

*** Psi4 exiting successfully. Buy a developer a beer!
