  ==> Input File <==

--------------------------------------------------------------------------
set {
	reference rhf
	basis 6-31G*
}

set_num_threads( 4 )
memory 2 gb

molecule MOL {
0 1

H	 0.740627	 -0.013111	 2.383647
C	 -0.223577	 -0.014428	 1.894144
O	 0.000000	 0.000000	 0.521119
H	 -0.772375	 -0.903966	 2.199483
H	 -0.783306	 0.862288	 2.216263
C	 -1.165642	 0.000000	 -0.238270
H	 -1.228672	 0.883184	 -0.872070
H	 -2.003012	 0.000000	 0.445920
H	 -1.228672	 -0.883184	 -0.872070

	symmetry c1
}
set optking {
	frozen_dihedral = ("
		2 3 6 7
	")
}

ee = optimize('scf')
oeprop('DIPOLE', 'QUADRUPOLE', 'MULLIKEN_CHARGES')
f=open( 'psi4out.xyz', 'w' )
f.write( "9  " )
f.write( str(ee) + "\n" )
f.write( MOL.save_string_xyz() )
f.close()
--------------------------------------------------------------------------

    Molecular point group: c1
  Charge       = 0
  Multiplicity = 1
  Basis Set: 6-31G*
  Basis Set:
  @DF-RHF Final Energy:  -154.05927299663608
    Total Energy =                       -154.0592729966361105
    Molecular point group: c1
  Basis Set: 6-31G*
  Basis Set:
  Basis Set: 6-31G*
  Basis Set:
  @DF-RHF Final Energy:  -154.06020043194366
    Total Energy =                       -154.0602004319435991
  Basis Set: 6-31G*
  Basis Set:
  Basis Set: 6-31G*
  Basis Set:
  @DF-RHF Final Energy:  -154.06052888111950
    Total Energy =                       -154.0605288811195805
  Basis Set: 6-31G*
  Basis Set:
  Charge       = 0
  Multiplicity = 1
  Basis Set: 6-31G*
  Basis Set:

    Orbital Energies (a.u.)
    -----------------------

    Doubly Occupied:

       1A    -20.551978     2A    -11.265634     3A    -11.264599
       4A     -1.373782     5A     -0.974906     6A     -0.872805
       7A     -0.656084     8A     -0.653204     9A     -0.642635
      10A     -0.559330    11A     -0.527887    12A     -0.472812
      13A     -0.411304

  @DF-RHF Final Energy:  -154.06053182948816

   => Energetics <=

    Nuclear Repulsion Energy =             84.4700637985637002
    One-Electron Energy =                -376.6072735970389544
    Two-Electron Energy =                 138.0766779689870987
    DFT Exchange-Correlation Energy =       0.0000000000000000
    Empirical Dispersion Energy =           0.0000000000000000
    PCM Polarization Energy =               0.0000000000000000
    EFP Energy =                            0.0000000000000000
    Total Energy =                       -154.0605318294881840
    Molecular point group: c1
  Basis Set: 6-31G*
  Basis Set:

  -Total Gradient:
     Atom            X                  Y                   Z
    ------   -----------------  -----------------  -----------------
       1        0.000009319886    -0.000001128410    -0.000008188363
       2        0.000008711299    -0.000039009359     0.000048302095
       3       -0.000102899319     0.000131079618    -0.000151530620
       4       -0.000004319909     0.000011369786    -0.000045411516
       5       -0.000000478726    -0.000014936651    -0.000038241402
       6        0.000002085800    -0.000068069636     0.000242201306
       7        0.000129477979    -0.000035914421    -0.000009590720
       8       -0.000058581503     0.000007692156    -0.000005839681
       9        0.000016684492     0.000008916916    -0.000031701099

  **** Optimization is complete! (in 4 steps) ****
    Final optimized geometry and variables:
    Molecular point group: c1

    Geometry (in Angstrom), charge = 0, multiplicity = 1:

    H            1.252887878065    -0.008762644515     1.631822525279
    C            0.274568508428    -0.005825593814     1.170859680771
    O            0.464725444577     0.001032814221    -0.208168981916
    H           -0.268245470064    -0.890547881658     1.497888251974
    H           -0.267192545360     0.876119274890     1.507041582399
    C           -0.699672543201     0.004890143612    -0.980947244175
    H           -0.721002059582     0.892833816014    -1.603831350451
    H           -1.596020815646    -0.005243904465    -0.367723541425
    H           -0.714316121009    -0.869651926161    -1.622659507709

  Mulliken Charges: (a.u.)
   Center  Symbol    Alpha    Beta     Spin     Total
       1     H     0.41278  0.41278  0.00000  0.17445
       2     C     3.07877  3.07877  0.00000 -0.15754
       3     O     4.30054  4.30054  0.00000 -0.60108
       4     H     0.43008  0.43008  0.00000  0.13985
       5     H     0.43009  0.43009  0.00000  0.13982
       6     C     3.07745  3.07745  0.00000 -0.15490
       7     H     0.42020  0.42020  0.00000  0.15961
       8     H     0.43005  0.43005  0.00000  0.13989
       9     H     0.42004  0.42004  0.00000  0.15992

   Total alpha = 13.00000, Total beta = 13.00000, Total charge = -0.00000
