                              Psi4 1.0.54 Driver

  ==> Input File <==

--------------------------------------------------------------------------
set {
	reference rhf
	basis cc-pvtz
}

set_num_threads( 4 )
memory 2 gb

molecule MOL {
0 1

H	 -2.655106	 -0.309638	 0.967556
O	 -2.346257	 -0.289210	 0.080372
C	 -1.183935	 0.486039	 -0.009831
C	 0.062853	 -0.375310	 0.027457
H	 -1.178881	 1.094526	 -0.908634
H	 -1.184406	 1.155156	 0.838676
O	 1.172093	 0.457955	 -0.054438
H	 0.052476	 -1.081302	 -0.804627
H	 0.076323	 -0.955658	 0.947560
C	 2.395478	 -0.199028	 -0.000366
H	 2.505946	 -0.901710	 -0.823354
H	 3.174616	 0.545641	 -0.071768
H	 2.513730	 -0.742241	 0.934223

	symmetry c1
}
set optking {
	frozen_dihedral = ("
		1 2 3 5
	")
}

ee,wfn = optimize('scf', return_wfn=True)
oeprop( wfn, 'DIPOLE', 'QUADRUPOLE', 'MULLIKEN_CHARGES')
f=open( 'psi4out.xyz', 'w' )
f.write( "13  " )
f.write( str(ee) + "\n" )
f.write( MOL.save_string_xyz() )
f.close()
--------------------------------------------------------------------------

    Molecular point group: c1
  Charge       = 0
  Multiplicity = 1
  Basis Set: CC-PVTZ
  Basis Set:
  @DF-RHF Final Energy:  -268.06043062285283
    Total Energy =                       -268.0604306228528912
    Molecular point group: c1
  Basis Set: CC-PVTZ
  Basis Set:
  Basis Set: CC-PVTZ
  Basis Set:
  @DF-RHF Final Energy:  -268.03808318382107
    Total Energy =                       -268.0380831838211293
  Basis Set: CC-PVTZ
  Basis Set:
  Basis Set: CC-PVTZ
  Basis Set:
  @DF-RHF Final Energy:  -268.06136379483758
    Total Energy =                       -268.0613637948377459
  Basis Set: CC-PVTZ
  Basis Set:
  Basis Set: CC-PVTZ
  Basis Set:
  @DF-RHF Final Energy:  -268.06177228757724
    Total Energy =                       -268.0617722875773552
  Basis Set: CC-PVTZ
  Basis Set:
  Basis Set: CC-PVTZ
  Basis Set:
  @DF-RHF Final Energy:  -268.06177938037325
    Total Energy =                       -268.0617793803731388
  Basis Set: CC-PVTZ
  Basis Set:
  Charge       = 0
  Multiplicity = 1
  Basis Set: CC-PVTZ
  Basis Set:

    Orbital Energies (a.u.)
    -----------------------

    Doubly Occupied:

       1A    -20.554080     2A    -20.551994     3A    -11.267900
       4A    -11.266254     5A    -11.266181     6A     -1.389985
       7A     -1.368145     8A     -1.019241     9A     -0.913001
      10A     -0.838089    11A     -0.715100    12A     -0.677254
      13A     -0.655749    14A     -0.641981    15A     -0.601140
      16A     -0.560251    17A     -0.548402    18A     -0.488643
      19A     -0.484597    20A     -0.441040    21A     -0.422661

  @DF-RHF Final Energy:  -268.06178015342903

   => Energetics <=

    Nuclear Repulsion Energy =            190.4100374622485958
    One-Electron Energy =                -743.6002591870952756
    Two-Electron Energy =                 285.1284415714177385
    DFT Exchange-Correlation Energy =       0.0000000000000000
    Empirical Dispersion Energy =           0.0000000000000000
    PCM Polarization Energy =               0.0000000000000000
    EFP Energy =                            0.0000000000000000
    Total Energy =                       -268.0617801534289129
    Molecular point group: c1
  Basis Set: CC-PVTZ
  Basis Set:

  -Total Gradient:
     Atom            X                  Y                   Z
    ------   -----------------  -----------------  -----------------
       1       -0.000595286987     0.000710628685     0.000087594228
       2        0.000587779465    -0.000812808723     0.000049421887
       3        0.000396048118    -0.000344532640    -0.000687882943
       4       -0.000047477975     0.000011286181     0.000015138769
       5       -0.000376529821     0.000418936252     0.000534645420
       6       -0.000009116792    -0.000009301765     0.000013282241
       7        0.000040765403     0.000033780177    -0.000005155441
       8       -0.000006335063     0.000003602493    -0.000014574486
       9       -0.000001313867    -0.000005969376     0.000005115799
      10        0.000008608029     0.000003898484     0.000008080815
      11        0.000000543798    -0.000002341195    -0.000019537097
      12       -0.000001533681     0.000004978768    -0.000000849812
      13        0.000003849368    -0.000012157341     0.000014720620

  **** Optimization is complete! (in 6 steps) ****
    Final optimized geometry and variables:
    Molecular point group: c1

    Geometry (in Angstrom), charge = 0, multiplicity = 1:

    H           -2.603766568345    -0.806762912078     0.849841408313
    O           -2.303833308572    -0.492870466972     0.018308756812
    C           -1.210011478829     0.369315415642     0.184160696673
    C            0.088778087744    -0.359611424571    -0.091396045516
    H           -1.320410086754     1.191113513597    -0.510668517442
    H           -1.183605494797     0.791879042908     1.182810788303
    O            1.135425206184     0.544755385499     0.051539824339
    H            0.064826056215    -0.773476134131    -1.097276287045
    H            0.200456701780    -1.192132574984     0.602988150651
    C            2.394928053841     0.016596590042    -0.203993676449
    H            2.471740014987    -0.351677156354    -1.224366435045
    H            3.119818238696     0.804878425407    -0.062547331463
    H            2.628761471202    -0.800430026950     0.475055501805

  Mulliken Charges: (a.u.)
   Center  Symbol    Alpha    Beta     Spin     Total
       1     H     0.39102  0.39102  0.00000  0.21796
       2     O     4.20547  4.20547  0.00000 -0.41093
       3     C     2.97496  2.97496  0.00000  0.05009
       4     C     2.95899  2.95899  0.00000  0.08203
       5     H     0.45604  0.45604  0.00000  0.08791
       6     H     0.46784  0.46784  0.00000  0.06432
       7     O     4.17632  4.17632  0.00000 -0.35263
       8     H     0.47051  0.47051  0.00000  0.05897
       9     H     0.47992  0.47992  0.00000  0.04017
      10     C     3.03131  3.03131  0.00000 -0.06262
      11     H     0.46994  0.46994  0.00000  0.06013
      12     H     0.44647  0.44647  0.00000  0.10706
      13     H     0.47123  0.47123  0.00000  0.05755

   Total alpha = 21.00000, Total beta = 21.00000, Total charge =  0.00000

*** Psi4 exiting successfully. Buy a developer a beer!
