  ==> Input File <==

--------------------------------------------------------------------------
set {
	reference rhf
	basis 6-31G*
}

set_num_threads( 4 )
memory 2 gb

molecule MOL {
0 1

H	 3.163243	 -0.056401	 0.531401
N	 2.434251	 -0.367735	 -0.081097
C	 1.267428	 0.496480	 0.024474
H	 2.204217	 -1.303560	 0.194999
C	 -0.016086	 -0.325158	 -0.029487
H	 1.288818	 1.183521	 -0.816092
H	 1.267576	 1.109062	 0.929528
C	 -1.282277	 0.529072	 0.046735
H	 -0.012495	 -0.908639	 -0.945788
H	 -0.015903	 -1.041248	 0.791956
C	 -2.563920	 -0.301775	 -0.006060
H	 -1.284084	 1.244622	 -0.773004
H	 -1.271387	 1.115393	 0.963286
H	 -2.621848	 -0.873522	 -0.927727
H	 -3.445135	 0.329952	 0.047812
H	 -2.609542	 -1.004582	 0.821105

	symmetry c1
}
set optking {
	frozen_dihedral = ("
		1 2 3 6
	")
}

ee = optimize('scf')
oeprop('DIPOLE', 'QUADRUPOLE', 'MULLIKEN_CHARGES')
f=open( 'psi4out.xyz', 'w' )
f.write( "16  " )
f.write( str(ee) + "\n" )
f.write( MOL.save_string_xyz() )
f.close()
--------------------------------------------------------------------------

    Molecular point group: c1
  Charge       = 0
  Multiplicity = 1
  Basis Set: 6-31G*
  Basis Set:
  @DF-RHF Final Energy:  -212.31324518609676
    Total Energy =                       -212.3132451860967080
    Molecular point group: c1
  Basis Set: 6-31G*
  Basis Set:
  Basis Set: 6-31G*
  Basis Set:
  @DF-RHF Final Energy:  -212.31350526580337
    Total Energy =                       -212.3135052658032578
  Basis Set: 6-31G*
  Basis Set:
  Basis Set: 6-31G*
  Basis Set:
  @DF-RHF Final Energy:  -212.31356868966307
    Total Energy =                       -212.3135686896629295
  Basis Set: 6-31G*
  Basis Set:
  Charge       = 0
  Multiplicity = 1
  Basis Set: 6-31G*
  Basis Set:

    Orbital Energies (a.u.)
    -----------------------

    Doubly Occupied:

       1A    -15.530600     2A    -11.239569     3A    -11.218391
       4A    -11.216201     5A    -11.210626     6A     -1.175036
       7A     -1.062577     8A     -0.960625     9A     -0.846292
      10A     -0.797702    11A     -0.656181    12A     -0.644421
      13A     -0.599283    14A     -0.579119    15A     -0.570918
      16A     -0.520338    17A     -0.511195    18A     -0.473182
      19A     -0.470071    20A     -0.461826    21A     -0.379248

  @DF-RHF Final Energy:  -212.31356926006717

   => Energetics <=

    Nuclear Repulsion Energy =            186.3264001789217161
    One-Electron Energy =                -655.0331366422240080
    Two-Electron Energy =                 256.3931672032351798
    DFT Exchange-Correlation Energy =       0.0000000000000000
    Empirical Dispersion Energy =           0.0000000000000000
    PCM Polarization Energy =               0.0000000000000000
    EFP Energy =                            0.0000000000000000
    Total Energy =                       -212.3135692600670836
    Molecular point group: c1
  Basis Set: 6-31G*
  Basis Set:

  -Total Gradient:
     Atom            X                  Y                   Z
    ------   -----------------  -----------------  -----------------
       1       -0.001152738765    -0.001917284164     0.002283105871
       2        0.000970646756     0.001985343619    -0.003243478114
       3        0.001743655508     0.001857174542     0.002568375886
       4       -0.000014844433     0.000016648789    -0.000030992340
       5        0.000027358726    -0.000011968752     0.000082416306
       6       -0.001561829535    -0.001865078518    -0.001621919224
       7       -0.000025841436    -0.000063393855    -0.000047089053
       8        0.000029285139     0.000029327856     0.000049952491
       9       -0.000025667443    -0.000068483846    -0.000039780162
      10        0.000014446159     0.000026637327     0.000018886611
      11        0.000013792378    -0.000001463899    -0.000074907492
      12        0.000013186756     0.000001689687     0.000051707761
      13       -0.000034967538     0.000003588014     0.000037445346
      14       -0.000003643320    -0.000031624751     0.000000991969
      15        0.000002277244     0.000002888063    -0.000035694817
      16        0.000004883804     0.000035999888     0.000000978964

  **** Optimization is complete! (in 4 steps) ****
    Final optimized geometry and variables:
    Molecular point group: c1

    Geometry (in Angstrom), charge = 0, multiplicity = 1:

    H            3.196187843807    -0.048598598355     0.480842776528
    N            2.451476641914    -0.350760504856    -0.115668312502
    C            1.271651143990     0.498593546380     0.043789123077
    H            2.243426319862    -1.290548731354     0.162142148737
    C           -0.015064443496    -0.322120519390    -0.001634301814
    H            1.245682842211     1.212561940750    -0.774514953335
    H            1.298619177329     1.069021516952     0.971340234331
    C           -1.279685057127     0.536477139552     0.041015188740
    H           -0.012062214049    -0.922192503150    -0.909466071726
    H           -0.024372550997    -1.021261661697     0.834073996634
    C           -2.562723027914    -0.291795628542    -0.017475978657
    H           -1.265841575467     1.237821951794    -0.789965550809
    H           -1.279539054770     1.137019447748     0.948287712212
    H           -2.606451783934    -0.882184764503    -0.928192858867
    H           -3.442131350892     0.344114171502     0.007091400615
    H           -2.626260558053    -0.976778388234     0.823289637749

  Mulliken Charges: (a.u.)
   Center  Symbol    Alpha    Beta     Spin     Total
       1     H     0.33313  0.33313  0.00000  0.33374
       2     N     3.92730  3.92730  0.00000 -0.85459
       3     C     3.04791  3.04791  0.00000 -0.09581
       4     H     0.33388  0.33388  0.00000  0.33224
       5     C     3.16616  3.16616  0.00000 -0.33231
       6     H     0.42013  0.42013  0.00000  0.15973
       7     H     0.43145  0.43145  0.00000  0.13711
       8     C     3.15438  3.15438  0.00000 -0.30876
       9     H     0.41586  0.41586  0.00000  0.16829
      10     H     0.42656  0.42656  0.00000  0.14688
      11     C     3.23921  3.23921  0.00000 -0.47841
      12     H     0.42037  0.42037  0.00000  0.15926
      13     H     0.42268  0.42268  0.00000  0.15464
      14     H     0.42053  0.42053  0.00000  0.15895
      15     H     0.41864  0.41864  0.00000  0.16272
      16     H     0.42183  0.42183  0.00000  0.15634

   Total alpha = 21.00000, Total beta = 21.00000, Total charge = -0.00000
