  ==> Input File <==

--------------------------------------------------------------------------
set {
	reference rhf
	basis 6-31G*
}

set_num_threads( 1 )
memory 2 gb

molecule MOL {
0 1

O	 2.844745	 -1.611171	 -1.775597
C	 2.497339	 -1.321087	 -0.676406
C	 1.067375	 -1.213759	 -0.204735
O	 3.347903	 -1.046386	 0.304773
C	 0.049662	 -1.533653	 -1.297458
H	 0.964635	 -1.871470	 0.652033
H	 0.927856	 -0.205424	 0.176701
C	 -1.405911	 -1.327643	 -0.864607
H	 0.192573	 -2.556694	 -1.632245
H	 0.256777	 -0.905795	 -2.157295
C	 -1.896993	 -2.285414	 0.224716
H	 -2.038016	 -1.445695	 -1.741665
H	 -1.542870	 -0.300183	 -0.530574
C	 -3.383550	 -2.112543	 0.542933
H	 -1.714049	 -3.311151	 -0.091848
H	 -1.323462	 -2.140487	 1.137421
C	 -3.884164	 -3.060936	 1.633836
H	 -3.966052	 -2.269282	 -0.363356
H	 -3.569023	 -1.084211	 0.849254
C	 -5.370446	 -2.884515	 1.942935
H	 -3.698684	 -4.088944	 1.329799
H	 -3.306015	 -2.902722	 2.541852
H	 -5.695211	 -3.570075	 2.719557
H	 -5.978757	 -3.070411	 1.062256
H	 -5.583051	 -1.874862	 2.283043
C	 4.728119	 -1.109107	 -0.004993
H	 4.882018	 -1.033965	 -1.071845
H	 5.068212	 -2.067527	 0.355250
H	 5.265056	 -0.311663	 0.488280

	symmetry c1
}
set optking {
	frozen_dihedral = ("
		21 17 14 11,
		17 14 11 15,
		15 11 8 5,
		6 3 5 9,
		11 8 5 9,
		1 2 4 26,
		6 3 2 1
	")
}

ee = energy('scf')
oeprop('DIPOLE', 'QUADRUPOLE', 'MULLIKEN_CHARGES')
f=open( 'psi4out.xyz', 'w' )
f.write( "29  " )
f.write( str(ee) + "\n" )
f.write( MOL.save_string_xyz() )
f.close()
--------------------------------------------------------------------------

    Molecular point group: c1

    Geometry (in Angstrom), charge = 0, multiplicity = 1:

       Center              X                  Y                   Z               Mass
    ------------   -----------------  -----------------  -----------------  -----------------
           O          2.927924494316     0.159363354240    -1.763471381340    15.994914619560
           C          2.580518494316     0.449447354240    -0.664280381340    12.000000000000
           C          1.150554494316     0.556775354240    -0.192609381340    12.000000000000
           O          3.431082494316     0.724148354240     0.316898618660    15.994914619560
           C          0.132841494316     0.236881354240    -1.285332381340    12.000000000000
           H          1.047814494316    -0.100935645760     0.664158618660     1.007825032070
           H          1.011035494316     1.565110354240     0.188826618660     1.007825032070
           C         -1.322731505684     0.442891354240    -0.852481381340    12.000000000000
           H          0.275752494316    -0.786159645760    -1.620119381340     1.007825032070
           H          0.339956494316     0.864739354240    -2.145169381340     1.007825032070
           C         -1.813813505684    -0.514879645760     0.236841618660    12.000000000000
           H         -1.954836505684     0.324839354240    -1.729539381340     1.007825032070
           H         -1.459690505684     1.470351354240    -0.518448381340     1.007825032070
           C         -3.300370505684    -0.342008645760     0.555058618660    12.000000000000
           H         -1.630869505684    -1.540616645760    -0.079722381340     1.007825032070
           H         -1.240282505684    -0.369952645760     1.149546618660     1.007825032070
           C         -3.800984505684    -1.290401645760     1.645961618660    12.000000000000
           H         -3.882872505684    -0.498747645760    -0.351230381340     1.007825032070
           H         -3.485843505684     0.686323354240     0.861379618660     1.007825032070
           C         -5.287266505684    -1.113980645760     1.955060618660    12.000000000000
           H         -3.615504505684    -2.318409645760     1.341924618660     1.007825032070
           H         -3.222835505684    -1.132187645760     2.553977618660     1.007825032070
           H         -5.612031505684    -1.799540645760     2.731682618660     1.007825032070
           H         -5.895577505684    -1.299876645760     1.074381618660     1.007825032070
           H         -5.499871505684    -0.104327645760     2.295168618660     1.007825032070
           C          4.811298494316     0.661427354240     0.007132618660    12.000000000000
           H          4.965197494316     0.736569354240    -1.059719381340     1.007825032070
           H          5.151391494316    -0.296992645760     0.367375618660     1.007825032070
           H          5.348235494316     1.458871354240     0.500405618660     1.007825032070

  Charge       = 0
  Multiplicity = 1
  Basis Set: 6-31G*
  Basis Set:

    Orbital Energies (a.u.)
    -----------------------

    Doubly Occupied:

       1A    -20.602778     2A    -20.544435     3A    -11.373125
       4A    -11.277026     5A    -11.235117     6A    -11.219250
       7A    -11.217735     8A    -11.216055     9A    -11.215889
      10A    -11.214510    11A    -11.209073    12A     -1.469218
      13A     -1.362533    14A     -1.098213    15A     -1.066949
      16A     -1.019475    17A     -0.976582    18A     -0.928209
      19A     -0.861555    20A     -0.799193    21A     -0.790442
      22A     -0.762922    23A     -0.702789    24A     -0.682140
      25A     -0.672993    26A     -0.650928    27A     -0.629471
      28A     -0.605074    29A     -0.594285    30A     -0.579957
      31A     -0.568117    32A     -0.550331    33A     -0.533289
      34A     -0.526004    35A     -0.514616    36A     -0.512165
      37A     -0.496502    38A     -0.477934    39A     -0.470307
      40A     -0.462396    41A     -0.458721    42A     -0.453326
      43A     -0.441130    44A     -0.436006

  @DF-RHF Final Energy:  -501.04117934539852

   => Energetics <=

    Nuclear Repulsion Energy =            610.3225171006068877
    One-Electron Energy =               -1891.7699152420505015
    Two-Electron Energy =                 780.4062187960435040
    DFT Exchange-Correlation Energy =       0.0000000000000000
    Empirical Dispersion Energy =           0.0000000000000000
    PCM Polarization Energy =               0.0000000000000000
    EFP Energy =                            0.0000000000000000
    Total Energy =                       -501.0411793453999962

  Mulliken Charges: (a.u.)
   Center  Symbol    Alpha    Beta     Spin     Total
       1     O     4.28659  4.28659  0.00000 -0.57318
       2     C     2.60439  2.60439  0.00000  0.79123
       3     C     3.21027  3.21027  0.00000 -0.42055
       4     O     4.30767  4.30767  0.00000 -0.61533
       5     C     3.15386  3.15386  0.00000 -0.30771
       6     H     0.39860  0.39860  0.00000  0.20280
       7     H     0.40104  0.40104  0.00000  0.19792
       8     C     3.15663  3.15663  0.00000 -0.31327
       9     H     0.41302  0.41302  0.00000  0.17396
      10     H     0.40873  0.40873  0.00000  0.18255
      11     C     3.15509  3.15509  0.00000 -0.31018
      12     H     0.41820  0.41820  0.00000  0.16359
      13     H     0.42384  0.42384  0.00000  0.15231
      14     C     3.15030  3.15030  0.00000 -0.30060
      15     H     0.42259  0.42259  0.00000  0.15481
      16     H     0.42360  0.42360  0.00000  0.15281
      17     C     3.15147  3.15147  0.00000 -0.30294
      18     H     0.42332  0.42332  0.00000  0.15336
      19     H     0.42396  0.42396  0.00000  0.15208
      20     C     3.23935  3.23935  0.00000 -0.47871
      21     H     0.42280  0.42280  0.00000  0.15441
      22     H     0.42341  0.42341  0.00000  0.15318
      23     H     0.41922  0.41922  0.00000  0.16156
      24     H     0.42155  0.42155  0.00000  0.15691
      25     H     0.42182  0.42182  0.00000  0.15635
      26     C     3.10046  3.10046  0.00000 -0.20092
      27     H     0.39408  0.39408  0.00000  0.21185
      28     H     0.41339  0.41339  0.00000  0.17322
      29     H     0.41076  0.41076  0.00000  0.17847

   Total alpha = 44.00000, Total beta = 44.00000, Total charge =  0.00000
