                              Psi4 1.0.54 Driver

  ==> Input File <==

--------------------------------------------------------------------------
set {
	reference rhf
	basis cc-pvtz
}

set_num_threads( 4 )
memory 2 gb

molecule MOL {
0 1

H	 2.147560	 1.989143	 -1.046949
N	 1.335985	 1.411586	 -1.104949
C	 1.263552	 0.494993	 0.021953
H	 1.391131	 0.911838	 -1.967821
C	 -0.016533	 -0.325589	 -0.026925
H	 1.274557	 1.086459	 0.931371
H	 2.119666	 -0.178848	 0.076639
C	 -1.280353	 0.525521	 0.047747
H	 -0.016686	 -0.912532	 -0.939714
H	 -0.014099	 -1.037598	 0.796369
C	 -2.560681	 -0.301323	 -0.007747
H	 -1.279957	 1.241025	 -0.770189
H	 -1.270445	 1.110526	 0.963468
H	 -2.617064	 -0.872870	 -0.928010
H	 -3.439525	 0.331102	 0.043462
H	 -2.609427	 -1.002736	 0.818585

	symmetry c1
}
set optking {
	frozen_dihedral = ("
		6 3 5 9
	")
}

ee,wfn = optimize('scf', return_wfn=True)
oeprop( wfn, 'DIPOLE', 'QUADRUPOLE', 'MULLIKEN_CHARGES')
f=open( 'psi4out.xyz', 'w' )
f.write( "16  " )
f.write( str(ee) + "\n" )
f.write( MOL.save_string_xyz() )
f.close()
--------------------------------------------------------------------------

    Molecular point group: c1
  Charge       = 0
  Multiplicity = 1
  Basis Set: CC-PVTZ
  Basis Set:
  @DF-RHF Final Energy:  -212.39951724484004
    Total Energy =                       -212.3995172448402400
    Molecular point group: c1
  Basis Set: CC-PVTZ
  Basis Set:
  Basis Set: CC-PVTZ
  Basis Set:
  @DF-RHF Final Energy:  -212.39970042992846
    Total Energy =                       -212.3997004299286573
  Basis Set: CC-PVTZ
  Basis Set:
  Basis Set: CC-PVTZ
  Basis Set:
  @DF-RHF Final Energy:  -212.39975771059602
    Total Energy =                       -212.3997577105959635
  Basis Set: CC-PVTZ
  Basis Set:
  Basis Set: CC-PVTZ
  Basis Set:
  @DF-RHF Final Energy:  -212.39976038522312
    Total Energy =                       -212.3997603852230895
  Basis Set: CC-PVTZ
  Basis Set:
  Charge       = 0
  Multiplicity = 1
  Basis Set: CC-PVTZ
  Basis Set:

    Orbital Energies (a.u.)
    -----------------------

    Doubly Occupied:

       1A    -15.527333     2A    -11.239018     3A    -11.208861
       4A    -11.203615     5A    -11.201267     6A     -1.179153
       7A     -1.054380     8A     -0.959279     9A     -0.846847
      10A     -0.783178    11A     -0.667476    12A     -0.628174
      13A     -0.610772    14A     -0.575646    15A     -0.563699
      16A     -0.518994    17A     -0.500554    18A     -0.467859
      19A     -0.462852    20A     -0.459893    21A     -0.382178

  @DF-RHF Final Energy:  -212.39976074902324

   => Energetics <=

    Nuclear Repulsion Energy =            189.0310026478904319
    One-Electron Energy =                -660.7794698317779876
    Two-Electron Energy =                 259.3487064348641979
    DFT Exchange-Correlation Energy =       0.0000000000000000
    Empirical Dispersion Energy =           0.0000000000000000
    PCM Polarization Energy =               0.0000000000000000
    EFP Energy =                            0.0000000000000000
    Total Energy =                       -212.3997607490233577
    Molecular point group: c1
  Basis Set: CC-PVTZ
  Basis Set:

  -Total Gradient:
     Atom            X                  Y                   Z
    ------   -----------------  -----------------  -----------------
       1        0.000019775783     0.000012152821    -0.000012523177
       2       -0.000002498110    -0.000011088327     0.000015081997
       3       -0.000312514427     0.000482684866    -0.000321736399
       4       -0.000001543766     0.000004650508    -0.000027418834
       5       -0.000277425520     0.000503999637    -0.000328207698
       6        0.000290685582    -0.000492417864     0.000343139969
       7       -0.000001368042     0.000013138361    -0.000015327976
       8        0.000019070969    -0.000038793193     0.000049250676
       9        0.000305632105    -0.000501133488     0.000312441423
      10       -0.000024329075    -0.000007682974     0.000006402485
      11       -0.000003720621     0.000010632094     0.000000264625
      12        0.000007284301     0.000006508003    -0.000018171884
      13       -0.000015374314     0.000011502290     0.000002788114
      14        0.000006380029     0.000001478026     0.000006180298
      15       -0.000013256395    -0.000006288671    -0.000006570046
      16        0.000003201501     0.000010657910    -0.000005593574

  **** Optimization is complete! (in 5 steps) ****
    Final optimized geometry and variables:
    Molecular point group: c1

    Geometry (in Angstrom), charge = 0, multiplicity = 1:

    H            2.409769372355     1.617775249411    -0.794448269076
    N            1.606076045830     1.032832906543    -0.879252623800
    C            1.489885427185     0.133468547591     0.258787091690
    H            1.703850832594     0.518475275257    -1.729901787588
    C            0.200908083723    -0.678200436342     0.208918883776
    H            1.499703915278     0.733953791301     1.162534898381
    H            2.331366815062    -0.555157330392     0.335590444823
    C           -1.074488912836     0.156418359731     0.280827635780
    H            0.195538013310    -1.278887532215    -0.699215401039
    H            0.215238535878    -1.386323282273     1.033717945722
    C           -2.340181355128    -0.692854117939     0.225880119836
    H           -1.079027032772     0.875692736984    -0.528134769037
    H           -1.067847474495     0.733023701361     1.202338203043
    H           -2.393025181653    -1.257365334482    -0.699519478161
    H           -3.229315883779    -0.075532690808     0.285531720652
    H           -2.375729832041    -1.402918805599     1.045973058666

  Mulliken Charges: (a.u.)
   Center  Symbol    Alpha    Beta     Spin     Total
       1     H     0.42888  0.42888  0.00000  0.14223
       2     N     3.69011  3.69011  0.00000 -0.38023
       3     C     3.03750  3.03750  0.00000 -0.07500
       4     H     0.43083  0.43083  0.00000  0.13834
       5     C     3.08990  3.08990  0.00000 -0.17979
       6     H     0.45677  0.45677  0.00000  0.08645
       7     H     0.45988  0.45988  0.00000  0.08025
       8     C     3.07729  3.07729  0.00000 -0.15457
       9     H     0.45832  0.45832  0.00000  0.08335
      10     H     0.45250  0.45250  0.00000  0.09500
      11     C     3.15016  3.15016  0.00000 -0.30031
      12     H     0.44666  0.44666  0.00000  0.10669
      13     H     0.45860  0.45860  0.00000  0.08279
      14     H     0.45639  0.45639  0.00000  0.08723
      15     H     0.44896  0.44896  0.00000  0.10208
      16     H     0.45726  0.45726  0.00000  0.08549

   Total alpha = 21.00000, Total beta = 21.00000, Total charge = -0.00000

*** Psi4 exiting successfully. Buy a developer a beer!
