  ==> Input File <==

--------------------------------------------------------------------------
set {
	reference rhf
	basis 6-31G*
}

set_num_threads( 4 )
memory 2 gb

molecule MOL {
0 1

O	 -2.821601	 1.309235	 -0.001213
C	 -2.668563	 0.129746	 -0.000350
C	 -3.801572	 -0.864014	 -0.000442
O	 -1.481751	 -0.454642	 0.000584
H	 -4.417280	 -0.689587	 -0.874708
H	 -3.443784	 -1.883046	 -0.000565
H	 -4.417179	 -0.689832	 0.873954
C	 -0.334255	 0.388708	 0.000906
C	 0.891947	 -0.504646	 0.000751
H	 -0.365390	 1.025305	 -0.873475
H	 -0.365484	 1.024911	 0.875569
C	 1.093101	 -1.206305	 -1.343750
H	 0.790099	 -1.240857	 0.793253
H	 1.764441	 0.096550	 0.241123
C	 2.325035	 -2.113081	 -1.364292
H	 0.210117	 -1.796957	 -1.581560
H	 1.183717	 -0.461716	 -2.132710
C	 2.525143	 -2.814911	 -2.706773
H	 2.235965	 -2.857980	 -0.576721
H	 3.208638	 -1.524007	 -1.129116
H	 1.671300	 -3.439238	 -2.954125
H	 3.405258	 -3.450015	 -2.690170
H	 2.651620	 -2.095273	 -3.510598

	symmetry c1
}
set optking {
	frozen_dihedral = ("
		13 9 8 10
	")
}

ee = optimize('scf')
oeprop('DIPOLE', 'QUADRUPOLE', 'MULLIKEN_CHARGES')
f=open( 'psi4out.xyz', 'w' )
f.write( "23  " )
f.write( str(ee) + "\n" )
f.write( MOL.save_string_xyz() )
f.close()
--------------------------------------------------------------------------

    Molecular point group: c1
  Charge       = 0
  Multiplicity = 1
  Basis Set: 6-31G*
  Basis Set:
  @DF-RHF Final Energy:  -422.97914007047228
    Total Energy =                       -422.9791400704723401
    Molecular point group: c1
  Basis Set: 6-31G*
  Basis Set:
  Basis Set: 6-31G*
  Basis Set:
  @DF-RHF Final Energy:  -422.97926681391903
    Total Energy =                       -422.9792668139195939
  Basis Set: 6-31G*
  Basis Set:
  Basis Set: 6-31G*
  Basis Set:
  @DF-RHF Final Energy:  -422.97922341704134
    Total Energy =                       -422.9792234170407710
  Basis Set: 6-31G*
  Basis Set:
  Basis Set: 6-31G*
  Basis Set:
  @DF-RHF Final Energy:  -422.97928956382702
    Total Energy =                       -422.9792895638269101
  Basis Set: 6-31G*
  Basis Set:
  Basis Set: 6-31G*
  Basis Set:
  @DF-RHF Final Energy:  -422.97930732407860
    Total Energy =                       -422.9793073240784906
  Basis Set: 6-31G*
  Basis Set:
  Basis Set: 6-31G*
  Basis Set:
  @DF-RHF Final Energy:  -422.97930886467344
    Total Energy =                       -422.9793088646732713
  Basis Set: 6-31G*
  Basis Set:
  Charge       = 0
  Multiplicity = 1
  Basis Set: 6-31G*
  Basis Set:

    Orbital Energies (a.u.)
    -----------------------

    Doubly Occupied:

       1A    -20.603344     2A    -20.540881     3A    -11.374483
       4A    -11.282313     5A    -11.232868     6A    -11.225239
       7A    -11.219537     8A    -11.218571     9A    -11.211539
      10A     -1.468106    11A     -1.360974    12A     -1.091914
      13A     -1.041381    14A     -1.002776    15A     -0.930628
      16A     -0.842499    17A     -0.800565    18A     -0.777309
      19A     -0.688168    20A     -0.682903    21A     -0.666402
      22A     -0.643559    23A     -0.607707    24A     -0.584682
      25A     -0.578098    26A     -0.573486    27A     -0.558950
      28A     -0.532707    29A     -0.528446    30A     -0.508076
      31A     -0.495945    32A     -0.473538    33A     -0.469249
      34A     -0.460773    35A     -0.446540    36A     -0.437281

  @DF-RHF Final Energy:  -422.97930939255963

   => Energetics <=

    Nuclear Repulsion Energy =            457.8491724630518434
    One-Electron Energy =               -1483.3340890001447860
    Two-Electron Energy =                 602.5056071445335419
    DFT Exchange-Correlation Energy =       0.0000000000000000
    Empirical Dispersion Energy =           0.0000000000000000
    PCM Polarization Energy =               0.0000000000000000
    EFP Energy =                            0.0000000000000000
    Total Energy =                       -422.9793093925593439
    Molecular point group: c1
  Basis Set: 6-31G*
  Basis Set:

  -Total Gradient:
     Atom            X                  Y                   Z
    ------   -----------------  -----------------  -----------------
       1       -0.000006063297    -0.000011093063    -0.000021970801
       2       -0.000014866269     0.000032697434     0.000079054284
       3        0.000000462503    -0.000000908030    -0.000035113240
       4        0.000076925860     0.000052021685     0.000001173279
       5       -0.000008063718    -0.000004584135     0.000000666261
       6        0.000000481333     0.000000695809    -0.000000848898
       7        0.000006726038     0.000003731952     0.000000198827
       8        0.001025789139     0.001436952842     0.000910454659
       9        0.000770086256     0.001045505515     0.001146802830
      10       -0.001005642634    -0.001359437319    -0.000908555704
      11       -0.000085128937     0.000025013093     0.000027262009
      12        0.000033269746    -0.000033371889     0.000045221353
      13       -0.000843606807    -0.001150110108    -0.001193893414
      14       -0.000010342562    -0.000012041973    -0.000014202138
      15        0.000022560295    -0.000007382674    -0.000055078114
      16       -0.000008780521     0.000022670944    -0.000006108490
      17        0.000005546661     0.000004900585     0.000031259356
      18        0.000024533519    -0.000040576319     0.000016386087
      19        0.000006886728     0.000006548031    -0.000002563059
      20        0.000008980375    -0.000002552155    -0.000012508212
      21       -0.000003391106     0.000003451993    -0.000002883415
      22       -0.000001134850    -0.000015625452    -0.000014017337
      23        0.000004772250     0.000003493230     0.000009263878

  **** Optimization is complete! (in 7 steps) ****
    Final optimized geometry and variables:
    Molecular point group: c1

    Geometry (in Angstrom), charge = 0, multiplicity = 1:

    O           -2.332863923264     1.989328607012     0.613036227868
    C           -2.179193830314     0.809900633349     0.610638885650
    C           -3.312237432916    -0.183904678287     0.605680167583
    O           -0.992220239129     0.226074955303     0.612744218656
    H           -3.926087850672    -0.007318433204    -0.269459822549
    H           -2.954707496311    -1.203057682379     0.603904154843
    H           -3.929704287303    -0.011875618018     1.479172373198
    C            0.157226295411     1.071235503413     0.615141746194
    C            1.385286894682     0.178969833677     0.585144446580
    H            0.108245236313     1.715381998402    -0.252617469643
    H            0.131253426256     1.689954072929     1.501620905549
    C            1.594586305011    -0.529271074847    -0.755187435383
    H            1.292812151382    -0.561200640298     1.375024845947
    H            2.253239511596     0.791740115167     0.816965649708
    C            2.823437492063    -1.440114931197    -0.763101246429
    H            0.709990531121    -1.113372259546    -0.993657119921
    H            1.694851424323     0.215882869788    -1.542833485845
    C            3.033094005721    -2.145672555706    -2.102348099118
    H            2.724623432173    -2.183905505945     0.024597241594
    H            3.708524823871    -0.855300523465    -0.521066821606
    H            2.177716817817    -2.765027126620    -2.356795304353
    H            3.909190483648    -2.786122678066    -2.076521411008
    H            3.171458209977    -1.428150845070    -2.906161733123

  Mulliken Charges: (a.u.)
   Center  Symbol    Alpha    Beta     Spin     Total
       1     O     4.28396  4.28396  0.00000 -0.56791
       2     C     2.61467  2.61467  0.00000  0.77065
       3     C     3.28766  3.28766  0.00000 -0.57532
       4     O     4.31071  4.31071  0.00000 -0.62142
       5     H     0.39742  0.39742  0.00000  0.20517
       6     H     0.40029  0.40029  0.00000  0.19941
       7     H     0.39736  0.39736  0.00000  0.20529
       8     C     3.00393  3.00393  0.00000 -0.00786
       9     C     3.16603  3.16603  0.00000 -0.33205
      10     H     0.40975  0.40975  0.00000  0.18051
      11     H     0.40759  0.40759  0.00000  0.18483
      12     C     3.15501  3.15501  0.00000 -0.31001
      13     H     0.41309  0.41309  0.00000  0.17381
      14     H     0.41755  0.41755  0.00000  0.16491
      15     C     3.15228  3.15228  0.00000 -0.30457
      16     H     0.41382  0.41382  0.00000  0.17236
      17     H     0.42356  0.42356  0.00000  0.15287
      18     C     3.23937  3.23937  0.00000 -0.47873
      19     H     0.42191  0.42191  0.00000  0.15617
      20     H     0.42308  0.42308  0.00000  0.15384
      21     H     0.42108  0.42108  0.00000  0.15783
      22     H     0.41864  0.41864  0.00000  0.16272
      23     H     0.42124  0.42124  0.00000  0.15751

   Total alpha = 36.00000, Total beta = 36.00000, Total charge =  0.00000
