  ==> Input File <==

--------------------------------------------------------------------------
set {
	reference rhf
	basis 6-31G*
}

set_num_threads( 1 )
memory 2 gb

molecule MOL {
0 1

O	 -0.000843	 -0.268238	 -0.000482
C	 1.122059	 0.121804	 -0.000188
C	 1.548820	 1.569481	 -0.000482
O	 2.172624	 -0.688929	 0.000216
C	 0.377460	 2.546853	 -0.001586
H	 2.186421	 1.720146	 0.866420
H	 2.187599	 1.719521	 -0.866626
C	 0.837399	 4.005558	 -0.002211
H	 -0.247416	 2.358323	 0.865876
H	 -0.246545	 2.357357	 -0.869464
C	 -0.329930	 4.991632	 -0.004610
H	 1.462870	 4.189811	 0.868945
H	 1.465206	 4.188327	 -0.871996
H	 -0.957830	 4.857071	 0.871339
H	 0.023285	 6.018041	 -0.004713
H	 -0.955108	 4.855992	 -0.882332
C	 3.452279	 -0.082609	 0.000533
H	 3.583069	 0.529321	 -0.880332
H	 4.163299	 -0.894027	 0.001117
H	 3.582335	 0.529955	 0.881077

	symmetry c1
}
set optking {
	frozen_dihedral = ("
		9 5 8 12,
		1 2 3 6,
		9 5 3 6
	")
}

ee = energy('scf')
oeprop('DIPOLE', 'QUADRUPOLE', 'MULLIKEN_CHARGES')
f=open( 'psi4out.xyz', 'w' )
f.write( "20  " )
f.write( str(ee) + "\n" )
f.write( MOL.save_string_xyz() )
f.close()
--------------------------------------------------------------------------

    Molecular point group: c1

    Geometry (in Angstrom), charge = 0, multiplicity = 1:

       Center              X                  Y                   Z               Mass
    ------------   -----------------  -----------------  -----------------  -----------------
           O         -1.165595509667    -1.777548793582     0.000617495509    15.994914619560
           C         -0.042693509667    -1.387506793582     0.000911495509    12.000000000000
           C          0.384067490333     0.060170206418     0.000617495509    12.000000000000
           O          1.007871490333    -2.198239793582     0.001315495509    15.994914619560
           C         -0.787292509667     1.037542206418    -0.000486504491    12.000000000000
           H          1.021668490333     0.210835206418     0.867519495509     1.007825032070
           H          1.022846490333     0.210210206418    -0.865526504491     1.007825032070
           C         -0.327353509667     2.496247206418    -0.001111504491    12.000000000000
           H         -1.412168509667     0.849012206418     0.866975495509     1.007825032070
           H         -1.411297509667     0.848046206418    -0.868364504491     1.007825032070
           C         -1.494682509667     3.482321206418    -0.003510504491    12.000000000000
           H          0.298117490333     2.680500206418     0.870044495509     1.007825032070
           H          0.300453490333     2.679016206418    -0.870896504491     1.007825032070
           H         -2.122582509667     3.347760206418     0.872438495509     1.007825032070
           H         -1.141467509667     4.508730206418    -0.003613504491     1.007825032070
           H         -2.119860509667     3.346681206418    -0.881232504491     1.007825032070
           C          2.287526490333    -1.591919793582     0.001632495509    12.000000000000
           H          2.418316490333    -0.979989793582    -0.879232504491     1.007825032070
           H          2.998546490333    -2.403337793582     0.002216495509     1.007825032070
           H          2.417582490333    -0.979355793582     0.882176495509     1.007825032070

  Charge       = 0
  Multiplicity = 1
  Basis Set: 6-31G*
  Basis Set:

    Orbital Energies (a.u.)
    -----------------------

    Doubly Occupied:

       1A    -20.609173     2A    -20.542584     3A    -11.374909
       4A    -11.297695     5A    -11.242730     6A    -11.224750
       7A    -11.223323     8A    -11.213891     9A     -1.469137
      10A     -1.368940    11A     -1.093215    12A     -1.019640
      13A     -0.989676    14A     -0.908387    15A     -0.813616
      16A     -0.762770    17A     -0.704517    18A     -0.703795
      19A     -0.677069    20A     -0.647599    21A     -0.604568
      22A     -0.590007    23A     -0.584958    24A     -0.559669
      25A     -0.549579    26A     -0.527750    27A     -0.513842
      28A     -0.482038    29A     -0.476830    30A     -0.474520
      31A     -0.448872    32A     -0.428533

  @DF-RHF Final Energy:  -383.91341631401224

   => Energetics <=

    Nuclear Repulsion Energy =            387.1608208340808233
    One-Electron Energy =               -1289.8914230743389453
    Two-Electron Energy =                 518.8171859262464523
    DFT Exchange-Correlation Energy =       0.0000000000000000
    Empirical Dispersion Energy =           0.0000000000000000
    PCM Polarization Energy =               0.0000000000000000
    EFP Energy =                            0.0000000000000000
    Total Energy =                       -383.9134163140116698

  Mulliken Charges: (a.u.)
   Center  Symbol    Alpha    Beta     Spin     Total
       1     O     4.27400  4.27400  0.00000 -0.54800
       2     C     2.58646  2.58646  0.00000  0.82708
       3     C     3.24848  3.24848  0.00000 -0.49697
       4     O     4.30112  4.30112  0.00000 -0.60225
       5     C     3.14483  3.14483  0.00000 -0.28965
       6     H     0.40257  0.40257  0.00000  0.19485
       7     H     0.40258  0.40258  0.00000  0.19483
       8     C     3.15417  3.15417  0.00000 -0.30834
       9     H     0.41002  0.41002  0.00000  0.17996
      10     H     0.41002  0.41002  0.00000  0.17995
      11     C     3.23958  3.23958  0.00000 -0.47916
      12     H     0.42427  0.42427  0.00000  0.15147
      13     H     0.42428  0.42428  0.00000  0.15145
      14     H     0.41912  0.41912  0.00000  0.16175
      15     H     0.41853  0.41853  0.00000  0.16294
      16     H     0.41913  0.41913  0.00000  0.16175
      17     C     3.09940  3.09940  0.00000 -0.19880
      18     H     0.41373  0.41373  0.00000  0.17253
      19     H     0.39396  0.39396  0.00000  0.21209
      20     H     0.41374  0.41374  0.00000  0.17252

   Total alpha = 32.00000, Total beta = 32.00000, Total charge = -0.00000
