                              Psi4 1.0.54 Driver

  ==> Input File <==

--------------------------------------------------------------------------
set {
	reference rhf
	basis cc-pvtz
}

set_num_threads( 4 )
memory 2 gb

molecule MOL {
0 1

H	 -3.436473	 1.252944	 -1.023892
O	 -3.458596	 0.315260	 -0.960865
C	 -3.176635	 -0.080824	 0.355601
C	 -1.763371	 0.265266	 0.799691
H	 -3.321825	 -1.153438	 0.379502
H	 -3.895468	 0.357385	 1.043382
C	 -0.673390	 -0.426948	 -0.013392
H	 -1.631049	 1.344913	 0.747560
H	 -1.664587	 -0.001624	 1.849167
C	 0.035917	 -1.538382	 0.755742
H	 0.052000	 0.310260	 -0.339347
H	 -1.115085	 -0.839716	 -0.917292
C	 1.122164	 -2.230438	 -0.065339
H	 0.465067	 -1.121195	 1.661653
H	 -0.694385	 -2.278273	 1.076801
C	 1.807631	 -3.405421	 0.634232
H	 1.873350	 -1.499089	 -0.354645
H	 0.680562	 -2.591230	 -0.990237
C	 2.640663	 -3.023407	 1.855406
H	 2.452355	 -3.903058	 -0.083726
H	 1.057726	 -4.136754	 0.924431
H	 3.395874	 -2.288044	 1.596612
H	 3.150505	 -3.890601	 2.259482
H	 2.031343	 -2.606451	 2.648174

	symmetry c1
}
set optking {
	frozen_dihedral = ("
		11 7 4 3
	")
}

ee,wfn = optimize('scf', return_wfn=True)
oeprop( wfn, 'DIPOLE', 'QUADRUPOLE', 'MULLIKEN_CHARGES')
f=open( 'psi4out.xyz', 'w' )
f.write( "24  " )
f.write( str(ee) + "\n" )
f.write( MOL.save_string_xyz() )
f.close()
--------------------------------------------------------------------------

    Molecular point group: c1
  Charge       = 0
  Multiplicity = 1
  Basis Set: CC-PVTZ
  Basis Set:
  @DF-RHF Final Energy:  -349.37578052230066
    Total Energy =                       -349.3757805223006017
    Molecular point group: c1
  Basis Set: CC-PVTZ
  Basis Set:
  Basis Set: CC-PVTZ
  Basis Set:
  @DF-RHF Final Energy:  -349.37599322189465
    Total Energy =                       -349.3759932218948734
  Basis Set: CC-PVTZ
  Basis Set:
  Basis Set: CC-PVTZ
  Basis Set:
  @DF-RHF Final Energy:  -349.37605143815966
    Total Energy =                       -349.3760514381596067
  Basis Set: CC-PVTZ
  Basis Set:
  Charge       = 0
  Multiplicity = 1
  Basis Set: CC-PVTZ
  Basis Set:

    Orbital Energies (a.u.)
    -----------------------

    Doubly Occupied:

       1A    -20.546575     2A    -11.265688     3A    -11.215044
       4A    -11.211736     5A    -11.210267     6A    -11.208961
       7A    -11.208576     8A    -11.205029     9A     -1.364761
      10A     -1.088764    11A     -1.047767    12A     -0.985692
      13A     -0.915455    14A     -0.854443    15A     -0.800312
      16A     -0.776923    17A     -0.680512    18A     -0.648570
      19A     -0.635064    20A     -0.614242    21A     -0.607324
      22A     -0.577308    23A     -0.554354    24A     -0.546012
      25A     -0.522365    26A     -0.509424    27A     -0.493243
      28A     -0.479228    29A     -0.469143    30A     -0.460334
      31A     -0.452523    32A     -0.442725    33A     -0.424728

  @DF-RHF Final Energy:  -349.37605195496064

   => Energetics <=

    Nuclear Repulsion Energy =            386.6104167007505339
    One-Electron Energy =               -1239.9267457229370848
    Two-Electron Energy =                 503.9402770672256793
    DFT Exchange-Correlation Energy =       0.0000000000000000
    Empirical Dispersion Energy =           0.0000000000000000
    PCM Polarization Energy =               0.0000000000000000
    EFP Energy =                            0.0000000000000000
    Total Energy =                       -349.3760519549608716
    Molecular point group: c1
  Basis Set: CC-PVTZ
  Basis Set:

  -Total Gradient:
     Atom            X                  Y                   Z
    ------   -----------------  -----------------  -----------------
       1        0.000015508265    -0.000049112542     0.000039513420
       2        0.000071829604    -0.000099432766    -0.000049737084
       3       -0.000035178885     0.001465101416    -0.001102017576
       4       -0.000382227792    -0.001788781580     0.001130930733
       5       -0.000024688781     0.000023070944    -0.000041346273
       6        0.000055024339    -0.000021326872     0.000011301198
       7        0.001505596795     0.000081024636     0.001917288289
       8        0.000010064441    -0.000120885761    -0.000030097467
       9        0.000057976247    -0.000015706292    -0.000030862160
      10        0.000064514560     0.000007518153     0.000126957256
      11       -0.001222964567     0.000357815675    -0.001985270281
      12       -0.000036534920     0.000112865554     0.000028685790
      13       -0.000056781249     0.000069713558    -0.000028797839
      14       -0.000022413569     0.000001443264    -0.000078325967
      15        0.000016833270     0.000004635905     0.000034929879
      16       -0.000073073821    -0.000026550215     0.000047136756
      17       -0.000011445427     0.000005549451     0.000034815019
      18        0.000032392421     0.000017458035    -0.000009285174
      19        0.000010816025     0.000003745266     0.000006601329
      20       -0.000035575644     0.000009249886     0.000008721084
      21        0.000015321716     0.000007412369     0.000014371437
      22       -0.000007253728     0.000000322560     0.000009134313
      23        0.000000472174     0.000005969071    -0.000020313186
      24        0.000051788522    -0.000051099716    -0.000034333501

  **** Optimization is complete! (in 4 steps) ****
    Final optimized geometry and variables:
    Molecular point group: c1

    Geometry (in Angstrom), charge = 0, multiplicity = 1:

    H           -2.926072922601     2.449892905490    -1.463501074602
    O           -2.966201602902     1.513719640406    -1.387827381232
    C           -2.708014760876     1.131601029392    -0.063209259458
    C           -1.309069167664     1.506768503641     0.403701509814
    H           -2.838012436492     0.056777474887    -0.036496657808
    H           -3.448066214679     1.562613568601     0.606401323031
    C           -0.183217737114     0.829484896867    -0.398775746162
    H           -1.213186995790     2.588076264757     0.343866236183
    H           -1.222888622235     1.259727624275     1.457828143850
    C            0.530094063883    -0.282022890030     0.367535008182
    H            0.540206962144     1.571752816997    -0.720341378206
    H           -0.601326432337     0.424562564379    -1.313680320158
    C            1.600670691194    -0.985629396601    -0.463191853876
    H            0.970898501180     0.136473631517     1.266998179291
    H           -0.202412948936    -1.015258731908     0.699719651883
    C            2.284722411294    -2.164062198035     0.232205578882
    H            2.354793594155    -0.261425871867    -0.763486823353
    H            1.145128330372    -1.345144480321    -1.381558871858
    C            3.141921101386    -1.784864742319     1.437422104288
    H            2.912134475586    -2.672683107423    -0.493277738692
    H            1.531795541441    -2.885615483937     0.538407104961
    H            3.899426758387    -1.057631997362     1.162840306249
    H            3.650566066682    -2.655130396726     1.836333064833
    H            2.550295116487    -1.359049380059     2.238747000732

  Mulliken Charges: (a.u.)
   Center  Symbol    Alpha    Beta     Spin     Total
       1     H     0.39534  0.39534  0.00000  0.20931
       2     O     4.20314  4.20314  0.00000 -0.40628
       3     C     2.97546  2.97546  0.00000  0.04907
       4     C     3.11053  3.11053  0.00000 -0.22106
       5     H     0.45856  0.45856  0.00000  0.08288
       6     H     0.46042  0.46042  0.00000  0.07917
       7     C     3.10058  3.10058  0.00000 -0.20115
       8     H     0.45159  0.45159  0.00000  0.09682
       9     H     0.45284  0.45284  0.00000  0.09432
      10     C     3.09153  3.09153  0.00000 -0.18307
      11     H     0.44931  0.44931  0.00000  0.10138
      12     H     0.44245  0.44245  0.00000  0.11510
      13     C     3.09585  3.09585  0.00000 -0.19169
      14     H     0.45267  0.45267  0.00000  0.09467
      15     H     0.45546  0.45546  0.00000  0.08907
      16     C     3.08996  3.08996  0.00000 -0.17993
      17     H     0.45439  0.45439  0.00000  0.09123
      18     H     0.44805  0.44805  0.00000  0.10391
      19     C     3.15226  3.15226  0.00000 -0.30452
      20     H     0.44862  0.44862  0.00000  0.10276
      21     H     0.45498  0.45498  0.00000  0.09004
      22     H     0.45512  0.45512  0.00000  0.08975
      23     H     0.44665  0.44665  0.00000  0.10669
      24     H     0.45424  0.45424  0.00000  0.09152

   Total alpha = 33.00000, Total beta = 33.00000, Total charge = -0.00000

*** Psi4 exiting successfully. Buy a developer a beer!
