                              Psi4 1.0.54 Driver

  ==> Input File <==

--------------------------------------------------------------------------
set {
	reference rhf
	basis cc-pvtz
}

set_num_threads( 4 )
memory 2 gb

molecule MOL {
0 1

H	 3.287094	 -0.467332	 -0.034615
C	 2.230769	 -0.277401	 -0.026401
C	 1.667068	 0.435430	 1.021190
C	 1.441463	 -0.743936	 -1.058320
H	 2.287027	 0.794731	 1.819530
C	 0.312387	 0.681263	 1.035571
H	 1.880250	 -1.294964	 -1.867214
C	 0.081105	 -0.496252	 -1.042478
H	 -0.141749	 1.230175	 1.836266
C	 -0.486398	 0.214248	 0.000000
H	 -0.539109	 -0.856407	 -1.842352
C	 -1.946525	 0.470130	 0.000000
O	 -2.779618	 -0.371226	 0.000000
H	 -2.227127	 1.528393	 0.000000

	symmetry c1
}
set optking {
	frozen_dihedral = ("
		8 10 12 14
	")
}

ee,wfn = optimize('scf', return_wfn=True)
oeprop( wfn, 'DIPOLE', 'QUADRUPOLE', 'MULLIKEN_CHARGES')
f=open( 'psi4out.xyz', 'w' )
f.write( "14  " )
f.write( str(ee) + "\n" )
f.write( MOL.save_string_xyz() )
f.close()
--------------------------------------------------------------------------

    Molecular point group: c1
  Charge       = 0
  Multiplicity = 1
  Basis Set: CC-PVTZ
  Basis Set:
  @DF-RHF Final Energy:  -343.54015604856960
    Total Energy =                       -343.5401560485696564
    Molecular point group: c1
  Basis Set: CC-PVTZ
  Basis Set:
  Basis Set: CC-PVTZ
  Basis Set:
  @DF-RHF Final Energy:  -343.53832446826164
    Total Energy =                       -343.5383244682616350
  Basis Set: CC-PVTZ
  Basis Set:
  Basis Set: CC-PVTZ
  Basis Set:
  @DF-RHF Final Energy:  -343.54058039464945
    Total Energy =                       -343.5405803946494530
  Basis Set: CC-PVTZ
  Basis Set:
  Basis Set: CC-PVTZ
  Basis Set:
  @DF-RHF Final Energy:  -343.54109669202234
    Total Energy =                       -343.5410966920225064
  Basis Set: CC-PVTZ
  Basis Set:
  Basis Set: CC-PVTZ
  Basis Set:
  @DF-RHF Final Energy:  -343.54110847542825
    Total Energy =                       -343.5411084754282456
  Basis Set: CC-PVTZ
  Basis Set:
  Charge       = 0
  Multiplicity = 1
  Basis Set: CC-PVTZ
  Basis Set:

    Orbital Energies (a.u.)
    -----------------------

    Doubly Occupied:

       1A    -20.560136     2A    -11.330831     3A    -11.249896
       4A    -11.247956     5A    -11.245748     6A    -11.244588
       7A    -11.242975     8A    -11.241818     9A     -1.414766
      10A     -1.175686    11A     -1.050145    12A     -1.034380
      13A     -0.891068    14A     -0.846162    15A     -0.796975
      16A     -0.725721    17A     -0.681544    18A     -0.657491
      19A     -0.639138    20A     -0.621343    21A     -0.605074
      22A     -0.545929    23A     -0.531595    24A     -0.514669
      25A     -0.507193    26A     -0.426384    27A     -0.352955
      28A     -0.352176

  @DF-RHF Final Energy:  -343.54110923067805

   => Energetics <=

    Nuclear Repulsion Energy =            323.3410182648411251
    One-Electron Energy =               -1106.2955743621887450
    Two-Electron Energy =                 439.4134468666692328
    DFT Exchange-Correlation Energy =       0.0000000000000000
    Empirical Dispersion Energy =           0.0000000000000000
    PCM Polarization Energy =               0.0000000000000000
    EFP Energy =                            0.0000000000000000
    Total Energy =                       -343.5411092306784440
    Molecular point group: c1
  Basis Set: CC-PVTZ
  Basis Set:

  -Total Gradient:
     Atom            X                  Y                   Z
    ------   -----------------  -----------------  -----------------
       1        0.000003413126     0.000004586986     0.000015790605
       2       -0.000018664317    -0.000096290895    -0.000177308726
       3       -0.000178270197     0.000069394057     0.000089070567
       4        0.000199286120     0.000056268670     0.000083340713
       5        0.000012405624    -0.000007487912    -0.000008929681
       6        0.000176733439    -0.000070527727     0.000099399839
       7       -0.000008161889    -0.000003682884    -0.000002036614
       8        0.000933011507     0.004784857923    -0.002371620457
       9       -0.000012067759    -0.000000333813     0.000016234987
      10       -0.001495030359    -0.006822184950     0.001226826043
      11        0.000004364232    -0.000010878243     0.000008453827
      12        0.000366100407     0.001834597503     0.007773900069
      13       -0.000126145774    -0.000122999830    -0.000025195099
      14        0.000143025840     0.000384681115    -0.006727926070

  **** Optimization is complete! (in 6 steps) ****
    Final optimized geometry and variables:
    Molecular point group: c1

    Geometry (in Angstrom), charge = 0, multiplicity = 1:

    H            3.297106891219    -0.464177274009    -0.004121141161
    C            2.240435942572    -0.277455249553     0.008398167413
    C            1.674494741702     0.415879710752     1.062727761544
    C            1.447963135037    -0.722137789897    -1.032946357817
    H            2.289685144254     0.766042748794     1.868954982151
    C            0.317527036245     0.670019948375     1.069569721571
    H            1.888676586566    -1.248875792071    -1.857247145950
    C            0.085983926856    -0.490308562246    -1.014514577680
    H           -0.118168002620     1.229622172381     1.876817086507
    C           -0.484563590318     0.191205805885     0.046664419116
    H           -0.536428495135    -0.844091703130    -1.813299315114
    C           -1.942518935508     0.512982528342     0.021984658549
    O           -2.797182964526    -0.289335697083    -0.130277123580
    H           -2.188286640407     1.579179387834     0.068965438279

  Mulliken Charges: (a.u.)
   Center  Symbol    Alpha    Beta     Spin     Total
       1     H     0.42044  0.42044  0.00000  0.15912
       2     C     3.07993  3.07993  0.00000 -0.15986
       3     C     3.06586  3.06586  0.00000 -0.13172
       4     C     3.06511  3.06511  0.00000 -0.13022
       5     H     0.42070  0.42070  0.00000  0.15861
       6     C     3.09709  3.09709  0.00000 -0.19419
       7     H     0.42061  0.42061  0.00000  0.15877
       8     C     3.09576  3.09576  0.00000 -0.19152
       9     H     0.42387  0.42387  0.00000  0.15225
      10     C     2.94908  2.94908  0.00000  0.10184
      11     H     0.41511  0.41511  0.00000  0.16977
      12     C     2.92542  2.92542  0.00000  0.14916
      13     O     4.16234  4.16234  0.00000 -0.32468
      14     H     0.45867  0.45867  0.00000  0.08266

   Total alpha = 28.00000, Total beta = 28.00000, Total charge = -0.00000

*** Psi4 exiting successfully. Buy a developer a beer!
