  ==> Input File <==

--------------------------------------------------------------------------
set {
	reference rhf
	basis 6-31G*
}

set_num_threads( 1 )
memory 2 gb

molecule MOL {
0 1

O	 0.749854	 1.307668	 -0.000040
C	 0.576249	 0.131685	 -0.000108
C	 -0.766779	 -0.556801	 -0.000461
O	 1.568443	 -0.749345	 -0.000005
C	 -1.945214	 0.412366	 0.000161
H	 -0.796911	 -1.211249	 -0.867467
H	 -0.796854	 -1.212390	 0.865687
C	 -3.287791	 -0.317055	 0.000105
H	 -1.876087	 1.060580	 -0.866812
H	 -1.875822	 1.059691	 0.867761
H	 -3.394745	 -0.949193	 -0.877058
H	 -4.111778	 0.388953	 0.000015
H	 -3.394954	 -0.949187	 0.877259
C	 2.335392	 -0.853404	 1.185815
H	 2.810330	 0.089674	 1.415113
H	 3.079896	 -1.609264	 0.990227
H	 1.711537	 -1.148412	 2.017251

	symmetry c1
}
set optking {
	frozen_dihedral = ("
		1 2 3 6,
		9 5 3 6
	")
}

ee = energy('scf')
oeprop('DIPOLE', 'QUADRUPOLE', 'MULLIKEN_CHARGES')
f=open( 'psi4out.xyz', 'w' )
f.write( "17  " )
f.write( str(ee) + "\n" )
f.write( MOL.save_string_xyz() )
f.close()
--------------------------------------------------------------------------

    Molecular point group: c1

    Geometry (in Angstrom), charge = 0, multiplicity = 1:

       Center              X                  Y                   Z               Mass
    ------------   -----------------  -----------------  -----------------  -----------------
           O          0.834991213300     1.403525967616    -0.183074719703    15.994914619560
           C          0.661386213300     0.227542967616    -0.183142719703    12.000000000000
           C         -0.681641786700    -0.460943032384    -0.183495719703    12.000000000000
           O          1.653580213300    -0.653487032384    -0.183039719703    15.994914619560
           C         -1.860076786700     0.508223967616    -0.182873719703    12.000000000000
           H         -0.711773786700    -1.115391032384    -1.050501719703     1.007825032070
           H         -0.711716786700    -1.116532032384     0.682652280297     1.007825032070
           C         -3.202653786700    -0.221197032384    -0.182929719703    12.000000000000
           H         -1.790949786700     1.156437967616    -1.049846719703     1.007825032070
           H         -1.790684786700     1.155548967616     0.684726280297     1.007825032070
           H         -3.309607786700    -0.853335032384    -1.060092719703     1.007825032070
           H         -4.026640786700     0.484810967616    -0.183019719703     1.007825032070
           H         -3.309816786700    -0.853329032384     0.694224280297     1.007825032070
           C          2.420529213300    -0.757546032384     1.002780280297    12.000000000000
           H          2.895467213300     0.185531967616     1.232078280297     1.007825032070
           H          3.165033213300    -1.513406032384     0.807192280297     1.007825032070
           H          1.796674213300    -1.052554032384     1.834216280297     1.007825032070

  Charge       = 0
  Multiplicity = 1
  Basis Set: 6-31G*
  Basis Set:

    Orbital Energies (a.u.)
    -----------------------

    Doubly Occupied:

       1A    -20.588689     2A    -20.553742     3A    -11.373819
       4A    -11.292234     5A    -11.236989     6A    -11.222199
       7A    -11.215265     8A     -1.465070     9A     -1.366101
      10A     -1.080011    11A     -0.997699    12A     -0.949429
      13A     -0.831390    14A     -0.768345    15A     -0.699296
      16A     -0.681214    17A     -0.674443    18A     -0.634019
      19A     -0.613897    20A     -0.577286    21A     -0.566076
      22A     -0.538920    23A     -0.518122    24A     -0.493330
      25A     -0.490069    26A     -0.479982    27A     -0.454053
      28A     -0.434450

  @DF-RHF Final Energy:  -344.88902159465050

   => Energetics <=

    Nuclear Repulsion Energy =            313.0656037040433262
    One-Electron Energy =               -1090.3169111854674611
    Two-Electron Energy =                 432.3622858867736909
    DFT Exchange-Correlation Energy =       0.0000000000000000
    Empirical Dispersion Energy =           0.0000000000000000
    PCM Polarization Energy =               0.0000000000000000
    EFP Energy =                            0.0000000000000000
    Total Energy =                       -344.8890215946505009

  Mulliken Charges: (a.u.)
   Center  Symbol    Alpha    Beta     Spin     Total
       1     O     4.26431  4.26431  0.00000 -0.52862
       2     C     2.61200  2.61200  0.00000  0.77600
       3     C     3.20846  3.20846  0.00000 -0.41692
       4     O     4.31107  4.31107  0.00000 -0.62214
       5     C     3.15300  3.15300  0.00000 -0.30600
       6     H     0.39910  0.39910  0.00000  0.20179
       7     H     0.40736  0.40736  0.00000  0.18528
       8     C     3.24249  3.24249  0.00000 -0.48498
       9     H     0.40982  0.40982  0.00000  0.18037
      10     H     0.41225  0.41225  0.00000  0.17550
      11     H     0.42103  0.42103  0.00000  0.15794
      12     H     0.41513  0.41513  0.00000  0.16975
      13     H     0.42237  0.42237  0.00000  0.15526
      14     C     3.09386  3.09386  0.00000 -0.18772
      15     H     0.40444  0.40444  0.00000  0.19112
      16     H     0.40303  0.40303  0.00000  0.19394
      17     H     0.42028  0.42028  0.00000  0.15943

   Total alpha = 28.00000, Total beta = 28.00000, Total charge = -0.00000
