  ==> Input File <==

--------------------------------------------------------------------------
set {
	reference rhf
	basis 6-31G*
}

set_num_threads( 1 )
memory 2 gb

molecule MOL {
0 1

O	 1.068020	 -0.817486	 -1.914512
C	 1.452327	 -0.974344	 -0.800616
C	 1.245376	 -0.013843	 0.345420
O	 2.132542	 -2.045633	 -0.411670
C	 0.455112	 1.231400	 -0.050772
H	 0.759099	 -0.568109	 1.141357
H	 2.228430	 0.251429	 0.726117
C	 -0.998893	 1.219485	 0.433193
H	 0.482531	 1.345121	 -1.130325
H	 0.957290	 2.103070	 0.354729
C	 -1.883438	 0.145884	 -0.207175
H	 -1.431207	 2.195402	 0.224832
H	 -1.019646	 1.105716	 1.516076
C	 -3.347647	 0.245583	 0.225435
H	 -1.822183	 0.231698	 -1.291012
H	 -1.510341	 -0.844814	 0.042401
C	 -4.239992	 -0.825570	 -0.404234
H	 -3.732888	 1.230466	 -0.033079
H	 -3.408585	 0.170602	 1.310038
C	 -5.701275	 -0.716658	 0.029921
H	 -4.179496	 -0.752714	 -1.488058
H	 -3.859041	 -1.810759	 -0.143352
H	 -6.308102	 -1.488908	 -0.432678
H	 -6.122175	 0.245478	 -0.248167
H	 -5.799072	 -0.820114	 1.106957
C	 2.398266	 -3.029756	 -1.394410
H	 1.476118	 -3.425535	 -1.795042
H	 2.951569	 -3.807416	 -0.891311
H	 2.985748	 -2.613521	 -2.200108

	symmetry c1
}
set optking {
	frozen_dihedral = ("
		21 17 14 11,
		17 14 11 15,
		15 11 8 5,
		11 8 5 9,
		2 4 26 27,
		1 2 4 26,
		6 3 2 1
	")
}

ee = energy('scf')
oeprop('DIPOLE', 'QUADRUPOLE', 'MULLIKEN_CHARGES')
f=open( 'psi4out.xyz', 'w' )
f.write( "29  " )
f.write( str(ee) + "\n" )
f.write( MOL.save_string_xyz() )
f.close()
--------------------------------------------------------------------------

    Molecular point group: c1

    Geometry (in Angstrom), charge = 0, multiplicity = 1:

       Center              X                  Y                   Z               Mass
    ------------   -----------------  -----------------  -----------------  -----------------
           O          1.724535440835    -0.275410077175    -1.520269445069    15.994914619560
           C          2.108842440835    -0.432268077175    -0.406373445069    12.000000000000
           C          1.901891440835     0.528232922825     0.739662554931    12.000000000000
           O          2.789057440835    -1.503557077175    -0.017427445069    15.994914619560
           C          1.111627440835     1.773475922825     0.343470554931    12.000000000000
           H          1.415614440835    -0.026033077175     1.535599554931     1.007825032070
           H          2.884945440835     0.793504922825     1.120359554931     1.007825032070
           C         -0.342377559165     1.761560922825     0.827435554931    12.000000000000
           H          1.139046440835     1.887196922825    -0.736082445069     1.007825032070
           H          1.613805440835     2.645145922825     0.748971554931     1.007825032070
           C         -1.226922559165     0.687959922825     0.187067554931    12.000000000000
           H         -0.774691559165     2.737477922825     0.619074554931     1.007825032070
           H         -0.363130559165     1.647791922825     1.910318554931     1.007825032070
           C         -2.691131559165     0.787658922825     0.619677554931    12.000000000000
           H         -1.165667559165     0.773773922825    -0.896769445069     1.007825032070
           H         -0.853825559165    -0.302738077175     0.436643554931     1.007825032070
           C         -3.583476559165    -0.283494077175    -0.009991445069    12.000000000000
           H         -3.076372559165     1.772541922825     0.361163554931     1.007825032070
           H         -2.752069559165     0.712677922825     1.704280554931     1.007825032070
           C         -5.044759559165    -0.174582077175     0.424163554931    12.000000000000
           H         -3.522980559165    -0.210638077175    -1.093815445069     1.007825032070
           H         -3.202525559165    -1.268683077175     0.250890554931     1.007825032070
           H         -5.651586559165    -0.946832077175    -0.038435445069     1.007825032070
           H         -5.465659559165     0.787553922825     0.146075554931     1.007825032070
           H         -5.142556559165    -0.278038077175     1.501199554931     1.007825032070
           C          3.054781440835    -2.487680077175    -1.000167445069    12.000000000000
           H          2.132633440835    -2.883459077175    -1.400799445069     1.007825032070
           H          3.608084440835    -3.265340077175    -0.497068445069     1.007825032070
           H          3.642263440835    -2.071445077175    -1.805865445069     1.007825032070

  Charge       = 0
  Multiplicity = 1
  Basis Set: 6-31G*
  Basis Set:

    Orbital Energies (a.u.)
    -----------------------

    Doubly Occupied:

       1A    -20.604260     2A    -20.546404     3A    -11.372551
       4A    -11.281168     5A    -11.233978     6A    -11.215822
       7A    -11.214151     8A    -11.211807     9A    -11.210218
      10A    -11.209292    11A    -11.205992    12A     -1.470002
      13A     -1.363795    14A     -1.095040    15A     -1.064148
      16A     -1.016608    17A     -0.976118    18A     -0.926263
      19A     -0.859690    20A     -0.797868    21A     -0.785656
      22A     -0.762553    23A     -0.703185    24A     -0.682175
      25A     -0.673394    26A     -0.647001    27A     -0.622321
      28A     -0.608215    29A     -0.590978    30A     -0.578349
      31A     -0.564208    32A     -0.545297    33A     -0.535708
      34A     -0.528376    35A     -0.515776    36A     -0.501070
      37A     -0.495801    38A     -0.475325    39A     -0.467096
      40A     -0.458866    41A     -0.457102    42A     -0.453822
      43A     -0.439629    44A     -0.433092

  @DF-RHF Final Energy:  -501.04065751962025

   => Energetics <=

    Nuclear Repulsion Energy =            631.0565527247626960
    One-Electron Energy =               -1933.3943206392693810
    Two-Electron Energy =                 801.2971103948842710
    DFT Exchange-Correlation Energy =       0.0000000000000000
    Empirical Dispersion Energy =           0.0000000000000000
    PCM Polarization Energy =               0.0000000000000000
    EFP Energy =                            0.0000000000000000
    Total Energy =                       -501.0406575196224139

  Mulliken Charges: (a.u.)
   Center  Symbol    Alpha    Beta     Spin     Total
       1     O     4.28578  4.28578  0.00000 -0.57156
       2     C     2.60919  2.60919  0.00000  0.78162
       3     C     3.20985  3.20985  0.00000 -0.41970
       4     O     4.30616  4.30616  0.00000 -0.61231
       5     C     3.16332  3.16332  0.00000 -0.32664
       6     H     0.39813  0.39813  0.00000  0.20375
       7     H     0.39721  0.39721  0.00000  0.20558
       8     C     3.15603  3.15603  0.00000 -0.31207
       9     H     0.39627  0.39627  0.00000  0.20746
      10     H     0.41810  0.41810  0.00000  0.16380
      11     C     3.15387  3.15387  0.00000 -0.30773
      12     H     0.42072  0.42072  0.00000  0.15855
      13     H     0.42537  0.42537  0.00000  0.14927
      14     C     3.15069  3.15069  0.00000 -0.30137
      15     H     0.41363  0.41363  0.00000  0.17274
      16     H     0.42705  0.42705  0.00000  0.14591
      17     C     3.15114  3.15114  0.00000 -0.30229
      18     H     0.42408  0.42408  0.00000  0.15184
      19     H     0.42578  0.42578  0.00000  0.14843
      20     C     3.23920  3.23920  0.00000 -0.47840
      21     H     0.42156  0.42156  0.00000  0.15689
      22     H     0.42381  0.42381  0.00000  0.15238
      23     H     0.41969  0.41969  0.00000  0.16062
      24     H     0.42194  0.42194  0.00000  0.15612
      25     H     0.42252  0.42252  0.00000  0.15496
      26     C     3.09234  3.09234  0.00000 -0.18468
      27     H     0.40906  0.40906  0.00000  0.18188
      28     H     0.40845  0.40845  0.00000  0.18310
      29     H     0.40908  0.40908  0.00000  0.18185

   Total alpha = 44.00000, Total beta = 44.00000, Total charge =  0.00000
