                              Psi4 1.0.54 Driver

  ==> Input File <==

--------------------------------------------------------------------------
set {
	reference rhf
	basis cc-pvtz
}

set_num_threads( 4 )
memory 2 gb

molecule MOL {
0 1

O	 0.015198	 0.669742	 0.965633
C	 0.485107	 0.171416	 -0.000134
C	 1.606966	 -0.836201	 0.000174
O	 0.078655	 0.439206	 -1.228821
C	 2.988788	 -0.202529	 -0.000115
H	 1.465110	 -1.474645	 -0.864821
H	 1.465209	 -1.474077	 0.865596
H	 3.131767	 0.419673	 -0.873407
H	 3.750876	 -0.972315	 0.000098
H	 3.131883	 0.420264	 0.872742
C	 -0.978038	 1.375292	 -1.388289
C	 -1.255794	 1.510507	 -2.867159
H	 -0.682409	 2.319049	 -0.952088
H	 -1.847181	 1.021420	 -0.851924
H	 -0.378408	 1.864424	 -3.393759
H	 -2.059612	 2.219919	 -3.024779
H	 -1.549876	 0.559442	 -3.293027

	symmetry c1
}
set optking {
	frozen_dihedral = ("
		4 2 3 6
	")
}

ee,wfn = optimize('scf', return_wfn=True)
oeprop( wfn, 'DIPOLE', 'QUADRUPOLE', 'MULLIKEN_CHARGES')
f=open( 'psi4out.xyz', 'w' )
f.write( "17  " )
f.write( str(ee) + "\n" )
f.write( MOL.save_string_xyz() )
f.close()
--------------------------------------------------------------------------

    Molecular point group: c1
  Charge       = 0
  Multiplicity = 1
  Basis Set: CC-PVTZ
  Basis Set:
  @DF-RHF Final Energy:  -345.03825105197052
    Total Energy =                       -345.0382510519706329
    Molecular point group: c1
  Basis Set: CC-PVTZ
  Basis Set:
  Basis Set: CC-PVTZ
  Basis Set:
  @DF-RHF Final Energy:  -345.03471178948774
    Total Energy =                       -345.0347117894881990
  Basis Set: CC-PVTZ
  Basis Set:
  Basis Set: CC-PVTZ
  Basis Set:
  @DF-RHF Final Energy:  -345.03885768402085
    Total Energy =                       -345.0388576840211385
  Basis Set: CC-PVTZ
  Basis Set:
  Basis Set: CC-PVTZ
  Basis Set:
  @DF-RHF Final Energy:  -345.03283287828356
    Total Energy =                       -345.0328328782834433
  Basis Set: CC-PVTZ
  Basis Set:
  @DF-RHF Final Energy:  -345.03622340557422
    Total Energy =                       -345.0362234055745034
  Basis Set: CC-PVTZ
  Basis Set:
  @DF-RHF Final Energy:  -345.03892436158395
    Total Energy =                       -345.0389243615840087
  Basis Set: CC-PVTZ
  Basis Set:
  Basis Set: CC-PVTZ
  Basis Set:
  @DF-RHF Final Energy:  -345.03900353594383
    Total Energy =                       -345.0390035359436069
  Basis Set: CC-PVTZ
  Basis Set:
  Basis Set: CC-PVTZ
  Basis Set:
  @DF-RHF Final Energy:  -345.03900907685261
    Total Energy =                       -345.0390090768525511
  Basis Set: CC-PVTZ
  Basis Set:
  Charge       = 0
  Multiplicity = 1
  Basis Set: CC-PVTZ
  Basis Set:

    Orbital Energies (a.u.)
    -----------------------

    Doubly Occupied:

       1A    -20.595012     2A    -20.530558     3A    -11.362555
       4A    -11.282599     5A    -11.234360     6A    -11.224537
       7A    -11.220610     8A     -1.470301     9A     -1.363518
      10A     -1.073078    11A     -1.032494    12A     -0.909337
      13A     -0.854298    14A     -0.779255    15A     -0.696627
      16A     -0.685802    17A     -0.670379    18A     -0.616589
      19A     -0.602043    20A     -0.575714    21A     -0.554534
      22A     -0.539639    23A     -0.527254    24A     -0.509216
      25A     -0.503750    26A     -0.497640    27A     -0.454972
      28A     -0.434828

  @DF-RHF Final Energy:  -345.03900981265525

   => Energetics <=

    Nuclear Repulsion Energy =            316.7883431849922431
    One-Electron Energy =               -1098.0517043087484126
    Two-Electron Energy =                 436.2243513111012021
    DFT Exchange-Correlation Energy =       0.0000000000000000
    Empirical Dispersion Energy =           0.0000000000000000
    PCM Polarization Energy =               0.0000000000000000
    EFP Energy =                            0.0000000000000000
    Total Energy =                       -345.0390098126549105
    Molecular point group: c1
  Basis Set: CC-PVTZ
  Basis Set:

  -Total Gradient:
     Atom            X                  Y                   Z
    ------   -----------------  -----------------  -----------------
       1        0.000011251247    -0.000000092159     0.000004499220
       2        0.000199664042     0.000318123921    -0.000250124963
       3       -0.000162610141    -0.000259217059     0.000430563607
       4       -0.000126731119    -0.000199141138     0.000129179515
       5       -0.000004524098    -0.000009810656    -0.000001098004
       6        0.000090964909     0.000168417364    -0.000307927821
       7       -0.000000767983     0.000000914944    -0.000003210775
       8        0.000003459991     0.000002788710     0.000000205830
       9        0.000006698399    -0.000000145544     0.000000111308
      10        0.000000260187    -0.000002104532    -0.000004094206
      11       -0.000009400697    -0.000018064691     0.000001062707
      12        0.000001864561     0.000011023172    -0.000005076222
      13        0.000003792082    -0.000034841651    -0.000007956312
      14       -0.000015892792     0.000013210265     0.000014962163
      15       -0.000002676313    -0.000002752240    -0.000004879575
      16       -0.000002634804     0.000000083333    -0.000003266487
      17        0.000007282526     0.000011607960     0.000007050014

  **** Optimization is complete! (in 9 steps) ****
    Final optimized geometry and variables:
    Molecular point group: c1

    Geometry (in Angstrom), charge = 0, multiplicity = 1:

    O            0.128110760431     0.655686840973     1.538251844011
    C            0.323099605703    -0.096704197673     0.644078173207
    C            1.543632665073    -0.972802177150     0.524165393247
    O           -0.498418541027    -0.237642914674    -0.380914865254
    C            2.680655180940    -0.226150635138    -0.179136319144
    H            1.290170780547    -1.867622461066    -0.027137438120
    H            1.843696274361    -1.247563031403     1.525387008779
    H            2.397195842781     0.056616539702    -1.185673941934
    H            3.557742756106    -0.857380005124    -0.242769048054
    H            2.946874618872     0.670112774360     0.366395562722
    C           -1.664975489107     0.573208200875    -0.410482732947
    C           -2.432955943222     0.232417717941    -1.666078556095
    H           -1.371714902370     1.613396010391    -0.394060619138
    H           -2.250029438074     0.381083705524     0.477682455942
    H           -1.836668351985     0.427664611720    -2.548555216333
    H           -3.331764735771     0.835301888393    -1.719641868448
    H           -2.720045464356    -0.811554257909    -1.671275630734

  Mulliken Charges: (a.u.)
   Center  Symbol    Alpha    Beta     Spin     Total
       1     O     4.20380  4.20380  0.00000 -0.40759
       2     C     2.80368  2.80368  0.00000  0.39265
       3     C     3.08339  3.08339  0.00000 -0.16679
       4     O     4.15378  4.15378  0.00000 -0.30756
       5     C     3.15058  3.15058  0.00000 -0.30117
       6     H     0.44463  0.44463  0.00000  0.11074
       7     H     0.44019  0.44019  0.00000  0.11961
       8     H     0.45037  0.45037  0.00000  0.09927
       9     H     0.44788  0.44788  0.00000  0.10423
      10     H     0.44484  0.44484  0.00000  0.11032
      11     C     2.97919  2.97919  0.00000  0.04162
      12     C     3.13321  3.13321  0.00000 -0.26642
      13     H     0.45428  0.45428  0.00000  0.09145
      14     H     0.45295  0.45295  0.00000  0.09410
      15     H     0.45165  0.45165  0.00000  0.09670
      16     H     0.45429  0.45429  0.00000  0.09142
      17     H     0.45129  0.45129  0.00000  0.09742

   Total alpha = 28.00000, Total beta = 28.00000, Total charge = -0.00000

*** Psi4 exiting successfully. Buy a developer a beer!
