                              Psi4 1.0.54 Driver

  ==> Input File <==

--------------------------------------------------------------------------
set {
	reference rhf
	basis cc-pvtz
}

set_num_threads( 4 )
memory 2 gb

molecule MOL {
0 1

H	 1.420987	 0.106625	 -2.637255
C	 0.690964	 -0.080022	 -1.860396
C	 1.322304	 0.099773	 -0.484271
H	 -0.134123	 0.607507	 -2.008398
H	 0.315597	 -1.088387	 -1.993213
C	 0.308557	 -0.162619	 0.622645
H	 1.704950	 1.107283	 -0.378266
H	 2.156350	 -0.580708	 -0.364890
N	 -1.069352	 -0.004081	 0.085342
H	 0.371632	 -1.172932	 0.991288
H	 0.400391	 0.548875	 1.426218
O	 -1.584901	 -0.965470	 -0.377818
O	 -1.548033	 1.079343	 0.130056

	symmetry c1
}
set optking {
	frozen_dihedral = ("
		7 3 6 9
	")
}

ee,wfn = optimize('scf', return_wfn=True)
oeprop( wfn, 'DIPOLE', 'QUADRUPOLE', 'MULLIKEN_CHARGES')
f=open( 'psi4out.xyz', 'w' )
f.write( "13  " )
f.write( str(ee) + "\n" )
f.write( MOL.save_string_xyz() )
f.close()
--------------------------------------------------------------------------

    Molecular point group: c1
  Charge       = 0
  Multiplicity = 1
  Basis Set: CC-PVTZ
  Basis Set:
  @DF-RHF Final Energy:  -321.85152297547654
    Total Energy =                       -321.8515229754764846
    Molecular point group: c1
  Basis Set: CC-PVTZ
  Basis Set:
  Basis Set: CC-PVTZ
  Basis Set:
  @DF-RHF Final Energy:  -321.81678281069361
    Total Energy =                       -321.8167828106936099
  Basis Set: CC-PVTZ
  Basis Set:
  Basis Set: CC-PVTZ
  Basis Set:
  @DF-RHF Final Energy:  -321.80518870525560
    Total Energy =                       -321.8051887052556026
  Basis Set: CC-PVTZ
  Basis Set:
  Basis Set: CC-PVTZ
  Basis Set:
  @DF-RHF Final Energy:  -321.85153226351792
    Total Energy =                       -321.8515322635180382
  Basis Set: CC-PVTZ
  Basis Set:
  @DF-RHF Final Energy:  -321.85430369385500
    Total Energy =                       -321.8543036938549449
  @DF-RHF Final Energy:  -321.81595791930806
    Total Energy =                       -321.8159579193081754
  @DF-RHF Final Energy:  -321.85370346922798
    Total Energy =                       -321.8537034692278098
  @DF-RHF Final Energy:  -321.85549985251043
    Total Energy =                       -321.8554998525103770
  @DF-RHF Final Energy:  -321.85562271460981
    Total Energy =                       -321.8556227146096944
  @DF-RHF Final Energy:  -321.85582275886497
    Total Energy =                       -321.8558227588649174
  @DF-RHF Final Energy:  -321.85588032836068
    Total Energy =                       -321.8558803283603993
  @DF-RHF Final Energy:  -321.85592558471171
    Total Energy =                       -321.8559255847116560
  @DF-RHF Final Energy:  -321.85596276578559
    Total Energy =                       -321.8559627657854776
  Basis Set: CC-PVTZ
  Basis Set:
  @DF-RHF Final Energy:  -321.85599410705362
    Total Energy =                       -321.8559941070537320
  Basis Set: CC-PVTZ
  Basis Set:
  Basis Set: CC-PVTZ
  Basis Set:
  @DF-RHF Final Energy:  -321.85604441680414
    Total Energy =                       -321.8560444168043659
  Basis Set: CC-PVTZ
  Basis Set:
  Basis Set: CC-PVTZ
  Basis Set:
  @DF-RHF Final Energy:  -321.85605805206842
    Total Energy =                       -321.8560580520684198
  Basis Set: CC-PVTZ
  Basis Set:
  Charge       = 0
  Multiplicity = 1
  Basis Set: CC-PVTZ
  Basis Set:

    Orbital Energies (a.u.)
    -----------------------

    Doubly Occupied:

       1A    -20.592565     2A    -20.588903     3A    -15.836677
       4A    -11.297452     5A    -11.254736     6A    -11.227955
       7A     -1.636258     8A     -1.420397     9A     -1.129755
      10A     -1.021929    11A     -0.896701    12A     -0.822625
      13A     -0.755175    14A     -0.739097    15A     -0.729263
      16A     -0.664636    17A     -0.608568    18A     -0.590061
      19A     -0.538348    20A     -0.518901    21A     -0.509955
      22A     -0.482142    23A     -0.475417    24A     -0.453943

  @DF-RHF Final Energy:  -321.85605845904183

   => Energetics <=

    Nuclear Repulsion Energy =            254.7832378653853311
    One-Electron Energy =                -943.6956725221350553
    Two-Electron Energy =                 367.0563761977080048
    DFT Exchange-Correlation Energy =       0.0000000000000000
    Empirical Dispersion Energy =           0.0000000000000000
    PCM Polarization Energy =               0.0000000000000000
    EFP Energy =                            0.0000000000000000
    Total Energy =                       -321.8560584590417193
    Molecular point group: c1
  Basis Set: CC-PVTZ
  Basis Set:

  -Total Gradient:
     Atom            X                  Y                   Z
    ------   -----------------  -----------------  -----------------
       1        0.000006642341    -0.000002854002    -0.000005305520
       2       -0.000013865180    -0.000000591319     0.000028006426
       3       -0.005627454992     0.003454227775     0.002738723000
       4        0.000008749163    -0.000006269951     0.000004091453
       5       -0.000001472470    -0.000001354377    -0.000005698246
       6        0.004684412820     0.002840421895     0.002066499642
       7        0.003757094476    -0.003574218132    -0.002835292318
       8       -0.000015328920    -0.000000222962     0.000011151421
       9       -0.002805544435    -0.002723365558    -0.001947450977
      10        0.000010835330    -0.000002028734    -0.000016007660
      11       -0.000001237367     0.000011004397    -0.000012768285
      12       -0.000002830774     0.000002473826    -0.000012109576
      13        0.000000000006     0.000002777142    -0.000013839359

  **** Optimization is complete! (in 17 steps) ****
    Final optimized geometry and variables:
    Molecular point group: c1

    Geometry (in Angstrom), charge = 0, multiplicity = 1:

    H           -0.425226009475     1.485101942519    -2.649029537885
    C           -0.498036860461     0.915790781382    -1.731397068585
    C            0.852658592700     0.280490562053    -1.420043053013
    H           -0.813708596921     1.590684378496    -0.946808742198
    H           -1.267712053746     0.165430964074    -1.862394576382
    C            0.904036103731    -0.643255603511    -0.190024353352
    H            1.629044887591     1.029003366848    -1.334813617789
    H            1.149289204488    -0.338723687409    -2.259469783050
    N           -0.126689589177    -0.279566415752     0.819803064533
    H            0.683869614861    -1.663168145782    -0.452527109195
    H            1.851640572787    -0.579342960772     0.317283074958
    O           -1.104425702808    -0.945636236725     0.870785346819
    O            0.094166207582     0.669065714045     1.497308914938

  Mulliken Charges: (a.u.)
   Center  Symbol    Alpha    Beta     Spin     Total
       1     H     0.44566  0.44566  0.00000  0.10868
       2     C     3.15159  3.15159  0.00000 -0.30319
       3     C     3.09328  3.09328  0.00000 -0.18657
       4     H     0.44259  0.44259  0.00000  0.11482
       5     H     0.44483  0.44483  0.00000  0.11035
       6     C     3.04245  3.04245  0.00000 -0.08489
       7     H     0.44279  0.44279  0.00000  0.11443
       8     H     0.44802  0.44802  0.00000  0.10396
       9     N     3.27770  3.27770  0.00000  0.44461
      10     H     0.43389  0.43389  0.00000  0.13221
      11     H     0.43031  0.43031  0.00000  0.13939
      12     O     4.17230  4.17230  0.00000 -0.34459
      13     O     4.17460  4.17460  0.00000 -0.34920

   Total alpha = 24.00000, Total beta = 24.00000, Total charge = -0.00000

*** Psi4 exiting successfully. Buy a developer a beer!
