                              Psi4 1.0.54 Driver

  ==> Input File <==

--------------------------------------------------------------------------
set {
	reference rhf
	basis cc-pvtz
}

set_num_threads( 4 )
memory 2 gb

molecule MOL {
0 1

O	 -0.907227	 1.858143	 2.175259
C	 -0.690399	 1.946373	 1.010513
C	 0.564299	 1.352262	 0.401570
C	 -1.656135	 2.634284	 0.075152
C	 0.376695	 -0.140025	 0.100361
H	 1.367611	 1.480444	 1.115973
H	 0.828358	 1.881748	 -0.507705
C	 1.630207	 -0.772146	 -0.501001
H	 0.103643	 -0.640516	 1.020785
H	 -0.454905	 -0.273415	 -0.587351
C	 2.907848	 -0.545876	 0.309149
H	 1.772784	 -0.391628	 -1.509394
H	 1.468529	 -1.842059	 -0.599744
C	 3.373802	 0.906639	 0.372125
H	 3.699140	 -1.146831	 -0.127906
H	 2.764321	 -0.923458	 1.318191
H	 3.519798	 1.311927	 -0.623875
H	 4.316899	 0.983758	 0.900700
H	 2.661122	 1.540651	 0.885346
H	 -1.200252	 3.543993	 -0.302470
H	 -2.568933	 2.878416	 0.596466
H	 -1.873300	 2.005707	 -0.781189

	symmetry c1
}
set optking {
	frozen_dihedral = ("
		3 5 8 12
	")
}

ee,wfn = optimize('scf', return_wfn=True)
oeprop( wfn, 'DIPOLE', 'QUADRUPOLE', 'MULLIKEN_CHARGES')
f=open( 'psi4out.xyz', 'w' )
f.write( "22  " )
f.write( str(ee) + "\n" )
f.write( MOL.save_string_xyz() )
f.close()
--------------------------------------------------------------------------

    Molecular point group: c1
  Charge       = 0
  Multiplicity = 1
  Basis Set: CC-PVTZ
  Basis Set:
  @DF-RHF Final Energy:  -348.19360330865544
    Total Energy =                       -348.1936033086554971
    Molecular point group: c1
  Basis Set: CC-PVTZ
  Basis Set:
  Basis Set: CC-PVTZ
  Basis Set:
  @DF-RHF Final Energy:  -348.21174432187416
    Total Energy =                       -348.2117443218742778
  Basis Set: CC-PVTZ
  Basis Set:
  Basis Set: CC-PVTZ
  Basis Set:
  @DF-RHF Final Energy:  -348.21612419238721
    Total Energy =                       -348.2161241923872694
  Basis Set: CC-PVTZ
  Basis Set:
  Basis Set: CC-PVTZ
  Basis Set:
  @DF-RHF Final Energy:  -348.21705439207125
    Total Energy =                       -348.2170543920711907
  Basis Set: CC-PVTZ
  Basis Set:
  @DF-RHF Final Energy:  -348.21757380467056
    Total Energy =                       -348.2175738046699394
  @DF-RHF Final Energy:  -348.21772870100386
    Total Energy =                       -348.2177287010032387
  @DF-RHF Final Energy:  -348.21816830604166
    Total Energy =                       -348.2181683060415480
  @DF-RHF Final Energy:  -348.21833923041055
    Total Energy =                       -348.2183392304106064
  @DF-RHF Final Energy:  -348.21849346251304
    Total Energy =                       -348.2184934625129245
  @DF-RHF Final Energy:  -348.21854885591142
    Total Energy =                       -348.2185488559115925
  Basis Set: CC-PVTZ
  Basis Set:
  @DF-RHF Final Energy:  -348.21853896072497
    Total Energy =                       -348.2185389607251409
  Basis Set: CC-PVTZ
  Basis Set:
  Basis Set: CC-PVTZ
  Basis Set:
  @DF-RHF Final Energy:  -348.21858173421242
    Total Energy =                       -348.2185817342128189
  Basis Set: CC-PVTZ
  Basis Set:
  Basis Set: CC-PVTZ
  Basis Set:
  @DF-RHF Final Energy:  -348.21858502005415
    Total Energy =                       -348.2185850200540926
  Basis Set: CC-PVTZ
  Basis Set:
  Charge       = 0
  Multiplicity = 1
  Basis Set: CC-PVTZ
  Basis Set:

    Orbital Energies (a.u.)
    -----------------------

    Doubly Occupied:

       1A    -20.536821     2A    -11.319218     3A    -11.229128
       4A    -11.227209     5A    -11.226874     6A    -11.221112
       7A    -11.219248     8A    -11.211031     9A     -1.396979
      10A     -1.096118    11A     -1.043184    12A     -0.999911
      13A     -0.946039    14A     -0.856354    15A     -0.786118
      16A     -0.736388    17A     -0.657951    18A     -0.656775
      19A     -0.622187    20A     -0.610782    21A     -0.600694
      22A     -0.594065    23A     -0.558473    24A     -0.551375
      25A     -0.535224    26A     -0.525049    27A     -0.500186
      28A     -0.490385    29A     -0.470045    30A     -0.464458
      31A     -0.456569    32A     -0.398505

  @DF-RHF Final Energy:  -348.21858581370066

   => Energetics <=

    Nuclear Repulsion Energy =            379.3691571467140875
    One-Electron Energy =               -1223.6865759588658875
    Two-Electron Energy =                 496.0988329984510301
    DFT Exchange-Correlation Energy =       0.0000000000000000
    Empirical Dispersion Energy =           0.0000000000000000
    PCM Polarization Energy =               0.0000000000000000
    EFP Energy =                            0.0000000000000000
    Total Energy =                       -348.2185858137007699
    Molecular point group: c1
  Basis Set: CC-PVTZ
  Basis Set:

  -Total Gradient:
     Atom            X                  Y                   Z
    ------   -----------------  -----------------  -----------------
       1        0.000007687075     0.000009558300    -0.000094860136
       2       -0.000009043014    -0.000017395505     0.000043299926
       3        0.000579390464    -0.000200923494     0.001502562610
       4       -0.000011906092     0.000009346515     0.000025631380
       5       -0.001018019394    -0.000147350151    -0.002309736792
       6       -0.000028082169    -0.000017908872    -0.000025989064
       7       -0.000004316598    -0.000019432887     0.000029310176
       8        0.001535506413     0.002175754850     0.001493995515
       9       -0.000016508032     0.000014575975    -0.000000301587
      10        0.000001562425     0.000009902878    -0.000000822365
      11       -0.000033579541     0.000033469792     0.000014588920
      12       -0.001023328549    -0.001810182517    -0.000690621626
      13       -0.000006226541     0.000003417572     0.000009828810
      14       -0.000016677861     0.000001196278    -0.000006306562
      15        0.000008410121    -0.000004859176    -0.000007233158
      16       -0.000011902449    -0.000006429231     0.000020016279
      17        0.000012684907     0.000007675314    -0.000038190352
      18        0.000000422448    -0.000011550640     0.000001290939
      19        0.000010686550    -0.000015722993     0.000012812916
      20       -0.000006951081    -0.000021708254     0.000010980552
      21        0.000022932486     0.000000079008    -0.000015426770
      22        0.000007258435     0.000008487238     0.000025170387

  **** Optimization is complete! (in 14 steps) ****
    Final optimized geometry and variables:
    Molecular point group: c1

    Geometry (in Angstrom), charge = 0, multiplicity = 1:

    O           -1.917410907888     0.859169678502     1.624568909391
    C           -1.635743395249     0.917374693259     0.471954420291
    C           -0.260408482140     0.509585363997    -0.018081694328
    C           -2.631102634256     1.384192565215    -0.563502233487
    C           -0.204995493082    -1.006151271812    -0.251568433512
    H            0.449802317880     0.796398971731     0.743953161360
    H           -0.018116746464     1.038404003974    -0.933975434779
    C            1.114065119554    -1.548198449640    -0.811483541332
    H           -0.415032862138    -1.494542734640     0.694041769646
    H           -1.002710461763    -1.296163248557    -0.929382871085
    C            2.385116319251    -1.227825894730    -0.009912077691
    H            1.233190979896    -1.227653561597    -1.843500004937
    H            1.002519090852    -2.626792472186    -0.859067336366
    C            3.129285117957     0.032293066866    -0.449269707603
    H            3.068316372058    -2.065101300409    -0.104077402345
    H            2.141329868748    -1.161975671096     1.046648634443
    H            3.435126103546    -0.046220809817    -1.487300008711
    H            4.023627149427     0.175892783218     0.146387388140
    H            2.525777860188     0.925393291260    -0.352513052348
    H           -2.309793652394     2.343193530267    -0.957302388117
    H           -3.608980958514     1.487813756281    -0.119117447699
    H           -2.672278154572     0.693003598884    -1.397566156589

  Mulliken Charges: (a.u.)
   Center  Symbol    Alpha    Beta     Spin     Total
       1     O     4.17723  4.17723  0.00000 -0.35445
       2     C     2.85845  2.85845  0.00000  0.28309
       3     C     3.10714  3.10714  0.00000 -0.21427
       4     C     3.15559  3.15559  0.00000 -0.31118
       5     C     3.10613  3.10613  0.00000 -0.21225
       6     H     0.43586  0.43586  0.00000  0.12829
       7     H     0.44678  0.44678  0.00000  0.10644
       8     C     3.09933  3.09933  0.00000 -0.19866
       9     H     0.44044  0.44044  0.00000  0.11912
      10     H     0.44551  0.44551  0.00000  0.10897
      11     C     3.10144  3.10144  0.00000 -0.20288
      12     H     0.45343  0.45343  0.00000  0.09314
      13     H     0.44302  0.44302  0.00000  0.11396
      14     C     3.14835  3.14835  0.00000 -0.29670
      15     H     0.44397  0.44397  0.00000  0.11206
      16     H     0.44812  0.44812  0.00000  0.10376
      17     H     0.45440  0.45440  0.00000  0.09120
      18     H     0.44637  0.44637  0.00000  0.10727
      19     H     0.45373  0.45373  0.00000  0.09253
      20     H     0.44821  0.44821  0.00000  0.10357
      21     H     0.43580  0.43580  0.00000  0.12839
      22     H     0.45070  0.45070  0.00000  0.09859

   Total alpha = 32.00000, Total beta = 32.00000, Total charge = -0.00000

*** Psi4 exiting successfully. Buy a developer a beer!
