  ==> Input File <==

--------------------------------------------------------------------------
set {
	reference rhf
	basis 6-31G*
}

set_num_threads( 4 )
memory 2 gb

molecule MOL {
0 1

H	 -2.646374	 -0.642757	 1.268656
C	 -2.083525	 -0.384536	 0.393091
O	 -0.807605	 -0.127164	 0.768327
F	 -2.118945	 -1.383102	 -0.486752
F	 -2.621877	 0.670592	 -0.209486
C	 0.091243	 0.244859	 -0.214708
C	 1.353689	 -0.579400	 0.002058
Cl	 0.452248	 1.976172	 -0.117523
H	 -0.278324	 0.043563	 -1.204998
F	 2.255778	 -0.286967	 -0.910552
F	 1.051696	 -1.857043	 -0.115699
F	 1.874699	 -0.383607	 1.188729

	symmetry c1
}
set optking {
	frozen_dihedral = ("
		6 3 2 4
	")
}

ee = optimize('scf')
oeprop('DIPOLE', 'QUADRUPOLE', 'MULLIKEN_CHARGES')
f=open( 'psi4out.xyz', 'w' )
f.write( "12  " )
f.write( str(ee) + "\n" )
f.write( MOL.save_string_xyz() )
f.close()
--------------------------------------------------------------------------

    Molecular point group: c1
  Charge       = 0
  Multiplicity = 1
  Basis Set: 6-31G*
  Basis Set:
  @DF-RHF Final Energy: -1146.31437991060579
    Total Energy =                      -1146.3143799106055667
    Molecular point group: c1
  Basis Set: 6-31G*
  Basis Set:
  Charge       = 0
  Multiplicity = 1
  Basis Set: 6-31G*
  Basis Set:

    Orbital Energies (a.u.)
    -----------------------

    Doubly Occupied:

       1A   -104.843714     2A    -26.359859     3A    -26.358359
       4A    -26.357527     5A    -26.346429     6A    -26.346078
       7A    -20.649703     8A    -11.527367     9A    -11.489663
      10A    -11.400699    11A    -10.578436    12A     -8.047797
      13A     -8.044254    14A     -8.044162    15A     -1.760961
      16A     -1.717875    17A     -1.657442    18A     -1.655937
      19A     -1.638417    20A     -1.486054    21A     -1.179847
      22A     -1.051814    23A     -0.986611    24A     -0.919542
      25A     -0.859880    26A     -0.852285    27A     -0.845237
      28A     -0.823674    29A     -0.811137    30A     -0.789732
      31A     -0.727355    32A     -0.726051    33A     -0.706153
      34A     -0.701534    35A     -0.678164    36A     -0.674848
      37A     -0.658082    38A     -0.657176    39A     -0.645404
      40A     -0.634077    41A     -0.597465    42A     -0.580852
      43A     -0.524220    44A     -0.476695    45A     -0.468778

  @DF-RHF Final Energy: -1146.31438012456374

   => Energetics <=

    Nuclear Repulsion Energy =            738.0874036846300896
    One-Electron Energy =               -3059.0288729664525817
    Two-Electron Energy =                1174.6270891572587516
    DFT Exchange-Correlation Energy =       0.0000000000000000
    Empirical Dispersion Energy =           0.0000000000000000
    PCM Polarization Energy =               0.0000000000000000
    EFP Energy =                            0.0000000000000000
    Total Energy =                      -1146.3143801245639679
    Molecular point group: c1
  Basis Set: 6-31G*
  Basis Set:

  -Total Gradient:
     Atom            X                  Y                   Z
    ------   -----------------  -----------------  -----------------
       1       -0.000029048326     0.000031161053     0.000001879632
       2       -0.000115714415    -0.000469915414     0.000385901394
       3       -0.000095237660     0.000514384425    -0.000088211273
       4        0.000013853246     0.000259867259    -0.000268588136
       5        0.000113034125    -0.000086949019    -0.000000544461
       6        0.000083532985    -0.000241273756    -0.000051425575
       7       -0.000085210412     0.000129140097     0.000071098412
       8       -0.000024784037     0.000032616310    -0.000006669999
       9       -0.000024533134    -0.000002127116     0.000012241576
      10        0.000042535718    -0.000104518287     0.000002278518
      11        0.000099958972     0.000034376087     0.000012929362
      12        0.000021612930    -0.000096761660    -0.000070889452

  **** Optimization is complete! (in 2 steps) ****
    Final optimized geometry and variables:
    Molecular point group: c1

    Geometry (in Angstrom), charge = 0, multiplicity = 1:

    H           -2.650565915377    -0.621846501195     1.267382469239
    C           -2.087398077712    -0.364746277241     0.391761404953
    O           -0.811583269398    -0.106400549140     0.766656346984
    F           -2.122739566052    -1.363639649456    -0.487867504449
    F           -2.625183927009     0.689717456570    -0.212306539297
    C            0.087524938628     0.266019034950    -0.216020555789
    C            1.349831674556    -0.558830781957     0.000396967568
    CL           0.448732888351     1.997313011497    -0.118078329797
    H           -0.282465324804     0.065327626171    -1.206246503415
    F            2.251965556576    -0.267831867500    -0.912447893319
    F            1.047603332708    -1.836352551254    -0.116822328917
    F            1.871864443922    -0.363752528420     1.186829861556

  Mulliken Charges: (a.u.)
   Center  Symbol    Alpha    Beta     Spin     Total
       1     H     0.40110  0.40110  0.00000  0.19780
       2     C     2.56540  2.56540  0.00000  0.86919
       3     O     4.29839  4.29839  0.00000 -0.59678
       4     F     4.68639  4.68639  0.00000 -0.37279
       5     F     4.68424  4.68424  0.00000 -0.36848
       6     C     3.04694  3.04694  0.00000 -0.09388
       7     C     2.43355  2.43355  0.00000  1.13289
       8    CL     8.49917  8.49917  0.00000  0.00165
       9     H     0.36659  0.36659  0.00000  0.26682
      10     F     4.67389  4.67389  0.00000 -0.34777
      11     F     4.67590  4.67590  0.00000 -0.35180
      12     F     4.66843  4.66843  0.00000 -0.33687

   Total alpha = 45.00000, Total beta = 45.00000, Total charge = -0.00000
