  ==> Input File <==

--------------------------------------------------------------------------
set {
	reference rhf
	basis 6-31G*
}

set_num_threads( 4 )
memory 2 gb

molecule MOL {
0 1

H	 -2.139647	 -0.793389	 0.380079
O	 -1.422729	 -0.573567	 -0.196946
C	 -0.731407	 0.539437	 0.309156
C	 0.680193	 0.672443	 -0.251532
H	 -1.319765	 1.404033	 0.030086
H	 -0.700012	 0.506517	 1.397677
C	 1.599139	 -0.492137	 0.118598
H	 0.616402	 0.758534	 -1.332349
H	 1.107032	 1.602637	 0.117369
H	 1.239738	 -1.428634	 -0.297334
H	 2.601428	 -0.335055	 -0.265730
H	 1.674954	 -0.608418	 1.197020

	symmetry c1
}
set optking {
	frozen_dihedral = ("
		1 2 3 4
	")
}

ee = optimize('scf')
oeprop('DIPOLE', 'QUADRUPOLE', 'MULLIKEN_CHARGES')
f=open( 'psi4out.xyz', 'w' )
f.write( "12  " )
f.write( str(ee) + "\n" )
f.write( MOL.save_string_xyz() )
f.close()
--------------------------------------------------------------------------

    Molecular point group: c1
  Charge       = 0
  Multiplicity = 1
  Basis Set: 6-31G*
  Basis Set:
  @DF-RHF Final Energy:  -193.10843047519177
    Total Energy =                       -193.1084304751917102
    Molecular point group: c1
  Basis Set: 6-31G*
  Basis Set:
  Basis Set: 6-31G*
  Basis Set:
  @DF-RHF Final Energy:  -193.10984151530010
    Total Energy =                       -193.1098415153001326
  Basis Set: 6-31G*
  Basis Set:
  Basis Set: 6-31G*
  Basis Set:
  @DF-RHF Final Energy:  -193.11021006214193
    Total Energy =                       -193.1102100621420732
  Basis Set: 6-31G*
  Basis Set:
  Basis Set: 6-31G*
  Basis Set:
  @DF-RHF Final Energy:  -193.11021884969142
    Total Energy =                       -193.1102188496914209
  Basis Set: 6-31G*
  Basis Set:
  Charge       = 0
  Multiplicity = 1
  Basis Set: 6-31G*
  Basis Set:

    Orbital Energies (a.u.)
    -----------------------

    Doubly Occupied:

       1A    -20.553084     2A    -11.268337     3A    -11.214242
       4A    -11.203352     5A     -1.359791     6A     -1.046519
       7A     -0.918284     8A     -0.797906     9A     -0.705620
      10A     -0.641027    11A     -0.587428    12A     -0.580488
      13A     -0.529926    14A     -0.499184    15A     -0.483708
      16A     -0.464814    17A     -0.432582

  @DF-RHF Final Energy:  -193.11021978122264

   => Energetics <=

    Nuclear Repulsion Energy =            133.3021430656414452
    One-Electron Energy =                -526.2521442395141094
    Two-Electron Energy =                 199.8397813926500248
    DFT Exchange-Correlation Energy =       0.0000000000000000
    Empirical Dispersion Energy =           0.0000000000000000
    PCM Polarization Energy =               0.0000000000000000
    EFP Energy =                            0.0000000000000000
    Total Energy =                       -193.1102197812226677
    Molecular point group: c1
  Basis Set: 6-31G*
  Basis Set:

  -Total Gradient:
     Atom            X                  Y                   Z
    ------   -----------------  -----------------  -----------------
       1        0.000808839332    -0.000775405675     0.000682916923
       2       -0.000878415984     0.000789375268    -0.000603898100
       3       -0.000207669590     0.000420065971    -0.000700307435
       4        0.000267044944    -0.000464251650     0.000638262086
       5        0.000013718870    -0.000004449883    -0.000017230300
       6        0.000022656628     0.000016612119     0.000001928001
       7       -0.000013609483     0.000012529623    -0.000014733178
       8       -0.000011916548     0.000016077397    -0.000005654183
       9        0.000012481583    -0.000001414112     0.000005469067
      10       -0.000000978172    -0.000002841179    -0.000006314654
      11       -0.000010396255     0.000013321759     0.000009371428
      12       -0.000001755324    -0.000019619637     0.000010190344

  **** Optimization is complete! (in 5 steps) ****
    Final optimized geometry and variables:
    Molecular point group: c1

    Geometry (in Angstrom), charge = 0, multiplicity = 1:

    H           -2.071478590239    -0.856182662341     0.317013185025
    O           -1.346818432261    -0.589396111426    -0.229275677374
    C           -0.725975000237     0.546277039785     0.320013075461
    C            0.677542585669     0.663549097608    -0.250470151269
    H           -1.299964757666     1.440124660906     0.084208787595
    H           -0.674056569609     0.466462485189     1.404915397228
    C            1.582591729482    -0.506383875685     0.130391792041
    H            0.602736635624     0.735437565780    -1.331850541327
    H            1.109958041663     1.598527560281     0.098892951877
    H            1.172758469485    -1.442741939483    -0.227708744751
    H            2.573186998773    -0.384483290398    -0.296538422783
    H            1.694873517844    -0.578766876431     1.209250354211

  Mulliken Charges: (a.u.)
   Center  Symbol    Alpha    Beta     Spin     Total
       1     H     0.28019  0.28019  0.00000  0.43963
       2     O     4.37006  4.37006  0.00000 -0.74011
       3     C     2.99650  2.99650  0.00000  0.00700
       4     C     3.15864  3.15864  0.00000 -0.31729
       5     H     0.42775  0.42775  0.00000  0.14449
       6     H     0.43355  0.43355  0.00000  0.13290
       7     C     3.24193  3.24193  0.00000 -0.48386
       8     H     0.41401  0.41401  0.00000  0.17198
       9     H     0.42370  0.42370  0.00000  0.15261
      10     H     0.40706  0.40706  0.00000  0.18589
      11     H     0.42058  0.42058  0.00000  0.15884
      12     H     0.42604  0.42604  0.00000  0.14792

   Total alpha = 17.00000, Total beta = 17.00000, Total charge = -0.00000
