  ==> Input File <==

--------------------------------------------------------------------------
set {
	reference rhf
	basis 6-31G*
}

set_num_threads( 1 )
memory 2 gb

molecule MOL {
0 1

H	 -3.261111	 -0.295142	 1.469456
C	 -3.306842	 -0.277400	 0.373456
C	 -2.660244	 0.921717	 -0.272021
O	 -3.838538	 -1.161155	 -0.216482
C	 -3.416311	 1.397421	 -1.520350
H	 -2.580694	 1.708101	 0.469586
H	 -1.650650	 0.626787	 -0.555552
C	 -4.804678	 1.964680	 -1.213835
H	 -2.818157	 2.155975	 -2.016427
H	 -3.504292	 0.572460	 -2.225655
C	 -5.541758	 2.445249	 -2.465466
H	 -4.704905	 2.789891	 -0.511753
H	 -5.407766	 1.212050	 -0.709482
C	 -6.923265	 3.026670	 -2.153477
H	 -4.930323	 3.188843	 -2.970388
H	 -5.650623	 1.614224	 -3.161118
C	 -7.733697	 3.446003	 -3.385317
H	 -6.812309	 3.882025	 -1.488834
H	 -7.495757	 2.285348	 -1.599935
C	 -7.141127	 4.619909	 -4.166613
H	 -8.736114	 3.714469	 -3.061227
H	 -7.848781	 2.591336	 -4.048809
H	 -6.999580	 5.484736	 -3.523724
H	 -6.180070	 4.372675	 -4.605043
H	 -7.801155	 4.915645	 -4.976488

	symmetry c1
}
set optking {
	frozen_dihedral = ("
		6 3 5 8,
		3 5 8 12,
		12 8 11 14,
		8 11 14 18,
		20 17 14 18
	")
}

ee = energy('scf')
oeprop('DIPOLE', 'QUADRUPOLE', 'MULLIKEN_CHARGES')
f=open( 'psi4out.xyz', 'w' )
f.write( "25  " )
f.write( str(ee) + "\n" )
f.write( MOL.save_string_xyz() )
f.close()
--------------------------------------------------------------------------

    Molecular point group: c1

    Geometry (in Angstrom), charge = 0, multiplicity = 1:

       Center              X                  Y                   Z               Mass
    ------------   -----------------  -----------------  -----------------  -----------------
           H          1.787201531332    -2.114506968316     3.146661323373     1.007825032070
           C          1.741470531332    -2.096764968316     2.050661323373    12.000000000000
           C          2.388068531332    -0.897647968316     1.405184323373    12.000000000000
           O          1.209774531332    -2.980519968316     1.460723323373    15.994914619560
           C          1.632001531332    -0.421943968316     0.156855323373    12.000000000000
           H          2.467618531332    -0.111263968316     2.146791323373     1.007825032070
           H          3.397662531332    -1.192577968316     1.121653323373     1.007825032070
           C          0.243634531332     0.145315031684     0.463370323373    12.000000000000
           H          2.230155531332     0.336610031684    -0.339221676627     1.007825032070
           H          1.544020531332    -1.246904968316    -0.548449676627     1.007825032070
           C         -0.493445468668     0.625884031684    -0.788260676627    12.000000000000
           H          0.343407531332     0.970526031684     1.165452323373     1.007825032070
           H         -0.359453468668    -0.607314968316     0.967723323373     1.007825032070
           C         -1.874952468668     1.207305031684    -0.476271676627    12.000000000000
           H          0.117989531332     1.369478031684    -1.293182676627     1.007825032070
           H         -0.602310468668    -0.205140968316    -1.483912676627     1.007825032070
           C         -2.685384468668     1.626638031684    -1.708111676627    12.000000000000
           H         -1.763996468668     2.062660031684     0.188371323373     1.007825032070
           H         -2.447444468668     0.465983031684     0.077270323373     1.007825032070
           C         -2.092814468668     2.800544031684    -2.489407676627    12.000000000000
           H         -3.687801468668     1.895104031684    -1.384021676627     1.007825032070
           H         -2.800468468668     0.771971031684    -2.371603676627     1.007825032070
           H         -1.951267468668     3.665371031684    -1.846518676627     1.007825032070
           H         -1.131757468668     2.553310031684    -2.927837676627     1.007825032070
           H         -2.752842468668     3.096280031684    -3.299282676627     1.007825032070

  Charge       = 0
  Multiplicity = 1
  Basis Set: 6-31G*
  Basis Set:

    Orbital Energies (a.u.)
    -----------------------

    Doubly Occupied:

       1A    -20.563369     2A    -11.327727     3A    -11.235905
       4A    -11.224777     5A    -11.217424     6A    -11.214675
       7A    -11.214204     8A    -11.213164     9A    -11.207898
      10A     -1.404079    11A     -1.097187    12A     -1.064966
      13A     -1.010396    14A     -0.941526    15A     -0.876141
      16A     -0.820210    17A     -0.778268    18A     -0.764270
      19A     -0.686898    20A     -0.647098    21A     -0.630343
      22A     -0.625292    23A     -0.602682    24A     -0.591496
      25A     -0.568350    26A     -0.545757    27A     -0.531679
      28A     -0.522322    29A     -0.501118    30A     -0.494648
      31A     -0.485530    32A     -0.473049    33A     -0.460276
      34A     -0.454707    35A     -0.437044    36A     -0.410280

  @DF-RHF Final Energy:  -387.12144716178727

   => Energetics <=

    Nuclear Repulsion Energy =            443.4176990855725080
    One-Electron Energy =               -1403.3886015537707408
    Two-Electron Energy =                 572.8494553064124375
    DFT Exchange-Correlation Energy =       0.0000000000000000
    Empirical Dispersion Energy =           0.0000000000000000
    PCM Polarization Energy =               0.0000000000000000
    EFP Energy =                            0.0000000000000000
    Total Energy =                       -387.1214471617857953

  Mulliken Charges: (a.u.)
   Center  Symbol    Alpha    Beta     Spin     Total
       1     H     0.42786  0.42786  0.00000  0.14428
       2     C     2.83946  2.83946  0.00000  0.32108
       3     C     3.20885  3.20885  0.00000 -0.41770
       4     O     4.23837  4.23837  0.00000 -0.47674
       5     C     3.15478  3.15478  0.00000 -0.30956
       6     H     0.41350  0.41350  0.00000  0.17300
       7     H     0.39947  0.39947  0.00000  0.20105
       8     C     3.15765  3.15765  0.00000 -0.31529
       9     H     0.41872  0.41872  0.00000  0.16256
      10     H     0.40549  0.40549  0.00000  0.18902
      11     C     3.15430  3.15430  0.00000 -0.30860
      12     H     0.42579  0.42579  0.00000  0.14841
      13     H     0.41494  0.41494  0.00000  0.17012
      14     C     3.15299  3.15299  0.00000 -0.30598
      15     H     0.42225  0.42225  0.00000  0.15549
      16     H     0.42043  0.42043  0.00000  0.15913
      17     C     3.15258  3.15258  0.00000 -0.30517
      18     H     0.42511  0.42511  0.00000  0.14979
      19     H     0.42080  0.42080  0.00000  0.15839
      20     C     3.24116  3.24116  0.00000 -0.48232
      21     H     0.42096  0.42096  0.00000  0.15807
      22     H     0.42236  0.42236  0.00000  0.15527
      23     H     0.42279  0.42279  0.00000  0.15443
      24     H     0.42023  0.42023  0.00000  0.15955
      25     H     0.41915  0.41915  0.00000  0.16170

   Total alpha = 36.00000, Total beta = 36.00000, Total charge = -0.00000
