                              Psi4 1.0.54 Driver

  ==> Input File <==

--------------------------------------------------------------------------
set {
	reference rhf
	basis cc-pvtz
}

set_num_threads( 4 )
memory 2 gb

molecule MOL {
0 1

H	 -3.162190	 0.493205	 -0.000107
C	 -2.363908	 -0.234727	 0.000005
O	 -1.158738	 0.454634	 -0.000087
H	 -2.464314	 -0.863616	 -0.882153
H	 -2.464327	 -0.863359	 0.882345
C	 -0.028611	 -0.359694	 0.000037
C	 1.212847	 0.509314	 -0.000053
H	 -0.034155	 -1.007047	 -0.877198
H	 -0.034195	 -1.006836	 0.877430
C	 2.476720	 -0.280779	 0.320463
H	 1.303890	 0.981496	 -0.972000
H	 1.076895	 1.305907	 0.723071
H	 2.645184	 -1.068889	 -0.405890
H	 3.347223	 0.363579	 0.313562
H	 2.416800	 -0.742057	 1.300616

	symmetry c1
}
set optking {
	frozen_dihedral = ("
		11 7 6 8
	")
}

ee,wfn = optimize('scf', return_wfn=True)
oeprop( wfn, 'DIPOLE', 'QUADRUPOLE', 'MULLIKEN_CHARGES')
f=open( 'psi4out.xyz', 'w' )
f.write( "15  " )
f.write( str(ee) + "\n" )
f.write( MOL.save_string_xyz() )
f.close()
--------------------------------------------------------------------------

    Molecular point group: c1
  Charge       = 0
  Multiplicity = 1
  Basis Set: CC-PVTZ
  Basis Set:
  @DF-RHF Final Energy:  -232.22753214323842
    Total Energy =                       -232.2275321432384203
    Molecular point group: c1
  Basis Set: CC-PVTZ
  Basis Set:
  Basis Set: CC-PVTZ
  Basis Set:
  @DF-RHF Final Energy:  -232.22761918880610
    Total Energy =                       -232.2276191888058179
  Basis Set: CC-PVTZ
  Basis Set:
  Basis Set: CC-PVTZ
  Basis Set:
  @DF-RHF Final Energy:  -232.22764356900075
    Total Energy =                       -232.2276435690005769
  Basis Set: CC-PVTZ
  Basis Set:
  Charge       = 0
  Multiplicity = 1
  Basis Set: CC-PVTZ
  Basis Set:

    Orbital Energies (a.u.)
    -----------------------

    Doubly Occupied:

       1A    -20.547159     2A    -11.264537     3A    -11.261590
       4A    -11.212897     5A    -11.210569     6A     -1.381271
       7A     -1.058162     8A     -0.955860     9A     -0.877080
      10A     -0.809383    11A     -0.677447    12A     -0.655255
      13A     -0.632361    14A     -0.608143    15A     -0.565323
      16A     -0.541908    17A     -0.502029    18A     -0.489941
      19A     -0.479298    20A     -0.462764    21A     -0.416711

  @DF-RHF Final Energy:  -232.22764393642993

   => Energetics <=

    Nuclear Repulsion Energy =            189.9836699570489316
    One-Electron Energy =                -691.2032491766867679
    Two-Electron Energy =                 268.9919352832079653
    DFT Exchange-Correlation Energy =       0.0000000000000000
    Empirical Dispersion Energy =           0.0000000000000000
    PCM Polarization Energy =               0.0000000000000000
    EFP Energy =                            0.0000000000000000
    Total Energy =                       -232.2276439364298426
    Molecular point group: c1
  Basis Set: CC-PVTZ
  Basis Set:

  -Total Gradient:
     Atom            X                  Y                   Z
    ------   -----------------  -----------------  -----------------
       1        0.000001221862    -0.000006553184     0.000001637973
       2       -0.000075470278    -0.000016535328    -0.000019422109
       3        0.000066124819    -0.000053282844    -0.000015722424
       4       -0.000004773710     0.000002919106     0.000010063454
       5        0.000009545782     0.000010046752    -0.000007442857
       6        0.001824063135    -0.002575120742     0.001510900666
       7       -0.001954356282     0.002858939213     0.000666615202
       8       -0.001271182518     0.001787693318    -0.001320985072
       9        0.000013443904    -0.000025657045     0.000002561493
      10        0.000004717455     0.000030672170     0.000017139970
      11        0.001378999047    -0.001970184352    -0.000831845748
      12       -0.000006026223    -0.000025848572    -0.000006849785
      13        0.000003760963     0.000008525477     0.000006221954
      14        0.000000793269    -0.000019153244     0.000003422099
      15        0.000009138772    -0.000006460723    -0.000016294815

  **** Optimization is complete! (in 4 steps) ****
    Final optimized geometry and variables:
    Molecular point group: c1

    Geometry (in Angstrom), charge = 0, multiplicity = 1:

    H           -3.159693231454     0.485119322485    -0.099315277701
    C           -2.360515288689    -0.241922149575    -0.090362984858
    O           -1.156254466507     0.447804260075    -0.059942798576
    H           -2.443234276142    -0.862860244132    -0.980077514625
    H           -2.478040171528    -0.879214759088     0.783807747363
    C           -0.024620640287    -0.366741068818    -0.038104038973
    C            1.215660411887     0.506710745461    -0.052086303884
    H           -0.032898759198    -1.019478623591    -0.910844766494
    H           -0.036556777194    -0.997878588340     0.850217804010
    C            2.485393808734    -0.287205506507     0.240294661546
    H            1.303607210655     0.974905392020    -1.026321844160
    H            1.090011380441     1.296566949482     0.678866688569
    H            2.623217178579    -1.090575023080    -0.476309260634
    H            3.360180206935     0.349593969499     0.189710347878
    H            2.455591035201    -0.729519574118     1.230271961361

  Mulliken Charges: (a.u.)
   Center  Symbol    Alpha    Beta     Spin     Total
       1     H     0.44690  0.44690  0.00000  0.10620
       2     C     3.03274  3.03274  0.00000 -0.06548
       3     O     4.17195  4.17195  0.00000 -0.34390
       4     H     0.47214  0.47214  0.00000  0.05572
       5     H     0.47265  0.47265  0.00000  0.05470
       6     C     2.95657  2.95657  0.00000  0.08686
       7     C     3.08048  3.08048  0.00000 -0.16095
       8     H     0.47456  0.47456  0.00000  0.05087
       9     H     0.47629  0.47629  0.00000  0.04741
      10     C     3.15565  3.15565  0.00000 -0.31130
      11     H     0.45242  0.45242  0.00000  0.09517
      12     H     0.44944  0.44944  0.00000  0.10112
      13     H     0.45636  0.45636  0.00000  0.08728
      14     H     0.44657  0.44657  0.00000  0.10686
      15     H     0.45527  0.45527  0.00000  0.08945

   Total alpha = 21.00000, Total beta = 21.00000, Total charge = -0.00000

*** Psi4 exiting successfully. Buy a developer a beer!
