  ==> Input File <==

--------------------------------------------------------------------------
set {
	reference rhf
	basis 6-31G*
}

set_num_threads( 4 )
memory 2 gb

molecule MOL {
0 1

O	 0.812234	 1.946356	 0.403610
C	 -0.070294	 2.016210	 1.196898
C	 -1.338891	 1.198894	 1.173435
O	 -0.051786	 2.845205	 2.232948
C	 -1.412532	 0.227344	 -0.000452
H	 -1.404983	 0.674743	 2.122988
H	 -2.173339	 1.894816	 1.161479
C	 -2.706999	 -0.587347	 -0.000541
H	 -0.557324	 -0.440498	 0.032881
H	 -1.326287	 0.781323	 -0.930061
C	 -3.956778	 0.291888	 0.000910
H	 -2.726114	 -1.239230	 -0.871609
H	 -2.725217	 -1.240844	 0.869333
H	 -3.985213	 0.933254	 -0.875158
H	 -4.860123	 -0.309979	 0.000519
H	 -3.984618	 0.931166	 0.878514
C	 1.088221	 3.673397	 2.373029
H	 1.980529	 3.075238	 2.489136
H	 0.916429	 4.264587	 3.258992
H	 1.200266	 4.314769	 1.510710

	symmetry c1
}
set optking {
	frozen_dihedral = ("
		9 5 8 12
	")
}

ee = optimize('scf')
oeprop('DIPOLE', 'QUADRUPOLE', 'MULLIKEN_CHARGES')
f=open( 'psi4out.xyz', 'w' )
f.write( "20  " )
f.write( str(ee) + "\n" )
f.write( MOL.save_string_xyz() )
f.close()
--------------------------------------------------------------------------

    Molecular point group: c1
  Charge       = 0
  Multiplicity = 1
  Basis Set: 6-31G*
  Basis Set:
  @DF-RHF Final Energy:  -383.93856499186415
    Total Energy =                       -383.9385649918643821
    Molecular point group: c1
  Basis Set: 6-31G*
  Basis Set:
  Basis Set: 6-31G*
  Basis Set:
  @DF-RHF Final Energy:  -383.93916058542231
    Total Energy =                       -383.9391605854222007
  Basis Set: 6-31G*
  Basis Set:
  Basis Set: 6-31G*
  Basis Set:
  @DF-RHF Final Energy:  -383.93976105694833
    Total Energy =                       -383.9397610569476456
  Basis Set: 6-31G*
  Basis Set:
  Basis Set: 6-31G*
  Basis Set:
  @DF-RHF Final Energy:  -383.93964926524393
    Total Energy =                       -383.9396492652441566
  Basis Set: 6-31G*
  Basis Set:
  Basis Set: 6-31G*
  Basis Set:
  @DF-RHF Final Energy:  -383.93978029816464
    Total Energy =                       -383.9397802981645782
  Basis Set: 6-31G*
  Basis Set:
  Basis Set: 6-31G*
  Basis Set:
  @DF-RHF Final Energy:  -383.93981363399166
    Total Energy =                       -383.9398136339917755
  Basis Set: 6-31G*
  Basis Set:
  Charge       = 0
  Multiplicity = 1
  Basis Set: 6-31G*
  Basis Set:

    Orbital Energies (a.u.)
    -----------------------

    Doubly Occupied:

       1A    -20.603600     2A    -20.545468     3A    -11.372318
       4A    -11.280836     5A    -11.235101     6A    -11.220610
       7A    -11.219558     8A    -11.212781     9A     -1.469332
      10A     -1.362781    11A     -1.088735    12A     -1.022306
      13A     -0.967615    14A     -0.895775    15A     -0.799354
      16A     -0.763522    17A     -0.701497    18A     -0.682897
      19A     -0.671881    20A     -0.636697    21A     -0.609925
      22A     -0.594744    23A     -0.568899    24A     -0.548828
      25A     -0.535655    26A     -0.522794    27A     -0.508894
      28A     -0.473361    29A     -0.471104    30A     -0.468001
      31A     -0.455679    32A     -0.437803

  @DF-RHF Final Energy:  -383.93981377396119

   => Energetics <=

    Nuclear Repulsion Energy =            385.0907984891074420
    One-Electron Energy =               -1286.1645194042557705
    Two-Electron Energy =                 517.1339071411875921
    DFT Exchange-Correlation Energy =       0.0000000000000000
    Empirical Dispersion Energy =           0.0000000000000000
    PCM Polarization Energy =               0.0000000000000000
    EFP Energy =                            0.0000000000000000
    Total Energy =                       -383.9398137739607364
    Molecular point group: c1
  Basis Set: 6-31G*
  Basis Set:

  -Total Gradient:
     Atom            X                  Y                   Z
    ------   -----------------  -----------------  -----------------
       1       -0.000002719000     0.000009557161     0.000004369121
       2       -0.000008690507    -0.000001843239    -0.000007984654
       3        0.000009461038    -0.000015901967     0.000001589257
       4        0.000011267529    -0.000007844682    -0.000000963813
       5       -0.000167561036     0.000190087555    -0.002438816146
       6       -0.000009402090     0.000004993800    -0.000010151905
       7       -0.000002361804     0.000008260827    -0.000006515386
       8        0.001069049121    -0.001503339248     0.001576862196
       9       -0.000005508540     0.000067508423     0.001818621623
      10       -0.000005546023    -0.000008123920     0.000018329000
      11       -0.000009570788    -0.000001040400     0.000009908224
      12       -0.000877171166     0.001242884377    -0.000965970261
      13        0.000001686125     0.000007894455    -0.000006712490
      14        0.000003360889    -0.000003794958     0.000001930200
      15       -0.000005696271     0.000001065025     0.000001127282
      16       -0.000005296269     0.000002845422    -0.000001060723
      17        0.000000902601     0.000002908322     0.000006146321
      18        0.000000162131     0.000001311852    -0.000000275735
      19        0.000003789840     0.000002742590    -0.000000039433
      20       -0.000000155784    -0.000000171397    -0.000000392677

  **** Optimization is complete! (in 7 steps) ****
    Final optimized geometry and variables:
    Molecular point group: c1

    Geometry (in Angstrom), charge = 0, multiplicity = 1:

    O            1.774581248983     0.419963459260    -0.504506658874
    C            0.876084818225     0.544359339116     0.263792239168
    C           -0.429811461093    -0.211826570209     0.221178475242
    O            0.907474382203     1.389638143929     1.286519195851
    C           -0.514614129284    -1.195362765327    -0.944637912999
    H           -0.538916477454    -0.723063967351     1.174395948442
    H           -1.223472252415     0.527193398727     0.188666145856
    C           -1.775621063246    -2.066287602356    -0.925795372823
    H            0.358496097539    -1.837800387107    -0.908184032975
    H           -0.456884272317    -0.648124691238    -1.880404072059
    C           -3.093045427431    -1.287590676981    -0.957352140146
    H           -1.745845176282    -2.716830418906    -1.795807297920
    H           -1.758861024737    -2.714185410479    -0.052134641890
    H           -3.123528484352    -0.605176495730    -1.802678746440
    H           -3.936213613215    -1.964718157087    -1.050789232242
    H           -3.245994167376    -0.704525345725    -0.054932224457
    C            2.081665733011     2.165340669213     1.443282503496
    H            2.941308894879     1.527870061727     1.592170550595
    H            1.915785448832     2.779007555071     2.314990625901
    H            2.246018269151     2.785945878358     0.574176419728

  Mulliken Charges: (a.u.)
   Center  Symbol    Alpha    Beta     Spin     Total
       1     O     4.28585  4.28585  0.00000 -0.57170
       2     C     2.60512  2.60512  0.00000  0.78976
       3     C     3.21029  3.21029  0.00000 -0.42058
       4     O     4.30729  4.30729  0.00000 -0.61459
       5     C     3.15276  3.15276  0.00000 -0.30551
       6     H     0.40136  0.40136  0.00000  0.19727
       7     H     0.39860  0.39860  0.00000  0.20281
       8     C     3.15522  3.15522  0.00000 -0.31044
       9     H     0.40883  0.40883  0.00000  0.18234
      10     H     0.41329  0.41329  0.00000  0.17343
      11     C     3.24379  3.24379  0.00000 -0.48758
      12     H     0.41727  0.41727  0.00000  0.16546
      13     H     0.42235  0.42235  0.00000  0.15529
      14     H     0.42069  0.42069  0.00000  0.15863
      15     H     0.41722  0.41722  0.00000  0.16557
      16     H     0.42106  0.42106  0.00000  0.15788
      17     C     3.09239  3.09239  0.00000 -0.18478
      18     H     0.40910  0.40910  0.00000  0.18180
      19     H     0.40847  0.40847  0.00000  0.18307
      20     H     0.40906  0.40906  0.00000  0.18188

   Total alpha = 32.00000, Total beta = 32.00000, Total charge =  0.00000
