                              Psi4 1.0.54 Driver

  ==> Input File <==

--------------------------------------------------------------------------
set {
	reference rhf
	basis cc-pvtz
}

set_num_threads( 4 )
memory 2 gb

molecule MOL {
0 1

H	 3.405228	 1.184618	 0.314789
O	 2.493089	 1.060824	 0.530133
C	 2.076458	 -0.067370	 -0.038225
C	 0.626018	 -0.337582	 0.258241
O	 2.793963	 -0.744788	 -0.689480
C	 -0.267326	 0.883135	 0.076490
H	 0.325620	 -1.161483	 -0.378003
H	 0.574537	 -0.713685	 1.275261
C	 -1.726822	 0.642622	 0.463839
H	 -0.210803	 1.217591	 -0.953497
H	 0.129920	 1.693110	 0.675679
C	 -2.480891	 -0.340606	 -0.429852
H	 -2.243098	 1.597649	 0.438609
H	 -1.776542	 0.301208	 1.495542
C	 -3.955933	 -0.460128	 -0.060472
H	 -2.393755	 -0.020485	 -1.464726
H	 -2.024244	 -1.323637	 -0.374360
H	 -4.467673	 -1.160944	 -0.709827
H	 -4.458917	 0.497287	 -0.144505
H	 -4.076458	 -0.806900	 0.960497

	symmetry c1
}
set optking {
	frozen_dihedral = ("
		5 3 4 7
	")
}

ee,wfn = optimize('scf', return_wfn=True)
oeprop( wfn, 'DIPOLE', 'QUADRUPOLE', 'MULLIKEN_CHARGES')
f=open( 'psi4out.xyz', 'w' )
f.write( "20  " )
f.write( str(ee) + "\n" )
f.write( MOL.save_string_xyz() )
f.close()
--------------------------------------------------------------------------

    Molecular point group: c1
  Charge       = 0
  Multiplicity = 1
  Basis Set: CC-PVTZ
  Basis Set:
  @DF-RHF Final Energy:  -384.09280138952420
    Total Energy =                       -384.0928013895245954
    Molecular point group: c1
  Basis Set: CC-PVTZ
  Basis Set:
  Basis Set: CC-PVTZ
  Basis Set:
  @DF-RHF Final Energy:  -384.09183092892232
    Total Energy =                       -384.0918309289224908
  Basis Set: CC-PVTZ
  Basis Set:
  Basis Set: CC-PVTZ
  Basis Set:
  @DF-RHF Final Energy:  -384.09295226901980
    Total Energy =                       -384.0929522690198610
  Basis Set: CC-PVTZ
  Basis Set:
  Basis Set: CC-PVTZ
  Basis Set:
  @DF-RHF Final Energy:  -384.09331717404746
    Total Energy =                       -384.0933171740475700
  Basis Set: CC-PVTZ
  Basis Set:
  Basis Set: CC-PVTZ
  Basis Set:
  @DF-RHF Final Energy:  -384.09332076905366
    Total Energy =                       -384.0933207690532072
  Basis Set: CC-PVTZ
  Basis Set:
  Basis Set: CC-PVTZ
  Basis Set:
  @DF-RHF Final Energy:  -384.09332491518711
    Total Energy =                       -384.0933249151867699
  Basis Set: CC-PVTZ
  Basis Set:
  Charge       = 0
  Multiplicity = 1
  Basis Set: CC-PVTZ
  Basis Set:

    Orbital Energies (a.u.)
    -----------------------

    Doubly Occupied:

       1A    -20.604749     2A    -20.538604     3A    -11.372697
       4A    -11.237829     5A    -11.228212     6A    -11.221651
       7A    -11.219507     8A    -11.211474     9A     -1.477527
      10A     -1.367640    11A     -1.100111    12A     -1.043100
      13A     -0.961406    14A     -0.864064    15A     -0.827176
      16A     -0.791470    17A     -0.704430    18A     -0.688540
      19A     -0.650175    20A     -0.639262    21A     -0.615092
      22A     -0.593925    23A     -0.580185    24A     -0.553871
      25A     -0.542509    26A     -0.521002    27A     -0.501830
      28A     -0.483846    29A     -0.480245    30A     -0.470007
      31A     -0.460087    32A     -0.437032

  @DF-RHF Final Energy:  -384.09332551876253

   => Energetics <=

    Nuclear Repulsion Energy =            377.0461422411228796
    One-Electron Energy =               -1270.3004226766845477
    Two-Electron Energy =                 509.1609549167991986
    DFT Exchange-Correlation Energy =       0.0000000000000000
    Empirical Dispersion Energy =           0.0000000000000000
    PCM Polarization Energy =               0.0000000000000000
    EFP Energy =                            0.0000000000000000
    Total Energy =                       -384.0933255187624695
    Molecular point group: c1
  Basis Set: CC-PVTZ
  Basis Set:

  -Total Gradient:
     Atom            X                  Y                   Z
    ------   -----------------  -----------------  -----------------
       1        0.000007245746     0.000007958600     0.000003526839
       2       -0.000018084507    -0.000017019388    -0.000014442715
       3       -0.000377315845     0.000818161571    -0.001275417689
       4        0.000361054858    -0.000890123066     0.001109825803
       5        0.000239241882    -0.000480281522     0.000792968655
       6        0.000004460157    -0.000021596660     0.000027272688
       7       -0.000225076926     0.000572990421    -0.000645053256
       8       -0.000008807495    -0.000001908460     0.000007309329
       9       -0.000011772715     0.000007600276    -0.000033112647
      10       -0.000007135590    -0.000010009162     0.000004712551
      11       -0.000003280354     0.000011178382     0.000006144184
      12        0.000019631550    -0.000007393634     0.000017909270
      13       -0.000004783262     0.000011642671     0.000002660589
      14        0.000016595822    -0.000008103230    -0.000008714303
      15       -0.000002189816     0.000009865726     0.000007332433
      16        0.000010001130     0.000001954030     0.000001358429
      17        0.000003318913    -0.000007363727    -0.000002113758
      18        0.000000571523     0.000002580563    -0.000002961448
      19       -0.000002795840     0.000000868485     0.000001583696
      20       -0.000000879232    -0.000001001877    -0.000000788653

  **** Optimization is complete! (in 7 steps) ****
    Final optimized geometry and variables:
    Molecular point group: c1

    Geometry (in Angstrom), charge = 0, multiplicity = 1:

    H            3.488345246239     0.983145625655     0.350714750414
    O            2.568560890326     0.919293791098     0.559667500650
    C            2.085485302032    -0.178400206239    -0.014378953374
    C            0.627209497155    -0.408436152965     0.282727567412
    O            2.766925259494    -0.897784089158    -0.660636521363
    C           -0.257894316224     0.824583239081     0.081731145851
    H            0.316240781315    -1.228624006967    -0.344856078329
    H            0.567154026428    -0.736922487353     1.316519093320
    C           -1.729979443407     0.583752598392     0.419158896323
    H           -0.174806787131     1.160830703100    -0.948135087648
    H            0.117190785066     1.629517869592     0.699884143138
    C           -2.459517831033    -0.386562581981    -0.508195020972
    H           -2.241924540852     1.541126009695     0.389296352569
    H           -1.809936571403     0.231335914066     1.445047319911
    C           -3.944057220017    -0.508809830744    -0.179761721510
    H           -2.344341698324    -0.052447511242    -1.535872066360
    H           -2.005145611979    -1.370222787255    -0.454320595633
    H           -4.437967418007    -1.201919804806    -0.850670211836
    H           -4.444605747365     0.449707038617    -0.266444525172
    H           -4.092288376817    -0.867308767163     0.833478713884

  Mulliken Charges: (a.u.)
   Center  Symbol    Alpha    Beta     Spin     Total
       1     H     0.38069  0.38069  0.00000  0.23862
       2     O     4.16098  4.16098  0.00000 -0.32196
       3     C     2.80895  2.80895  0.00000  0.38211
       4     C     3.09258  3.09258  0.00000 -0.18517
       5     O     4.19308  4.19308  0.00000 -0.38616
       6     C     3.10802  3.10802  0.00000 -0.21605
       7     H     0.43469  0.43469  0.00000  0.13061
       8     H     0.44394  0.44394  0.00000  0.11212
       9     C     3.09854  3.09854  0.00000 -0.19709
      10     H     0.44810  0.44810  0.00000  0.10380
      11     H     0.43485  0.43485  0.00000  0.13029
      12     C     3.08650  3.08650  0.00000 -0.17301
      13     H     0.44595  0.44595  0.00000  0.10811
      14     H     0.45308  0.45308  0.00000  0.09385
      15     C     3.14973  3.14973  0.00000 -0.29945
      16     H     0.45253  0.45253  0.00000  0.09495
      17     H     0.45199  0.45199  0.00000  0.09603
      18     H     0.44709  0.44709  0.00000  0.10582
      19     H     0.45402  0.45402  0.00000  0.09195
      20     H     0.45469  0.45469  0.00000  0.09063

   Total alpha = 32.00000, Total beta = 32.00000, Total charge = -0.00000

*** Psi4 exiting successfully. Buy a developer a beer!
