  ==> Input File <==

--------------------------------------------------------------------------
set {
	reference rhf
	basis cc-pvtz
}

set_num_threads( 4 )
memory 2 gb

molecule MOL {
0 1

O	 -1.510770	 1.240811	 -0.054933
C	 -1.081510	 0.147522	 0.122720
C	 0.327029	 -0.064006	 0.641890
C	 -1.903028	 -1.084121	 -0.174656
C	 1.349460	 -0.017068	 -0.500215
H	 0.399029	 -1.014606	 1.159950
H	 0.538021	 0.726928	 1.350471
C	 1.843388	 1.397384	 -0.781470
H	 2.196685	 -0.653029	 -0.260215
H	 0.892322	 -0.431230	 -1.391182
H	 2.554804	 1.403808	 -1.598707
H	 2.332906	 1.823279	 0.087861
H	 1.021023	 2.050387	 -1.051976
H	 -1.341891	 -1.779207	 -0.789259
H	 -2.820449	 -0.808163	 -0.671328
H	 -2.133314	 -1.593056	 0.755831

	symmetry c1
}
set optking {
	frozen_dihedral = ("
		9 5 3 2
	")
}

ee = optimize('scf')
oeprop('DIPOLE', 'QUADRUPOLE', 'MULLIKEN_CHARGES')
f=open( 'psi4out.xyz', 'w' )
f.write( "16  " )
f.write( str(ee) + "\n" )
f.write( MOL.save_string_xyz() )
f.close()
--------------------------------------------------------------------------

    Molecular point group: c1
  Charge       = 0
  Multiplicity = 1
  Basis Set: CC-PVTZ
  Basis Set:
  @DF-RHF Final Energy:  -270.12647654748082
    Total Energy =                       -270.1264765474806495
    Molecular point group: c1
  Basis Set: CC-PVTZ
  Basis Set:
  Basis Set: CC-PVTZ
  Basis Set:
  @DF-RHF Final Energy:  -270.12676941991776
    Total Energy =                       -270.1267694199178777
  Basis Set: CC-PVTZ
  Basis Set:
  Basis Set: CC-PVTZ
  Basis Set:
  @DF-RHF Final Energy:  -270.12509545523335
    Total Energy =                       -270.1250954552337475
  Basis Set: CC-PVTZ
  Basis Set:
  Basis Set: CC-PVTZ
  Basis Set:
  @DF-RHF Final Energy:  -270.12690526590364
    Total Energy =                       -270.1269052659037015
  Basis Set: CC-PVTZ
  Basis Set:
  Basis Set: CC-PVTZ
  Basis Set:
  @DF-RHF Final Energy:  -270.12693630414788
    Total Energy =                       -270.1269363041481029
  Basis Set: CC-PVTZ
  Basis Set:
  Basis Set: CC-PVTZ
  Basis Set:
  @DF-RHF Final Energy:  -270.12694611315476
    Total Energy =                       -270.1269461131549292
  Basis Set: CC-PVTZ
  Basis Set:
  Basis Set: CC-PVTZ
  Basis Set:
  @DF-RHF Final Energy:  -270.12695358515953
    Total Energy =                       -270.1269535851598675
  Basis Set: CC-PVTZ
  Basis Set:
  Charge       = 0
  Multiplicity = 1
  Basis Set: CC-PVTZ
  Basis Set:

    Orbital Energies (a.u.)
    -----------------------

    Doubly Occupied:

       1A    -20.537708     2A    -11.320112     3A    -11.232758
       4A    -11.228699     5A    -11.227334     6A    -11.210952
       7A     -1.397481     8A     -1.082256     9A     -1.012814
      10A     -0.947995    11A     -0.831520    12A     -0.735376
      13A     -0.659767    14A     -0.646688    15A     -0.619670
      16A     -0.591573    17A     -0.587616    18A     -0.561626
      19A     -0.542341    20A     -0.511018    21A     -0.496054
      22A     -0.488786    23A     -0.474266    24A     -0.399658

  @DF-RHF Final Energy:  -270.12695405332374

   => Energetics <=

    Nuclear Repulsion Energy =            240.8986368908709323
    One-Electron Energy =                -843.3630408915321368
    Two-Electron Energy =                 332.3374499473371202
    DFT Exchange-Correlation Energy =       0.0000000000000000
    Empirical Dispersion Energy =           0.0000000000000000
    PCM Polarization Energy =               0.0000000000000000
    EFP Energy =                            0.0000000000000000
    Total Energy =                       -270.1269540533241411
    Molecular point group: c1
  Basis Set: CC-PVTZ
  Basis Set:

  -Total Gradient:
     Atom            X                  Y                   Z
    ------   -----------------  -----------------  -----------------
       1        0.000000004798    -0.000018259525    -0.000011453321
       2       -0.000236761357    -0.002249419228    -0.000246671013
       3       -0.000064655075     0.002539380905     0.000097049065
       4       -0.000010256533    -0.000022011754     0.000029060177
       5        0.001774023788     0.002229037494     0.001535229528
       6        0.000002201905     0.000003507636    -0.000004760702
       7        0.000008476265    -0.000001094116    -0.000026190521
       8        0.000002429117    -0.000016684560     0.000006627097
       9       -0.001487761845    -0.002497971524    -0.001355379098
      10        0.000003356353     0.000018335452     0.000013332996
      11        0.000001865251     0.000007892571    -0.000006140600
      12       -0.000002230628    -0.000002780114    -0.000003338826
      13       -0.000003755999     0.000011134794    -0.000000944473
      14        0.000001737899    -0.000000477543    -0.000010606458
      15        0.000007198579     0.000003940724    -0.000004056337
      16        0.000004127478    -0.000004531212    -0.000011757514

  **** Optimization is complete! (in 8 steps) ****
    Final optimized geometry and variables:
    Molecular point group: c1

    Geometry (in Angstrom), charge = 0, multiplicity = 1:

    O           -1.394227886978     0.965359905525     0.202641597006
    C           -0.916888573697    -0.119909608395     0.284980221007
    C            0.496081468378    -0.330851077261     0.788881010510
    C           -1.691098362153    -1.353324492238    -0.119215696323
    C            1.515015814737    -0.308231403912    -0.369412767891
    H            0.548816661995    -1.286160217034     1.298888993964
    H            0.723621009441     0.447706290128     1.504571175908
    C            1.999235914055     1.093418110192    -0.721505974151
    H            2.352034844672    -0.947309907129    -0.113382090589
    H            1.069937256908    -0.763726200841    -1.249759456396
    H            2.677001287613     1.066105085853    -1.566851158621
    H            2.525871710065     1.541282863086     0.113906147841
    H            1.168941146642     1.740925361632    -0.974506336608
    H           -1.089848271502    -2.007773510528    -0.739143369021
    H           -2.591814247203    -1.070089940427    -0.641740830975
    H           -1.954649754802    -1.910072522269     0.774529454737

  Mulliken Charges: (a.u.)
   Center  Symbol    Alpha    Beta     Spin     Total
       1     O     4.17690  4.17690  0.00000 -0.35379
       2     C     2.85916  2.85916  0.00000  0.28168
       3     C     3.10517  3.10517  0.00000 -0.21033
       4     C     3.15394  3.15394  0.00000 -0.30789
       5     C     3.09316  3.09316  0.00000 -0.18633
       6     H     0.44230  0.44230  0.00000  0.11539
       7     H     0.44044  0.44044  0.00000  0.11913
       8     C     3.14380  3.14380  0.00000 -0.28761
       9     H     0.44592  0.44592  0.00000  0.10816
      10     H     0.45477  0.45477  0.00000  0.09046
      11     H     0.45027  0.45027  0.00000  0.09947
      12     H     0.45507  0.45507  0.00000  0.08987
      13     H     0.44392  0.44392  0.00000  0.11216
      14     H     0.45080  0.45080  0.00000  0.09839
      15     H     0.43640  0.43640  0.00000  0.12720
      16     H     0.44797  0.44797  0.00000  0.10406

   Total alpha = 24.00000, Total beta = 24.00000, Total charge =  0.00000
