  ==> Input File <==

--------------------------------------------------------------------------
set {
	reference rhf
	basis cc-pvtz
}

set_num_threads( 4 )
memory 2 gb

molecule MOL {
0 1

H	 -3.144994	 -1.202467	 -0.018751
O	 -2.321472	 -0.864941	 -0.318626
C	 -2.021813	 0.336996	 0.342658
C	 -0.669613	 0.837286	 -0.127252
H	 -2.780861	 1.084746	 0.127159
H	 -2.006390	 0.184138	 1.420053
C	 0.490865	 -0.082543	 0.241244
H	 -0.708709	 0.967192	 -1.204587
H	 -0.507562	 1.822272	 0.303070
C	 1.515217	 0.584879	 1.154403
H	 0.979098	 -0.420948	 -0.665490
H	 0.100099	 -0.971895	 0.731627
C	 2.671397	 -0.336189	 1.529459
H	 1.907122	 1.471936	 0.664258
H	 1.022524	 0.930407	 2.059695
H	 3.206057	 -0.670607	 0.646725
H	 3.381660	 0.166817	 2.175846
H	 2.315690	 -1.218011	 2.052247

	symmetry c1
}
set optking {
	frozen_dihedral = ("
		10 7 4 8
	")
}

ee = optimize('scf')
oeprop('DIPOLE', 'QUADRUPOLE', 'MULLIKEN_CHARGES')
f=open( 'psi4out.xyz', 'w' )
f.write( "18  " )
f.write( str(ee) + "\n" )
f.write( MOL.save_string_xyz() )
f.close()
--------------------------------------------------------------------------

    Molecular point group: c1
  Charge       = 0
  Multiplicity = 1
  Basis Set: CC-PVTZ
  Basis Set:
  @DF-RHF Final Energy:  -271.28162751680202
    Total Energy =                       -271.2816275168020752
    Molecular point group: c1
  Basis Set: CC-PVTZ
  Basis Set:
  Basis Set: CC-PVTZ
  Basis Set:
  @DF-RHF Final Energy:  -271.28185462342833
    Total Energy =                       -271.2818546234285577
  Basis Set: CC-PVTZ
  Basis Set:
  Basis Set: CC-PVTZ
  Basis Set:
  @DF-RHF Final Energy:  -271.28191128893531
    Total Energy =                       -271.2819112889353619
  Basis Set: CC-PVTZ
  Basis Set:
  Charge       = 0
  Multiplicity = 1
  Basis Set: CC-PVTZ
  Basis Set:

    Orbital Energies (a.u.)
    -----------------------

    Doubly Occupied:

       1A    -20.546288     2A    -11.266151     3A    -11.210644
       4A    -11.210113     5A    -11.205428     6A    -11.203521
       7A     -1.364339     8A     -1.075263     9A     -1.009793
      10A     -0.914342    11A     -0.822516    12A     -0.783573
      13A     -0.705415    14A     -0.652466    15A     -0.619590
      16A     -0.580223    17A     -0.572940    18A     -0.559530
      19A     -0.525976    20A     -0.507390    21A     -0.484971
      22A     -0.469454    23A     -0.456204    24A     -0.450357
      25A     -0.430983

  @DF-RHF Final Energy:  -271.28191193323812

   => Energetics <=

    Nuclear Repulsion Energy =            249.8406349681655456
    One-Electron Energy =                -862.9901573995971376
    Two-Electron Energy =                 341.8676104981935282
    DFT Exchange-Correlation Energy =       0.0000000000000000
    Empirical Dispersion Energy =           0.0000000000000000
    PCM Polarization Energy =               0.0000000000000000
    EFP Energy =                            0.0000000000000000
    Total Energy =                       -271.2819119332380637
    Molecular point group: c1
  Basis Set: CC-PVTZ
  Basis Set:

  -Total Gradient:
     Atom            X                  Y                   Z
    ------   -----------------  -----------------  -----------------
       1        0.000003447970     0.000025180031     0.000011126427
       2        0.000112573249    -0.000037033872     0.000050971865
       3       -0.000116045809     0.000077394542    -0.000093403692
       4       -0.000201485336    -0.000351655542    -0.000061308473
       5       -0.000006263994     0.000032983246     0.000020509010
       6        0.000022865997    -0.000030320410    -0.000024563578
       7       -0.000128434523    -0.000017428345     0.000238772131
       8        0.000186374779     0.000257652166     0.000049437051
       9        0.000000147018    -0.000008646907     0.000011499709
      10        0.000133869123     0.000081111168    -0.000195140276
      11        0.000017478996    -0.000004616345    -0.000008847830
      12       -0.000011457897    -0.000004479951     0.000004084345
      13       -0.000000213005    -0.000018182539     0.000005726101
      14       -0.000010827393    -0.000005563340    -0.000007331762
      15       -0.000008800345     0.000004220325    -0.000006511012
      16       -0.000002703513     0.000002114478     0.000004149231
      17        0.000001797410    -0.000000229754     0.000003418338
      18        0.000007677271    -0.000002498950    -0.000002587582

  **** Optimization is complete! (in 4 steps) ****
    Final optimized geometry and variables:
    Molecular point group: c1

    Geometry (in Angstrom), charge = 0, multiplicity = 1:

    H           -3.024564127585    -1.267143396637    -0.466442906533
    O           -2.212816763403    -0.915089127070    -0.781243661190
    C           -1.922322743176     0.292253947135    -0.126641304024
    C           -0.571277875298     0.792505956823    -0.597949762292
    H           -2.685359905775     1.034851006471    -0.346464974266
    H           -1.906359804222     0.144735271273     0.951817593636
    C            0.603105425151    -0.131911816269    -0.222092882180
    H           -0.619261122348     0.927775232805    -1.672265487152
    H           -0.418225489984     1.779298561110    -0.171086261218
    C            1.630555791013     0.531592588637     0.692317027173
    H            1.103144436185    -0.473720868706    -1.121788890651
    H            0.220891832346    -1.026324062720     0.257510506026
    C            2.783711854177    -0.392518494111     1.067188083804
    H            2.023948305156     1.419888871583     0.205023208573
    H            1.136456498665     0.876526424083     1.597460838209
    H            3.318890186346    -0.726886575938     0.184614458348
    H            3.494611507432     0.107368501680     1.715327929813
    H            2.424709299553    -1.274570814152     1.587075490715

  Mulliken Charges: (a.u.)
   Center  Symbol    Alpha    Beta     Spin     Total
       1     H     0.39567  0.39567  0.00000  0.20865
       2     O     4.19912  4.19912  0.00000 -0.39824
       3     C     2.97298  2.97298  0.00000  0.05404
       4     C     3.09682  3.09682  0.00000 -0.19365
       5     H     0.46453  0.46453  0.00000  0.07094
       6     H     0.47364  0.47364  0.00000  0.05272
       7     C     3.09231  3.09231  0.00000 -0.18462
       8     H     0.44773  0.44773  0.00000  0.10454
       9     H     0.45464  0.45464  0.00000  0.09072
      10     C     3.08362  3.08362  0.00000 -0.16725
      11     H     0.44910  0.44910  0.00000  0.10180
      12     H     0.44876  0.44876  0.00000  0.10248
      13     C     3.14979  3.14979  0.00000 -0.29959
      14     H     0.45483  0.45483  0.00000  0.09034
      15     H     0.45696  0.45696  0.00000  0.08607
      16     H     0.45480  0.45480  0.00000  0.09039
      17     H     0.44950  0.44950  0.00000  0.10101
      18     H     0.45518  0.45518  0.00000  0.08963

   Total alpha = 25.00000, Total beta = 25.00000, Total charge =  0.00000
