  ==> Input File <==

--------------------------------------------------------------------------
set {
	reference rhf
	basis 6-31G*
}

set_num_threads( 4 )
memory 2 gb

molecule MOL {
0 1

O	 1.646592	 -0.256055	 0.712178
C	 0.861134	 0.272526	 -0.014869
C	 -0.623889	 -0.118271	 -0.003699
C	 1.332540	 1.349336	 -0.976255
C	 -0.895332	 -1.256461	 -1.002431
C	 -1.473649	 1.103340	 -0.370799
C	 -0.983900	 -0.581483	 1.422328
H	 -0.615301	 -0.972064	 -2.012700
H	 -1.954261	 -1.493213	 -1.010207
H	 -0.360539	 -2.164946	 -0.747760
H	 -1.227476	 1.468527	 -1.361691
H	 -2.526716	 0.838935	 -0.358521
H	 -1.314819	 1.915855	 0.325860
H	 -2.039679	 -0.828001	 1.472951
H	 -0.427637	 -1.464071	 1.720694
H	 -0.789023	 0.202493	 2.147048
H	 1.086050	 2.327153	 -0.573046
H	 2.406960	 1.279239	 -1.075370
H	 0.868288	 1.272787	 -1.951874

	symmetry c1
}
set optking {
	frozen_dihedral = ("
		1 2 3 5
	")
}

ee = optimize('scf')
oeprop('DIPOLE', 'QUADRUPOLE', 'MULLIKEN_CHARGES')
f=open( 'psi4out.xyz', 'w' )
f.write( "19  " )
f.write( str(ee) + "\n" )
f.write( MOL.save_string_xyz() )
f.close()
--------------------------------------------------------------------------

    Molecular point group: c1
  Charge       = 0
  Multiplicity = 1
  Basis Set: 6-31G*
  Basis Set:
  @DF-RHF Final Energy:  -309.06094530785174
    Total Energy =                       -309.0609453078519095
    Molecular point group: c1
  Basis Set: 6-31G*
  Basis Set:
  Basis Set: 6-31G*
  Basis Set:
  @DF-RHF Final Energy:  -309.06120382176948
    Total Energy =                       -309.0612038217694817
  Basis Set: 6-31G*
  Basis Set:
  Basis Set: 6-31G*
  Basis Set:
  @DF-RHF Final Energy:  -309.06232291342735
    Total Energy =                       -309.0623229134274652
  Basis Set: 6-31G*
  Basis Set:
  Basis Set: 6-31G*
  Basis Set:
  @DF-RHF Final Energy:  -309.06185128441126
    Total Energy =                       -309.0618512844113752
  Basis Set: 6-31G*
  Basis Set:
  @DF-RHF Final Energy:  -309.06226010123214
    Total Energy =                       -309.0622601012318569
  @DF-RHF Final Energy:  -309.06283089846482
    Total Energy =                       -309.0628308984648811
  Basis Set: 6-31G*
  Basis Set:
  @DF-RHF Final Energy:  -309.06283730450383
    Total Energy =                       -309.0628373045040007
  Basis Set: 6-31G*
  Basis Set:
  Basis Set: 6-31G*
  Basis Set:
  @DF-RHF Final Energy:  -309.06284323387132
    Total Energy =                       -309.0628432338712628
  Basis Set: 6-31G*
  Basis Set:
  Basis Set: 6-31G*
  Basis Set:
  @DF-RHF Final Energy:  -309.06284565776542
    Total Energy =                       -309.0628456577657062
  Basis Set: 6-31G*
  Basis Set:
  Charge       = 0
  Multiplicity = 1
  Basis Set: 6-31G*
  Basis Set:

    Orbital Energies (a.u.)
    -----------------------

    Doubly Occupied:

       1A    -20.548022     2A    -11.323053     3A    -11.246407
       4A    -11.227127     5A    -11.223590     6A    -11.223315
       7A    -11.209552     8A     -1.394593     9A     -1.109190
      10A     -1.002636    11A     -0.945868    12A     -0.935508
      13A     -0.834520    14A     -0.703730    15A     -0.664580
      16A     -0.631628    17A     -0.620963    18A     -0.593704
      19A     -0.589740    20A     -0.567467    21A     -0.546757
      22A     -0.546065    23A     -0.524886    24A     -0.512426
      25A     -0.499757    26A     -0.471947    27A     -0.463669
      28A     -0.392110

  @DF-RHF Final Energy:  -309.06284615042222

   => Energetics <=

    Nuclear Repulsion Energy =            326.3010753810141864
    One-Electron Energy =               -1065.6222249809011373
    Two-Electron Energy =                 430.2583034494649610
    DFT Exchange-Correlation Energy =       0.0000000000000000
    Empirical Dispersion Energy =           0.0000000000000000
    PCM Polarization Energy =               0.0000000000000000
    EFP Energy =                            0.0000000000000000
    Total Energy =                       -309.0628461504219331
    Molecular point group: c1
  Basis Set: 6-31G*
  Basis Set:

  -Total Gradient:
     Atom            X                  Y                   Z
    ------   -----------------  -----------------  -----------------
       1        0.000132191283    -0.000708841976    -0.000748306420
       2       -0.000173842377     0.000847376283     0.001168323143
       3       -0.000071018792     0.000299550206    -0.000945804022
       4        0.000014851141     0.000006399280     0.000006010892
       5        0.000109764621    -0.000486705174     0.000505159860
       6       -0.000004700476    -0.000007509566    -0.000005867473
       7       -0.000019947148     0.000033720687     0.000034258764
       8       -0.000012185648    -0.000016500756    -0.000018340429
       9       -0.000006147455     0.000000506459     0.000004611602
      10        0.000015531102     0.000028223009    -0.000007254957
      11       -0.000004142639     0.000009346380     0.000004399100
      12        0.000018057517     0.000002841043    -0.000008727923
      13       -0.000008965565     0.000006575127     0.000004137075
      14       -0.000007301543    -0.000018501967     0.000002691645
      15        0.000002970184     0.000016449870     0.000005810950
      16       -0.000007133198    -0.000015032963     0.000008124541
      17        0.000005519216    -0.000015737530     0.000000782195
      18        0.000009500122     0.000014795335    -0.000012788231
      19        0.000006999654     0.000003046253     0.000002779686

  **** Optimization is complete! (in 10 steps) ****
    Final optimized geometry and variables:
    Molecular point group: c1

    Geometry (in Angstrom), charge = 0, multiplicity = 1:

    O            1.655351231334    -0.374650280906     0.735202180518
    C            0.884254420904     0.191129466160     0.020575529959
    C           -0.614102005111    -0.151103067809     0.054410824094
    C            1.388713655964     1.218613270021    -0.975039128680
    C           -0.835862040752    -1.276624365717    -0.976326434954
    C           -1.494482257241     1.057942355590    -0.297881891771
    C           -0.982153764338    -0.663685579325     1.452961995697
    H           -0.586143701548    -0.959313844750    -1.984672039027
    H           -1.878490667058    -1.578617773098    -0.976444008553
    H           -0.231704384547    -2.144129053703    -0.735282551757
    H           -1.317233732020     1.420591336436    -1.304377445058
    H           -2.541009129541     0.778903418639    -0.233175918230
    H           -1.333619596554     1.882547991984     0.390668479488
    H           -2.028356540988    -0.953373443717     1.478778100237
    H           -0.379935602275    -1.518854816402     1.726864952911
    H           -0.827899720142     0.104097696841     2.204416760197
    H            1.066917135159     2.213955287492    -0.685247994380
    H            2.469116175196     1.187312458818    -0.988515599375
    H            1.006247281916     1.032645394304    -1.972819983613

  Mulliken Charges: (a.u.)
   Center  Symbol    Alpha    Beta     Spin     Total
       1     O     4.26550  4.26550  0.00000 -0.53099
       2     C     2.72546  2.72546  0.00000  0.54908
       3     C     3.06618  3.06618  0.00000 -0.13236
       4     C     3.29002  3.29002  0.00000 -0.58004
       5     C     3.24062  3.24062  0.00000 -0.48124
       6     C     3.24114  3.24114  0.00000 -0.48228
       7     C     3.22974  3.22974  0.00000 -0.45948
       8     H     0.41924  0.41924  0.00000  0.16151
       9     H     0.41361  0.41361  0.00000  0.17278
      10     H     0.40687  0.40687  0.00000  0.18625
      11     H     0.41752  0.41752  0.00000  0.16496
      12     H     0.41381  0.41381  0.00000  0.17238
      13     H     0.41660  0.41660  0.00000  0.16679
      14     H     0.42256  0.42256  0.00000  0.15488
      15     H     0.40292  0.40292  0.00000  0.19416
      16     H     0.41797  0.41797  0.00000  0.16407
      17     H     0.40513  0.40513  0.00000  0.18975
      18     H     0.39571  0.39571  0.00000  0.20858
      19     H     0.40940  0.40940  0.00000  0.18119

   Total alpha = 28.00000, Total beta = 28.00000, Total charge = -0.00000
