  ==> Input File <==

--------------------------------------------------------------------------
set {
	reference rhf
	basis 6-31G*
}

set_num_threads( 4 )
memory 2 gb

molecule MOL {
0 1

H	 2.233732	 -0.955791	 0.793380
C	 1.472956	 -0.209781	 0.956916
O	 0.464886	 -0.454746	 -0.000158
H	 1.903705	 0.775699	 0.825348
H	 1.085878	 -0.307943	 1.964188
C	 -0.590998	 0.343045	 0.000118
O	 -1.699443	 -0.054298	 0.000227
H	 -0.340329	 1.404368	 0.000207

	symmetry c1
}
set optking {
	frozen_dihedral = ("
		2 3 6 7
	")
}

ee = optimize('scf')
oeprop('DIPOLE', 'QUADRUPOLE', 'MULLIKEN_CHARGES')
f=open( 'psi4out.xyz', 'w' )
f.write( "8  " )
f.write( str(ee) + "\n" )
f.write( MOL.save_string_xyz() )
f.close()
--------------------------------------------------------------------------

    Molecular point group: c1
  Charge       = 0
  Multiplicity = 1
  Basis Set: 6-31G*
  Basis Set:
  @DF-RHF Final Energy:  -227.77288965421855
    Total Energy =                       -227.7728896542186021
    Molecular point group: c1
  Basis Set: 6-31G*
  Basis Set:
  Basis Set: 6-31G*
  Basis Set:
  @DF-RHF Final Energy:  -227.77286670901037
    Total Energy =                       -227.7728667090102874
  Basis Set: 6-31G*
  Basis Set:
  Basis Set: 6-31G*
  Basis Set:
  @DF-RHF Final Energy:  -227.77287865283375
    Total Energy =                       -227.7728786528338674
  Basis Set: 6-31G*
  Basis Set:
  Basis Set: 6-31G*
  Basis Set:
  @DF-RHF Final Energy:  -227.77323524963975
    Total Energy =                       -227.7732352496396686
  Basis Set: 6-31G*
  Basis Set:
  Basis Set: 6-31G*
  Basis Set:
  @DF-RHF Final Energy:  -227.77324413355055
    Total Energy =                       -227.7732441335505484
  Basis Set: 6-31G*
  Basis Set:
  Charge       = 0
  Multiplicity = 1
  Basis Set: 6-31G*
  Basis Set:

    Orbital Energies (a.u.)
    -----------------------

    Doubly Occupied:

       1A    -20.607328     2A    -20.567288     3A    -11.383443
       4A    -11.303390     5A     -1.473344     6A     -1.384620
       7A     -0.989625     8A     -0.844489     9A     -0.738000
      10A     -0.685532    11A     -0.676912    12A     -0.617985
      13A     -0.568209    14A     -0.523007    15A     -0.469201
      16A     -0.455888

  @DF-RHF Final Energy:  -227.77324622389202

   => Energetics <=

    Nuclear Repulsion Energy =            121.3609664123656273
    One-Electron Energy =                -551.6919011099273575
    Two-Electron Energy =                 202.5576884736696286
    DFT Exchange-Correlation Energy =       0.0000000000000000
    Empirical Dispersion Energy =           0.0000000000000000
    PCM Polarization Energy =               0.0000000000000000
    EFP Energy =                            0.0000000000000000
    Total Energy =                       -227.7732462238920732
    Molecular point group: c1
  Basis Set: 6-31G*
  Basis Set:

  -Total Gradient:
     Atom            X                  Y                   Z
    ------   -----------------  -----------------  -----------------
       1       -0.000044481474    -0.000002131751    -0.000049954768
       2       -0.002235513224    -0.002415010698     0.003269701722
       3        0.003256112591     0.003938105004    -0.001820568107
       4        0.000017084570    -0.000000315384    -0.000009880870
       5        0.000001991223    -0.000004855068    -0.000002880053
       6       -0.001056148933    -0.002007002991    -0.007277332936
       7        0.000065444524     0.000500367032     0.005906336045
       8       -0.000004489278    -0.000009156143    -0.000015421031

  **** Optimization is complete! (in 6 steps) ****
    Final optimized geometry and variables:
    Molecular point group: c1

    Geometry (in Angstrom), charge = 0, multiplicity = 1:

    H            2.361983195020    -0.790648449408     0.476475411605
    C            1.542427665741    -0.125622237178     0.696381236027
    O            0.519137566271    -0.422030885101    -0.229290406309
    H            1.878472489761     0.902052661833     0.596249583627
    H            1.195860492422    -0.296765709660     1.707686703029
    C           -0.501169999693     0.433498123113    -0.282910020699
    O           -1.631123821444     0.109826445504    -0.233142879647
    H           -0.186364004283     1.474447085136    -0.364390797116

  Mulliken Charges: (a.u.)
   Center  Symbol    Alpha    Beta     Spin     Total
       1     H     0.39861  0.39861  0.00000  0.20278
       2     C     3.09683  3.09683  0.00000 -0.19366
       3     O     4.28515  4.28515  0.00000 -0.57029
       4     H     0.41920  0.41920  0.00000  0.16160
       5     H     0.40901  0.40901  0.00000  0.18198
       6     C     2.73010  2.73010  0.00000  0.53980
       7     O     4.23186  4.23186  0.00000 -0.46372
       8     H     0.42924  0.42924  0.00000  0.14152

   Total alpha = 16.00000, Total beta = 16.00000, Total charge =  0.00000
