                              Psi4 1.0.54 Driver

  ==> Input File <==

--------------------------------------------------------------------------
set {
	reference rhf
	basis cc-pvtz
}

set_num_threads( 4 )
memory 2 gb

molecule MOL {
0 1

H	 -3.144994	 -1.202467	 -0.018751
O	 -2.321472	 -0.864941	 -0.318626
C	 -2.021813	 0.336996	 0.342658
C	 -0.669613	 0.837286	 -0.127252
H	 -2.780861	 1.084746	 0.127159
H	 -2.006390	 0.184138	 1.420053
C	 0.490865	 -0.082543	 0.241244
H	 -0.708709	 0.967192	 -1.204587
H	 -0.507562	 1.822272	 0.303070
C	 1.808740	 0.328983	 -0.408725
H	 0.245753	 -1.098369	 -0.046979
H	 0.611976	 -0.089333	 1.322636
C	 2.970713	 -0.585234	 -0.034815
H	 1.688787	 0.333986	 -1.488674
H	 2.049106	 1.350414	 -0.124835
H	 2.775343	 -1.608430	 -0.337828
H	 3.890580	 -0.268330	 -0.513062
H	 3.138864	 -0.586125	 1.037179

	symmetry c1
}
set optking {
	frozen_dihedral = ("
		10 7 4 8
	")
}

ee,wfn = optimize('scf', return_wfn=True)
oeprop( wfn, 'DIPOLE', 'QUADRUPOLE', 'MULLIKEN_CHARGES')
f=open( 'psi4out.xyz', 'w' )
f.write( "18  " )
f.write( str(ee) + "\n" )
f.write( MOL.save_string_xyz() )
f.close()
--------------------------------------------------------------------------

    Molecular point group: c1
  Charge       = 0
  Multiplicity = 1
  Basis Set: CC-PVTZ
  Basis Set:
  @DF-RHF Final Energy:  -271.28673194019410
    Total Energy =                       -271.2867319401937038
    Molecular point group: c1
  Basis Set: CC-PVTZ
  Basis Set:
  Basis Set: CC-PVTZ
  Basis Set:
  @DF-RHF Final Energy:  -271.28674897569624
    Total Energy =                       -271.2867489756964687
  Basis Set: CC-PVTZ
  Basis Set:
  Basis Set: CC-PVTZ
  Basis Set:
  @DF-RHF Final Energy:  -271.28675622569563
    Total Energy =                       -271.2867562256956262
  Basis Set: CC-PVTZ
  Basis Set:
  Charge       = 0
  Multiplicity = 1
  Basis Set: CC-PVTZ
  Basis Set:

    Orbital Energies (a.u.)
    -----------------------

    Doubly Occupied:

       1A    -20.546370     2A    -11.266101     3A    -11.210401
       4A    -11.208960     5A    -11.204892     6A    -11.202660
       7A     -1.364243     8A     -1.076456     9A     -1.010209
      10A     -0.914487    11A     -0.818406    12A     -0.784882
      13A     -0.708674    14A     -0.641324    15A     -0.628694
      16A     -0.583208    17A     -0.571559    18A     -0.559295
      19A     -0.524459    20A     -0.500653    21A     -0.489806
      22A     -0.468694    23A     -0.459196    24A     -0.449635
      25A     -0.431238

  @DF-RHF Final Energy:  -271.28675645024100

   => Energetics <=

    Nuclear Repulsion Energy =            249.3718332063215257
    One-Electron Energy =                -862.0681781236360166
    Two-Electron Energy =                 341.4095884670734335
    DFT Exchange-Correlation Energy =       0.0000000000000000
    Empirical Dispersion Energy =           0.0000000000000000
    PCM Polarization Energy =               0.0000000000000000
    EFP Energy =                            0.0000000000000000
    Total Energy =                       -271.2867564502410573
    Molecular point group: c1
  Basis Set: CC-PVTZ
  Basis Set:

  -Total Gradient:
     Atom            X                  Y                   Z
    ------   -----------------  -----------------  -----------------
       1       -0.000003244217     0.000004690983     0.000000778599
       2        0.000002460979    -0.000000895971    -0.000005010003
       3        0.000016790855     0.000021954528     0.000022505841
       4       -0.001104462544    -0.001541965239    -0.000405105030
       5        0.000012345153    -0.000028168591    -0.000006631322
       6       -0.000001254044     0.000001136329    -0.000017254133
       7        0.000474201003     0.001025023788     0.001101163830
       8        0.000822537432     0.001062112772     0.000123996440
       9       -0.000000718569     0.000022051815    -0.000007479355
      10       -0.000209724962    -0.000575230893    -0.000801765628
      11        0.000002171679    -0.000013099591    -0.000005197420
      12       -0.000014610648     0.000004308764    -0.000019046330
      13        0.000003349616     0.000015065012     0.000023525603
      14       -0.000003889262    -0.000005205420     0.000008482491
      15        0.000014267924    -0.000003700083    -0.000008715811
      16       -0.000006360605     0.000014631839    -0.000006265987
      17       -0.000002976884     0.000005661325     0.000005873523
      18       -0.000000882907    -0.000008371368    -0.000003855309

  **** Optimization is complete! (in 4 steps) ****
    Final optimized geometry and variables:
    Molecular point group: c1

    Geometry (in Angstrom), charge = 0, multiplicity = 1:

    H           -3.146555019653    -1.157929816327     0.035189201651
    O           -2.325374578274    -0.821700124041    -0.272245450875
    C           -2.009193332753     0.370364317011     0.399182510514
    C           -0.657787609600     0.864707970669    -0.078031445006
    H           -2.764135097855     1.126391947990     0.199305285988
    H           -1.984647759564     0.205509432168     1.474649418439
    C            0.503129534267    -0.057425519893     0.285606893316
    H           -0.697601851481     1.002075214343    -1.154254937584
    H           -0.489307052824     1.849113884308     0.351644918215
    C            1.821517181313     0.357754810498    -0.360807656373
    H            0.260563291737    -1.069813496836    -0.017224433572
    H            0.620009481638    -0.077152535683     1.366989901739
    C            2.987066272927    -0.547076717400     0.024272031580
    H            1.704508682976     0.353528293762    -1.440794663417
    H            2.055670697714     1.382764682358    -0.084072479262
    H            2.796772906361    -1.574100673928    -0.268879234105
    H            3.906190024224    -0.230761949446    -0.455742554805
    H            3.153542348847    -0.536462523488     1.096431407943

  Mulliken Charges: (a.u.)
   Center  Symbol    Alpha    Beta     Spin     Total
       1     H     0.39560  0.39560  0.00000  0.20881
       2     O     4.19875  4.19875  0.00000 -0.39750
       3     C     2.97359  2.97359  0.00000  0.05282
       4     C     3.09102  3.09102  0.00000 -0.18203
       5     H     0.46482  0.46482  0.00000  0.07035
       6     H     0.47364  0.47364  0.00000  0.05272
       7     C     3.08745  3.08745  0.00000 -0.17490
       8     H     0.45259  0.45259  0.00000  0.09482
       9     H     0.45414  0.45414  0.00000  0.09171
      10     C     3.08358  3.08358  0.00000 -0.16717
      11     H     0.44524  0.44524  0.00000  0.10952
      12     H     0.45910  0.45910  0.00000  0.08179
      13     C     3.14986  3.14986  0.00000 -0.29972
      14     H     0.45376  0.45376  0.00000  0.09248
      15     H     0.45698  0.45698  0.00000  0.08605
      16     H     0.45443  0.45443  0.00000  0.09113
      17     H     0.44934  0.44934  0.00000  0.10131
      18     H     0.45610  0.45610  0.00000  0.08779

   Total alpha = 25.00000, Total beta = 25.00000, Total charge = -0.00000

*** Psi4 exiting successfully. Buy a developer a beer!
