  ==> Input File <==

--------------------------------------------------------------------------
set {
	reference rhf
	basis cc-pvtz
}

set_num_threads( 4 )
memory 2 gb

molecule MOL {
0 1

H	 -2.123894	 -0.667238	 -0.609809
O	 -2.041679	 -0.058866	 0.103463
C	 -0.959304	 0.780994	 -0.094939
C	 0.354905	 0.037902	 -0.006215
H	 -0.985899	 1.279578	 -1.057596
H	 -0.969809	 1.529522	 0.682889
F	 0.298928	 -0.914987	 0.907382
F	 0.636700	 -0.532203	 -1.159111
F	 1.356067	 0.824332	 0.308705

	symmetry c1
}
set optking {
	frozen_dihedral = ("
		7 4 3 5
	")
}

ee = optimize('scf')
oeprop('DIPOLE', 'QUADRUPOLE', 'MULLIKEN_CHARGES')
f=open( 'psi4out.xyz', 'w' )
f.write( "9  " )
f.write( str(ee) + "\n" )
f.write( MOL.save_string_xyz() )
f.close()
--------------------------------------------------------------------------

    Molecular point group: c1
  Charge       = 0
  Multiplicity = 1
  Basis Set: CC-PVTZ
  Basis Set:
  @DF-RHF Final Energy:  -450.84380724656609
    Total Energy =                       -450.8438072465656887
    Molecular point group: c1
  Basis Set: CC-PVTZ
  Basis Set:
  Basis Set: CC-PVTZ
  Basis Set:
  @DF-RHF Final Energy:  -450.84439532952297
    Total Energy =                       -450.8443953295233086
  Basis Set: CC-PVTZ
  Basis Set:
  Basis Set: CC-PVTZ
  Basis Set:
  @DF-RHF Final Energy:  -450.84452785164910
    Total Energy =                       -450.8445278516491044
  Basis Set: CC-PVTZ
  Basis Set:
  Basis Set: CC-PVTZ
  Basis Set:
  @DF-RHF Final Energy:  -450.84454399497366
    Total Energy =                       -450.8445439949736624
  Basis Set: CC-PVTZ
  Basis Set:
  Basis Set: CC-PVTZ
  Basis Set:
  @DF-RHF Final Energy:  -450.84454593799740
    Total Energy =                       -450.8445459379975091
  Basis Set: CC-PVTZ
  Basis Set:
  Charge       = 0
  Multiplicity = 1
  Basis Set: CC-PVTZ
  Basis Set:

    Orbital Energies (a.u.)
    -----------------------

    Doubly Occupied:

       1A    -26.339859     2A    -26.335551     3A    -26.335255
       4A    -20.582867     5A    -11.493266     6A    -11.310343
       7A     -1.746834     8A     -1.645154     9A     -1.639856
      10A     -1.405901    11A     -1.048333    12A     -0.929125
      13A     -0.835990    14A     -0.835570    15A     -0.809125
      16A     -0.733942    17A     -0.718990    18A     -0.702001
      19A     -0.670955    20A     -0.663881    21A     -0.647762
      22A     -0.632548    23A     -0.615625    24A     -0.533673
      25A     -0.484253

  @DF-RHF Final Energy:  -450.84454612505436

   => Energetics <=

    Nuclear Repulsion Energy =            277.3304645101199526
    One-Electron Energy =               -1176.9567001807865836
    Two-Electron Energy =                 448.7816895456121529
    DFT Exchange-Correlation Energy =       0.0000000000000000
    Empirical Dispersion Energy =           0.0000000000000000
    PCM Polarization Energy =               0.0000000000000000
    EFP Energy =                            0.0000000000000000
    Total Energy =                       -450.8445461250544213
    Molecular point group: c1
  Basis Set: CC-PVTZ
  Basis Set:

  -Total Gradient:
     Atom            X                  Y                   Z
    ------   -----------------  -----------------  -----------------
       1        0.000012949819    -0.000010381891    -0.000005271119
       2       -0.000010079972     0.000017303843     0.000018733555
       3        0.002379241295     0.004276823625     0.001483624135
       4        0.001517072963     0.003132753494     0.003852067303
       5       -0.002383859746    -0.004398572984    -0.002102424310
       6       -0.000011827701     0.000015707576    -0.000000163672
       7       -0.001534618347    -0.003009107231    -0.003236361571
       8       -0.000002487801    -0.000054984550    -0.000048288579
       9        0.000033609491     0.000030458118     0.000038084257

  **** Optimization is complete! (in 6 steps) ****
    Final optimized geometry and variables:
    Molecular point group: c1

    Geometry (in Angstrom), charge = 0, multiplicity = 1:

    H           -2.154234880267    -0.617608278873    -0.658490570660
    O           -2.050827760575    -0.049529580921     0.084421479638
    C           -0.959780003474     0.789362228170    -0.084589533466
    C            0.357840339008     0.038029124376     0.003739586770
    H           -0.985322652090     1.271072057099    -1.054914998707
    H           -0.985943158205     1.530797880997     0.698165082689
    F            0.342913681429    -0.902914073256     0.914429414855
    F            0.633740289827    -0.554843632868    -1.148319026223
    F            1.349008519861     0.860979742437     0.267738233798

  Mulliken Charges: (a.u.)
   Center  Symbol    Alpha    Beta     Spin     Total
       1     H     0.38847  0.38847  0.00000  0.22306
       2     O     4.18986  4.18986  0.00000 -0.37971
       3     C     2.99412  2.99412  0.00000  0.01175
       4     C     2.68598  2.68598  0.00000  0.62804
       5     H     0.46068  0.46068  0.00000  0.07864
       6     H     0.44666  0.44666  0.00000  0.10668
       7     F     4.60503  4.60503  0.00000 -0.21005
       8     F     4.61828  4.61828  0.00000 -0.23656
       9     F     4.61092  4.61092  0.00000 -0.22185

   Total alpha = 25.00000, Total beta = 25.00000, Total charge =  0.00000
