  ==> Input File <==

--------------------------------------------------------------------------
set {
	reference rhf
	basis cc-pvtz
}

set_num_threads( 4 )
memory 2 gb

molecule MOL {
0 1

H	 -2.698799	 -0.000846	 0.036018
C	 -1.694291	 -0.000483	 0.434279
O	 -0.828718	 -0.000608	 -0.655022
H	 -1.576855	 0.881100	 1.056504
H	 -1.576401	 -0.881658	 1.057001
C	 -0.406182	 -1.232427	 -1.186024
C	 0.426119	 -2.041595	 -0.197695
C	 -1.556445	 -2.042390	 -1.773479
H	 0.242584	 -0.940478	 -2.002411
H	 1.209257	 -1.426342	 0.228001
H	 0.889811	 -2.878652	 -0.706686
H	 -0.173506	 -2.443039	 0.610931
H	 -2.148160	 -1.427724	 -2.440640
H	 -1.164844	 -2.879556	 -2.339673
H	 -2.208721	 -2.443752	 -1.006677

	symmetry c1
}
set optking {
	frozen_dihedral = ("
		6 3 2 1
	")
}

ee = optimize('scf')
oeprop('DIPOLE', 'QUADRUPOLE', 'MULLIKEN_CHARGES')
f=open( 'psi4out.xyz', 'w' )
f.write( "15  " )
f.write( str(ee) + "\n" )
f.write( MOL.save_string_xyz() )
f.close()
--------------------------------------------------------------------------

    Molecular point group: c1
  Charge       = 0
  Multiplicity = 1
  Basis Set: CC-PVTZ
  Basis Set:
  @DF-RHF Final Energy:  -232.22327003000015
    Total Energy =                       -232.2232700300001511
    Molecular point group: c1
  Basis Set: CC-PVTZ
  Basis Set:
  Basis Set: CC-PVTZ
  Basis Set:
  @DF-RHF Final Energy:  -232.22483867175285
    Total Energy =                       -232.2248386717529911
  Basis Set: CC-PVTZ
  Basis Set:
  Basis Set: CC-PVTZ
  Basis Set:
  @DF-RHF Final Energy:  -232.22522333554150
    Total Energy =                       -232.2252233355415001
  Basis Set: CC-PVTZ
  Basis Set:
  Basis Set: CC-PVTZ
  Basis Set:
  @DF-RHF Final Energy:  -232.22522274171288
    Total Energy =                       -232.2252227417131394
  Basis Set: CC-PVTZ
  Basis Set:
  Basis Set: CC-PVTZ
  Basis Set:
  @DF-RHF Final Energy:  -232.22525115394998
    Total Energy =                       -232.2252511539498414
  Basis Set: CC-PVTZ
  Basis Set:
  Basis Set: CC-PVTZ
  Basis Set:
  @DF-RHF Final Energy:  -232.22525401754766
    Total Energy =                       -232.2252540175476270
  Basis Set: CC-PVTZ
  Basis Set:
  Charge       = 0
  Multiplicity = 1
  Basis Set: CC-PVTZ
  Basis Set:

    Orbital Energies (a.u.)
    -----------------------

    Doubly Occupied:

       1A    -20.540795     2A    -11.272863     3A    -11.258852
       4A    -11.209301     5A    -11.208031     6A     -1.372566
       7A     -1.051223     8A     -0.940641     9A     -0.931336
      10A     -0.781605    11A     -0.676764    12A     -0.641526
      13A     -0.634172    14A     -0.571936    15A     -0.563987
      16A     -0.552882    17A     -0.536130    18A     -0.500467
      19A     -0.497790    20A     -0.444391    21A     -0.407619

  @DF-RHF Final Energy:  -232.22525417928017

   => Energetics <=

    Nuclear Repulsion Energy =            199.0190703151036473
    One-Electron Energy =                -709.2988900662726337
    Two-Electron Energy =                 278.0545655718890430
    DFT Exchange-Correlation Energy =       0.0000000000000000
    Empirical Dispersion Energy =           0.0000000000000000
    PCM Polarization Energy =               0.0000000000000000
    EFP Energy =                            0.0000000000000000
    Total Energy =                       -232.2252541792799434
    Molecular point group: c1
  Basis Set: CC-PVTZ
  Basis Set:

  -Total Gradient:
     Atom            X                  Y                   Z
    ------   -----------------  -----------------  -----------------
       1        0.000088082841     0.001925743917     0.000108677767
       2        0.000454187965    -0.002562103667     0.000393137857
       3       -0.001667681537     0.000745735647    -0.001569158836
       4        0.000011378078    -0.000003268858    -0.000015203860
       5       -0.000019784629     0.000008013574     0.000017482543
       6        0.001128044190    -0.000089915567     0.001085818639
       7       -0.000003386817     0.000012834541     0.000000167791
       8        0.000002926138    -0.000024837080    -0.000018166326
       9        0.000003944474    -0.000010228078     0.000005356039
      10        0.000007726045    -0.000001426500     0.000005735256
      11       -0.000006656502     0.000009712449    -0.000006319177
      12        0.000001353388    -0.000000523653    -0.000004079231
      13        0.000007485060    -0.000000784987     0.000000950464
      14       -0.000008814373    -0.000012686291    -0.000005732506
      15        0.000001195679     0.000003734554     0.000001333581

  **** Optimization is complete! (in 7 steps) ****
    Final optimized geometry and variables:
    Molecular point group: c1

    Geometry (in Angstrom), charge = 0, multiplicity = 1:

    H           -1.934158687380     1.111721855166     0.657423817161
    C           -0.926458638116     1.042476539873     1.056275786694
    O            0.025378340758     1.052798294666     0.038674031943
    H           -0.752624597215     1.915012507190     1.671655215485
    H           -0.860731643160     0.166434352056     1.690552620007
    C            0.431426597448    -0.170194803628    -0.524118146636
    C            1.283504851141    -0.992002128554     0.436705353579
    C           -0.734801808080    -0.965440459137    -1.099101660277
    H            1.065675005397     0.131224972110    -1.348507110271
    H            2.085555910318    -0.384443798586     0.836845260906
    H            1.721584152185    -1.834509753231    -0.086353069009
    H            0.707190194663    -1.386940895943     1.265108578151
    H           -1.315703637042    -0.349008173014    -1.774315798716
    H           -0.364549843531    -1.820389534775    -1.652805829878
    H           -1.394060969441    -1.336950111813    -0.322659144147

  Mulliken Charges: (a.u.)
   Center  Symbol    Alpha    Beta     Spin     Total
       1     H     0.46331  0.46331  0.00000  0.07339
       2     C     3.04051  3.04051  0.00000 -0.08101
       3     O     4.18517  4.18517  0.00000 -0.37034
       4     H     0.44471  0.44471  0.00000  0.11058
       5     H     0.46981  0.46981  0.00000  0.06038
       6     C     2.93772  2.93772  0.00000  0.12455
       7     C     3.15366  3.15366  0.00000 -0.30733
       8     C     3.15844  3.15844  0.00000 -0.31688
       9     H     0.44664  0.44664  0.00000  0.10673
      10     H     0.44473  0.44473  0.00000  0.11054
      11     H     0.45128  0.45128  0.00000  0.09743
      12     H     0.45597  0.45597  0.00000  0.08807
      13     H     0.44437  0.44437  0.00000  0.11126
      14     H     0.44855  0.44855  0.00000  0.10291
      15     H     0.45513  0.45513  0.00000  0.08973

   Total alpha = 21.00000, Total beta = 21.00000, Total charge = -0.00000
