                              Psi4 1.0.54 Driver

  ==> Input File <==

--------------------------------------------------------------------------
set {
	reference rhf
	basis cc-pvtz
}

set_num_threads( 4 )
memory 2 gb

molecule MOL {
0 1

O	 0.550950	 1.224361	 -1.282175
C	 -0.340228	 1.205531	 -0.503363
C	 -1.271519	 2.354992	 -0.238997
O	 -0.637375	 0.157174	 0.243149
H	 -1.210002	 2.640265	 0.803382
H	 -1.004337	 3.188413	 -0.868013
H	 -2.291082	 2.049997	 -0.436577
C	 0.162530	 -1.009518	 0.097799
C	 1.587210	 -0.664190	 0.477086
H	 0.096803	 -1.356267	 -0.924704
H	 -0.233803	 -1.785900	 0.736810
C	 2.256770	 0.342732	 -0.454344
H	 2.154716	 -1.590834	 0.479041
H	 1.598751	 -0.289614	 1.496104
C	 3.698146	 0.643205	 -0.057145
H	 2.235038	 -0.042575	 -1.470299
H	 1.683491	 1.262594	 -0.461300
H	 4.150202	 1.356548	 -0.736242
H	 4.305463	 -0.255904	 -0.069842
H	 3.749130	 1.061068	 0.942759

	symmetry c1
}
set optking {
	frozen_dihedral = ("
		2 4 8 10
	")
}

ee,wfn = optimize('scf', return_wfn=True)
oeprop( wfn, 'DIPOLE', 'QUADRUPOLE', 'MULLIKEN_CHARGES')
f=open( 'psi4out.xyz', 'w' )
f.write( "20  " )
f.write( str(ee) + "\n" )
f.write( MOL.save_string_xyz() )
f.close()
--------------------------------------------------------------------------

    Molecular point group: c1
  Charge       = 0
  Multiplicity = 1
  Basis Set: CC-PVTZ
  Basis Set:
  @DF-RHF Final Energy:  -383.98449432525268
    Total Energy =                       -383.9844943252526264
    Molecular point group: c1
  Basis Set: CC-PVTZ
  Basis Set:
  Basis Set: CC-PVTZ
  Basis Set:
  @DF-RHF Final Energy:  -383.96698744060200
    Total Energy =                       -383.9669874406018835
  Basis Set: CC-PVTZ
  Basis Set:
  Basis Set: CC-PVTZ
  Basis Set:
  @DF-RHF Final Energy:  -384.04418293662462
    Total Energy =                       -384.0441829366245656
  Basis Set: CC-PVTZ
  Basis Set:
  Basis Set: CC-PVTZ
  Basis Set:
  @DF-RHF Final Energy:  -384.06184171457249
    Total Energy =                       -384.0618417145724379
  Basis Set: CC-PVTZ
  Basis Set:
  @DF-RHF Final Energy:  -384.07268517860541
    Total Energy =                       -384.0726851786055249
  @DF-RHF Final Energy:  -384.07580308352857
    Total Energy =                       -384.0758030835287400
  @DF-RHF Final Energy:  -383.56528075069662
    Total Energy =                       -383.5652807506964450
  @DF-RHF Final Energy:  -383.66001518445751
    Total Energy =                       -383.6600151844577340
  @DF-RHF Final Energy:  -383.91727985280880
    Total Energy =                       -383.9172798528084627
  @DF-RHF Final Energy:  -384.05053499859048
    Total Energy =                       -384.0505349985905355
  @DF-RHF Final Energy:  -384.05382712051920
    Total Energy =                       -384.0538271205190313
  @DF-RHF Final Energy:  -384.06978923806065
    Total Energy =                       -384.0697892380603662
  @DF-RHF Final Energy:  -384.07313956922638
    Total Energy =                       -384.0731395692265551
  @DF-RHF Final Energy:  -384.07565993667839
    Total Energy =                       -384.0756599366786759
  @DF-RHF Final Energy:  -384.07425061549571
    Total Energy =                       -384.0742506154953162
  @DF-RHF Final Energy:  -384.07749482294463
    Total Energy =                       -384.0774948229450274
  @DF-RHF Final Energy:  -384.07843285263988
    Total Energy =                       -384.0784328526403897
  @DF-RHF Final Energy:  -384.07913911560405
    Total Energy =                       -384.0791391156039936
  @DF-RHF Final Energy:  -384.07929425773875
    Total Energy =                       -384.0792942577388658
  @DF-RHF Final Energy:  -384.07934602722736
    Total Energy =                       -384.0793460272268476
  @DF-RHF Final Energy:  -384.07936912527646
    Total Energy =                       -384.0793691252760027
  Basis Set: CC-PVTZ
  Basis Set:
  @DF-RHF Final Energy:  -384.07938964151339
    Total Energy =                       -384.0793896415134441
  Basis Set: CC-PVTZ
  Basis Set:
  Basis Set: CC-PVTZ
  Basis Set:
  @DF-RHF Final Energy:  -384.07939827117787
    Total Energy =                       -384.0793982711777517
  Basis Set: CC-PVTZ
  Basis Set:
  Basis Set: CC-PVTZ
  Basis Set:
  @DF-RHF Final Energy:  -384.07940053535657
    Total Energy =                       -384.0794005353570810
  Basis Set: CC-PVTZ
  Basis Set:
  Charge       = 0
  Multiplicity = 1
  Basis Set: CC-PVTZ
  Basis Set:

    Orbital Energies (a.u.)
    -----------------------

    Doubly Occupied:

       1A    -20.593046     2A    -20.532206     3A    -11.367384
       4A    -11.284104     5A    -11.231182     6A    -11.223060
       7A    -11.208031     8A    -11.204871     9A     -1.468539
      10A     -1.365592    11A     -1.080114    12A     -1.028144
      13A     -0.979855    14A     -0.891176    15A     -0.809133
      16A     -0.758291    17A     -0.694618    18A     -0.686036
      19A     -0.667171    20A     -0.623977    21A     -0.602058
      22A     -0.594016    23A     -0.569783    24A     -0.553569
      25A     -0.542634    26A     -0.526406    27A     -0.513866
      28A     -0.492952    29A     -0.468222    30A     -0.461923
      31A     -0.447152    32A     -0.436344

  @DF-RHF Final Energy:  -384.07940064065821

   => Energetics <=

    Nuclear Repulsion Energy =            393.9714540325774692
    One-Electron Energy =               -1304.2907965552499263
    Two-Electron Energy =                 526.2399418820141364
    DFT Exchange-Correlation Energy =       0.0000000000000000
    Empirical Dispersion Energy =           0.0000000000000000
    PCM Polarization Energy =               0.0000000000000000
    EFP Energy =                            0.0000000000000000
    Total Energy =                       -384.0794006406583776
    Molecular point group: c1
  Basis Set: CC-PVTZ
  Basis Set:

  -Total Gradient:
     Atom            X                  Y                   Z
    ------   -----------------  -----------------  -----------------
       1       -0.000009494284     0.000007864830     0.000017414613
       2        0.005289600039     0.000786393063     0.002914669118
       3       -0.000039446784    -0.000037474993    -0.000008715991
       4       -0.008141932997    -0.002665968700    -0.005153081554
       5        0.000014238761     0.000007726526     0.000001976007
       6       -0.000015422936     0.000015270661     0.000020758135
       7        0.000017188519     0.000008799472     0.000008441207
       8        0.004198475571     0.007781649550     0.005342396942
       9        0.000023646465    -0.000047168951    -0.000005144229
      10       -0.001356498144    -0.005844713237    -0.003131416237
      11       -0.000001870647    -0.000022044171     0.000019010317
      12       -0.000004525220    -0.000014829815    -0.000033829398
      13        0.000011696125    -0.000003206174    -0.000038043262
      14        0.000034672149    -0.000031090810     0.000022311653
      15       -0.000018634184     0.000005621408     0.000033749098
      16       -0.000031096561     0.000037658061    -0.000031685342
      17        0.000006088351     0.000018691661     0.000031498407
      18       -0.000008215845     0.000017728331     0.000010383816
      19        0.000007267193    -0.000003815596    -0.000034778192
      20        0.000024264425    -0.000017091119     0.000014084895

  **** Optimization is complete! (in 25 steps) ****
    Final optimized geometry and variables:
    Molecular point group: c1

    Geometry (in Angstrom), charge = 0, multiplicity = 1:

    O           -1.429748435861     0.582938485035     0.682306483425
    C           -1.208013666779    -0.561177243082     0.887130135129
    C           -1.587599649312    -1.289735635506     2.146082910058
    O           -0.618510244696    -1.368347161994     0.025954097929
    H           -0.690937366316    -1.634663176282     2.645592374587
    H           -2.139744702976    -0.628854256470     2.794335488045
    H           -2.181997785762    -2.159851312760     1.901063591509
    C           -0.028527501822    -0.872206048419    -1.173263060079
    C            1.251838395715    -0.060298948201    -1.014004365154
    H           -0.786277387917    -0.382514830813    -1.770392082026
    H            0.225945552083    -1.785119597422    -1.692010460570
    C            1.145178090349     1.440013980942    -0.743528537076
    H            1.789771271828    -0.192926175281    -1.949716860179
    H            1.861866848008    -0.537845772966    -0.251948450750
    C            2.501319154954     2.129548302689    -0.861100246674
    H            0.450465728559     1.881905008822    -1.450912742958
    H            0.730245029525     1.621459642783     0.235893739212
    H            2.415689968293     3.190559085157    -0.657717779687
    H            2.920236344899     2.016270851456    -1.856001202328
    H            3.215005729613     1.716099402408    -0.155284556476

  Mulliken Charges: (a.u.)
   Center  Symbol    Alpha    Beta     Spin     Total
       1     O     4.19805  4.19805  0.00000 -0.39611
       2     C     2.80394  2.80394  0.00000  0.39211
       3     C     3.13664  3.13664  0.00000 -0.27328
       4     O     4.15753  4.15753  0.00000 -0.31506
       5     H     0.44734  0.44734  0.00000  0.10533
       6     H     0.43856  0.43856  0.00000  0.12287
       7     H     0.44468  0.44468  0.00000  0.11063
       8     C     2.98730  2.98730  0.00000  0.02541
       9     C     3.10697  3.10697  0.00000 -0.21393
      10     H     0.45167  0.45167  0.00000  0.09665
      11     H     0.44204  0.44204  0.00000  0.11593
      12     C     3.08150  3.08150  0.00000 -0.16301
      13     H     0.45078  0.45078  0.00000  0.09845
      14     H     0.44881  0.44881  0.00000  0.10239
      15     C     3.15050  3.15050  0.00000 -0.30100
      16     H     0.45318  0.45318  0.00000  0.09365
      17     H     0.43970  0.43970  0.00000  0.12060
      18     H     0.44665  0.44665  0.00000  0.10670
      19     H     0.45732  0.45732  0.00000  0.08535
      20     H     0.45685  0.45685  0.00000  0.08631

   Total alpha = 32.00000, Total beta = 32.00000, Total charge = -0.00000

*** Psi4 exiting successfully. Buy a developer a beer!
