  ==> Input File <==

--------------------------------------------------------------------------
set {
	reference rhf
	basis 6-31G*
}

set_num_threads( 1 )
memory 2 gb

molecule MOL {
0 1

H	 -3.420663	 1.227371	 -1.044276
O	 -3.452007	 0.283848	 -0.965577
C	 -3.181085	 -0.079926	 0.364119
C	 -1.765924	 0.277073	 0.805136
H	 -3.327791	 -1.152017	 0.410903
H	 -3.905698	 0.375695	 1.036898
C	 -0.677594	 -0.417312	 -0.014550
H	 -1.637766	 1.358238	 0.744969
H	 -1.659588	 0.017670	 1.857098
C	 0.738335	 -0.034840	 0.421385
H	 -0.814977	 -0.178223	 -1.064632
H	 -0.802730	 -1.495410	 0.071702
C	 1.822265	 -0.738362	 -0.399735
H	 0.853533	 1.043532	 0.342250
H	 0.871597	 -0.279636	 1.474438
C	 1.984984	 -0.213520	 -1.830895
H	 1.612942	 -1.806481	 -0.431383
H	 2.773926	 -0.631933	 0.116821
C	 0.780576	 -0.463176	 -2.740553
H	 2.858957	 -0.685488	 -2.273284
H	 2.199733	 0.852861	 -1.800603
H	 0.534509	 -1.521010	 -2.780272
H	 0.988683	 -0.135146	 -3.754420
H	 -0.101979	 0.069315	 -2.401861

	symmetry c1
}
set optking {
	frozen_dihedral = ("
		20 16 13 17,
		13 10 7 11,
		11 7 4 3,
		1 2 3 5,
		7 4 3 2
	")
}

ee = energy('scf')
oeprop('DIPOLE', 'QUADRUPOLE', 'MULLIKEN_CHARGES')
f=open( 'psi4out.xyz', 'w' )
f.write( "24  " )
f.write( str(ee) + "\n" )
f.write( MOL.save_string_xyz() )
f.close()
--------------------------------------------------------------------------

    Molecular point group: c1

    Geometry (in Angstrom), charge = 0, multiplicity = 1:

       Center              X                  Y                   Z               Mass
    ------------   -----------------  -----------------  -----------------  -----------------
           H         -2.888485756441     1.386381385310    -0.478005518956     1.007825032070
           O         -2.919829756441     0.442858385310    -0.399306518956    15.994914619560
           C         -2.648907756441     0.079084385310     0.930389481044    12.000000000000
           C         -1.233746756441     0.436083385310     1.371406481044    12.000000000000
           H         -2.795613756441    -0.993006614690     0.977173481044     1.007825032070
           H         -3.373520756441     0.534705385310     1.603168481044     1.007825032070
           C         -0.145416756441    -0.258301614690     0.551720481044    12.000000000000
           H         -1.105588756441     1.517248385310     1.311239481044     1.007825032070
           H         -1.127410756441     0.176680385310     2.423368481044     1.007825032070
           C          1.270512243559     0.124170385310     0.987655481044    12.000000000000
           H         -0.282799756441    -0.019212614690    -0.498361518956     1.007825032070
           H         -0.270552756441    -1.336399614690     0.637972481044     1.007825032070
           C          2.354442243559    -0.579351614690     0.166535481044    12.000000000000
           H          1.385710243559     1.202542385310     0.908520481044     1.007825032070
           H          1.403774243559    -0.120625614690     2.040708481044     1.007825032070
           C          2.517161243559    -0.054509614690    -1.264624518956    12.000000000000
           H          2.145119243559    -1.647470614690     0.134887481044     1.007825032070
           H          3.306103243559    -0.472922614690     0.683091481044     1.007825032070
           C          1.312753243559    -0.304165614690    -2.174282518956    12.000000000000
           H          3.391134243559    -0.526477614690    -1.707013518956     1.007825032070
           H          2.731910243559     1.011871385310    -1.234332518956     1.007825032070
           H          1.066686243559    -1.361999614690    -2.214001518956     1.007825032070
           H          1.520860243559     0.023864385310    -3.188149518956     1.007825032070
           H          0.430198243559     0.228325385310    -1.835590518956     1.007825032070

  Charge       = 0
  Multiplicity = 1
  Basis Set: 6-31G*
  Basis Set:

    Orbital Energies (a.u.)
    -----------------------

    Doubly Occupied:

       1A    -20.553868     2A    -11.267203     3A    -11.215919
       4A    -11.213262     5A    -11.212272     6A    -11.211365
       7A    -11.206088     8A    -11.202760     9A     -1.360328
      10A     -1.090987    11A     -1.044154    12A     -0.983082
      13A     -0.921831    14A     -0.848237    15A     -0.799427
      16A     -0.775026    17A     -0.679804    18A     -0.659708
      19A     -0.624431    20A     -0.613888    21A     -0.596832
      22A     -0.588846    23A     -0.552103    24A     -0.539282
      25A     -0.528604    26A     -0.508579    27A     -0.495001
      28A     -0.476563    29A     -0.465292    30A     -0.461029
      31A     -0.455278    32A     -0.432673    33A     -0.417030

  @DF-RHF Final Energy:  -349.23323148725007

   => Energetics <=

    Nuclear Repulsion Energy =            399.4239931914087833
    One-Electron Energy =               -1265.3127534841414672
    Two-Electron Energy =                 516.6555288054837547
    DFT Exchange-Correlation Energy =       0.0000000000000000
    Empirical Dispersion Energy =           0.0000000000000000
    PCM Polarization Energy =               0.0000000000000000
    EFP Energy =                            0.0000000000000000
    Total Energy =                       -349.2332314872489860

  Mulliken Charges: (a.u.)
   Center  Symbol    Alpha    Beta     Spin     Total
       1     H     0.28349  0.28349  0.00000  0.43302
       2     O     4.36843  4.36843  0.00000 -0.73685
       3     C     2.99602  2.99602  0.00000  0.00795
       4     C     3.16723  3.16723  0.00000 -0.33446
       5     H     0.41645  0.41645  0.00000  0.16711
       6     H     0.42835  0.42835  0.00000  0.14330
       7     C     3.15523  3.15523  0.00000 -0.31046
       8     H     0.42935  0.42935  0.00000  0.14131
       9     H     0.42303  0.42303  0.00000  0.15394
      10     C     3.15373  3.15373  0.00000 -0.30747
      11     H     0.40930  0.40930  0.00000  0.18141
      12     H     0.42434  0.42434  0.00000  0.15132
      13     C     3.15528  3.15528  0.00000 -0.31056
      14     H     0.42524  0.42524  0.00000  0.14951
      15     H     0.42246  0.42246  0.00000  0.15508
      16     C     3.15137  3.15137  0.00000 -0.30274
      17     H     0.42376  0.42376  0.00000  0.15248
      18     H     0.42106  0.42106  0.00000  0.15789
      19     C     3.24362  3.24362  0.00000 -0.48724
      20     H     0.42082  0.42082  0.00000  0.15835
      21     H     0.42425  0.42425  0.00000  0.15151
      22     H     0.42061  0.42061  0.00000  0.15878
      23     H     0.42011  0.42011  0.00000  0.15977
      24     H     0.41648  0.41648  0.00000  0.16704

   Total alpha = 33.00000, Total beta = 33.00000, Total charge =  0.00000
