                              Psi4 1.0.54 Driver

  ==> Input File <==

--------------------------------------------------------------------------
set {
	reference rhf
	basis cc-pvtz
}

set_num_threads( 4 )
memory 2 gb

molecule MOL {
0 1

O	 0.749630	 1.305591	 -0.000460
C	 0.576499	 0.134701	 -0.003900
C	 -0.765656	 -0.550508	 -0.002152
O	 1.564816	 -0.744612	 -0.000631
C	 -1.945526	 0.411052	 0.000603
H	 -0.794329	 -1.203792	 -0.868145
H	 -0.791555	 -1.205429	 0.862701
C	 -2.788706	 0.281518	 1.264404
H	 -2.558605	 0.226845	 -0.873237
H	 -1.579542	 1.425900	 -0.096957
H	 -3.193458	 -0.719859	 1.367991
H	 -3.621944	 0.973484	 1.245469
H	 -2.203411	 0.493799	 2.153052
C	 2.884339	 -0.237801	 0.002883
H	 3.064150	 0.362814	 -0.876312
H	 3.533055	 -1.098529	 0.004958
H	 3.059365	 0.363432	 0.882614

	symmetry c1
}
set optking {
	frozen_dihedral = ("
		9 5 3 6
	")
}

ee,wfn = optimize('scf', return_wfn=True)
oeprop( wfn, 'DIPOLE', 'QUADRUPOLE', 'MULLIKEN_CHARGES')
f=open( 'psi4out.xyz', 'w' )
f.write( "17  " )
f.write( str(ee) + "\n" )
f.write( MOL.save_string_xyz() )
f.close()
--------------------------------------------------------------------------

    Molecular point group: c1
  Charge       = 0
  Multiplicity = 1
  Basis Set: CC-PVTZ
  Basis Set:
  @DF-RHF Final Energy:  -345.03032244350379
    Total Energy =                       -345.0303224435035645
    Molecular point group: c1
  Basis Set: CC-PVTZ
  Basis Set:
  Basis Set: CC-PVTZ
  Basis Set:
  @DF-RHF Final Energy:  -345.03051902770341
    Total Energy =                       -345.0305190277032921
  Basis Set: CC-PVTZ
  Basis Set:
  Basis Set: CC-PVTZ
  Basis Set:
  @DF-RHF Final Energy:  -345.02903385836595
    Total Energy =                       -345.0290338583657217
  Basis Set: CC-PVTZ
  Basis Set:
  Basis Set: CC-PVTZ
  Basis Set:
  @DF-RHF Final Energy:  -345.03071763002094
    Total Energy =                       -345.0307176300209449
  Basis Set: CC-PVTZ
  Basis Set:
  Basis Set: CC-PVTZ
  Basis Set:
  @DF-RHF Final Energy:  -345.03073377159944
    Total Energy =                       -345.0307337715993299
  Basis Set: CC-PVTZ
  Basis Set:
  Basis Set: CC-PVTZ
  Basis Set:
  @DF-RHF Final Energy:  -345.03073575728297
    Total Energy =                       -345.0307357572829119
  Basis Set: CC-PVTZ
  Basis Set:
  Basis Set: CC-PVTZ
  Basis Set:
  @DF-RHF Final Energy:  -345.03073765946772
    Total Energy =                       -345.0307376594673769
  Basis Set: CC-PVTZ
  Basis Set:
  Charge       = 0
  Multiplicity = 1
  Basis Set: CC-PVTZ
  Basis Set:

    Orbital Energies (a.u.)
    -----------------------

    Doubly Occupied:

       1A    -20.597006     2A    -20.535423     3A    -11.366010
       4A    -11.279039     5A    -11.234207     6A    -11.218324
       7A    -11.211010     8A     -1.473312     9A     -1.366860
      10A     -1.078403    11A     -1.002371    12A     -0.939520
      13A     -0.829339    14A     -0.768922    15A     -0.704828
      16A     -0.685088    17A     -0.676720    18A     -0.626685
      19A     -0.605026    20A     -0.571746    21A     -0.571196
      22A     -0.533682    23A     -0.526123    24A     -0.489380
      25A     -0.485409    26A     -0.475605    27A     -0.461931
      28A     -0.443778

  @DF-RHF Final Energy:  -345.03073824491560

   => Energetics <=

    Nuclear Repulsion Energy =            314.2888536589937303
    One-Electron Energy =               -1093.1252989583113049
    Two-Electron Energy =                 433.8057070544018643
    DFT Exchange-Correlation Energy =       0.0000000000000000
    Empirical Dispersion Energy =           0.0000000000000000
    PCM Polarization Energy =               0.0000000000000000
    EFP Energy =                            0.0000000000000000
    Total Energy =                       -345.0307382449157103
    Molecular point group: c1
  Basis Set: CC-PVTZ
  Basis Set:

  -Total Gradient:
     Atom            X                  Y                   Z
    ------   -----------------  -----------------  -----------------
       1        0.000006620936     0.000037416654     0.000009781253
       2       -0.000045623794     0.000050277999    -0.000020569474
       3        0.000779311690     0.001030686321    -0.000814978525
       4        0.000059004654    -0.000072001938     0.000004635596
       5       -0.000779225184    -0.001026931861     0.000806748884
       6       -0.000537727570    -0.000705702599     0.000543231197
       7        0.000002115792    -0.000001338090     0.000002927298
       8       -0.000002709407    -0.000008511192     0.000001813099
       9        0.000534767682     0.000688161930    -0.000542181488
      10        0.000003001324    -0.000000191346     0.000001935857
      11        0.000002827850    -0.000001524059     0.000006606167
      12       -0.000001709791     0.000001929525    -0.000004726013
      13       -0.000003011492     0.000002570918     0.000006546143
      14       -0.000044602621    -0.000027977531    -0.000005743645
      15        0.000008497439     0.000027605128    -0.000024671251
      16        0.000011053101    -0.000019759932    -0.000000676999
      17        0.000007409393     0.000025290072     0.000029321899

  **** Optimization is complete! (in 8 steps) ****
    Final optimized geometry and variables:
    Molecular point group: c1

    Geometry (in Angstrom), charge = 0, multiplicity = 1:

    O            0.696055785143     1.221744793360    -0.119887291461
    C            0.512532428212     0.053966114426    -0.178318877937
    C           -0.830557073743    -0.635392253764    -0.186079798087
    O            1.495666608260    -0.829317303087    -0.236987918718
    C           -2.041511015042     0.307818226930    -0.178762343212
    H           -0.840060834997    -1.300227530591    -1.041135047417
    H           -0.835881398934    -1.290135853176     0.679095163270
    C           -2.886652831423     0.192688623184     1.086000166414
    H           -2.658033301716     0.103150556238    -1.046245745458
    H           -1.693163294898     1.325163377240    -0.285323246386
    H           -3.277670157581    -0.811770055641     1.211328199745
    H           -3.728617470173     0.873989540562     1.052668630336
    H           -2.301129837914     0.433568108511     1.966905789523
    C            2.818113835812    -0.330959026091    -0.224339631415
    H            2.990002760927     0.315956198036    -1.071811282193
    H            3.461703646158    -1.193977940892    -0.278360921649
    H            3.009293974475     0.220339090460     0.684427853716

  Mulliken Charges: (a.u.)
   Center  Symbol    Alpha    Beta     Spin     Total
       1     O     4.19647  4.19647  0.00000 -0.39294
       2     C     2.80190  2.80190  0.00000  0.39621
       3     C     3.10673  3.10673  0.00000 -0.21346
       4     O     4.14736  4.14736  0.00000 -0.29472
       5     C     3.08970  3.08970  0.00000 -0.17941
       6     H     0.43333  0.43333  0.00000  0.13335
       7     H     0.43998  0.43998  0.00000  0.12005
       8     C     3.14860  3.14860  0.00000 -0.29720
       9     H     0.45101  0.45101  0.00000  0.09797
      10     H     0.43693  0.43693  0.00000  0.12615
      11     H     0.45647  0.45647  0.00000  0.08707
      12     H     0.44826  0.44826  0.00000  0.10347
      13     H     0.45299  0.45299  0.00000  0.09403
      14     C     3.03617  3.03617  0.00000 -0.07233
      15     H     0.45422  0.45422  0.00000  0.09156
      16     H     0.44544  0.44544  0.00000  0.10911
      17     H     0.45445  0.45445  0.00000  0.09110

   Total alpha = 28.00000, Total beta = 28.00000, Total charge =  0.00000

*** Psi4 exiting successfully. Buy a developer a beer!
