  ==> Input File <==

--------------------------------------------------------------------------
set {
	reference rhf
	basis 6-31G*
}

set_num_threads( 4 )
memory 2 gb

molecule MOL {
0 1

H	 -2.499100	 -0.730091	 -0.745082
O	 -2.347518	 -0.290803	 0.079804
C	 -1.184022	 0.487508	 -0.006784
C	 0.062599	 -0.378592	 0.031606
H	 -1.176523	 1.099369	 -0.904519
H	 -1.187323	 1.153111	 0.844927
O	 1.171513	 0.459272	 -0.058250
H	 0.050699	 -1.089204	 -0.797170
H	 0.078739	 -0.954914	 0.954740
C	 2.106628	 0.078479	 -1.017259
H	 1.672828	 0.072119	 -2.015461
H	 2.913446	 0.797666	 -0.990506
H	 2.508460	 -0.910990	 -0.809236

	symmetry c1
}
set optking {
	frozen_dihedral = ("
		10 7 4 8
	")
}

ee = optimize('scf')
oeprop('DIPOLE', 'QUADRUPOLE', 'MULLIKEN_CHARGES')
f=open( 'psi4out.xyz', 'w' )
f.write( "13  " )
f.write( str(ee) + "\n" )
f.write( MOL.save_string_xyz() )
f.close()
--------------------------------------------------------------------------

    Molecular point group: c1
  Charge       = 0
  Multiplicity = 1
  Basis Set: 6-31G*
  Basis Set:
  @DF-RHF Final Energy:  -267.94680595989882
    Total Energy =                       -267.9468059598988248
    Molecular point group: c1
  Basis Set: 6-31G*
  Basis Set:
  Basis Set: 6-31G*
  Basis Set:
  @DF-RHF Final Energy:  -267.94709399906435
    Total Energy =                       -267.9470939990644638
  Basis Set: 6-31G*
  Basis Set:
  Basis Set: 6-31G*
  Basis Set:
  @DF-RHF Final Energy:  -267.94718906055266
    Total Energy =                       -267.9471890605525459
  Basis Set: 6-31G*
  Basis Set:
  Basis Set: 6-31G*
  Basis Set:
  @DF-RHF Final Energy:  -267.94719022659547
    Total Energy =                       -267.9471902265953531
  Basis Set: 6-31G*
  Basis Set:
  Charge       = 0
  Multiplicity = 1
  Basis Set: 6-31G*
  Basis Set:

    Orbital Energies (a.u.)
    -----------------------

    Doubly Occupied:

       1A    -20.560419     2A    -20.559973     3A    -11.271866
       4A    -11.270700     5A    -11.268778     6A     -1.385068
       7A     -1.364993     8A     -1.017660     9A     -0.916940
      10A     -0.841407    11A     -0.709524    12A     -0.667903
      13A     -0.660944    14A     -0.642032    15A     -0.588120
      16A     -0.572688    17A     -0.551244    18A     -0.488874
      19A     -0.473418    20A     -0.457015    21A     -0.408908

  @DF-RHF Final Energy:  -267.94719035207231

   => Energetics <=

    Nuclear Repulsion Energy =            190.3915105108476098
    One-Electron Energy =                -743.3204526550364335
    Two-Electron Energy =                 284.9817517921163699
    DFT Exchange-Correlation Energy =       0.0000000000000000
    Empirical Dispersion Energy =           0.0000000000000000
    PCM Polarization Energy =               0.0000000000000000
    EFP Energy =                            0.0000000000000000
    Total Energy =                       -267.9471903520724254
    Molecular point group: c1
  Basis Set: 6-31G*
  Basis Set:

  -Total Gradient:
     Atom            X                  Y                   Z
    ------   -----------------  -----------------  -----------------
       1        0.000002996052     0.000003674907     0.000001214546
       2       -0.000004507129    -0.000006356806     0.000008280479
       3        0.000007493557    -0.000001259910    -0.000003938454
       4       -0.001249837968     0.001685323602    -0.001518970180
       5        0.000005816564    -0.000001098247     0.000005533853
       6       -0.000010118314     0.000005449046    -0.000000052350
       7        0.001029176585    -0.001353969172     0.001542459172
       8        0.000805182015    -0.001060233692     0.000853355642
       9       -0.000000701082     0.000008894875     0.000003729498
      10       -0.000578863359     0.000720397121    -0.000897211433
      11        0.000001641022    -0.000001479275     0.000004252963
      12       -0.000006771215    -0.000001067753     0.000002276468
      13       -0.000001506725     0.000001725303    -0.000000930203

  **** Optimization is complete! (in 5 steps) ****
    Final optimized geometry and variables:
    Molecular point group: c1

    Geometry (in Angstrom), charge = 0, multiplicity = 1:

    H           -2.482844744552    -0.794379903101    -0.469210602182
    O           -2.302788088355    -0.331274928803     0.336699457244
    C           -1.135591721811     0.433250357437     0.193502525169
    C            0.108245420106    -0.439925758176     0.206639474821
    H           -1.156675738294     1.029804402387    -0.715213261753
    H           -1.102627244240     1.115479917594     1.031352749899
    O            1.239145926842     0.381333184417     0.140337209180
    H            0.086021018095    -1.142963141087    -0.624749444309
    H            0.129881718381    -1.026575835032     1.120049241246
    C            2.202750881973     0.023782547142    -0.800259256691
    H            1.794109466763     0.017013066493    -1.808671424649
    H            2.992875784238     0.760196924729    -0.749399147050
    H            2.624691737634    -0.956728136455    -0.590948555396

  Mulliken Charges: (a.u.)
   Center  Symbol    Alpha    Beta     Spin     Total
       1     H     0.28176  0.28176  0.00000  0.43649
       2     O     4.37026  4.37026  0.00000 -0.74051
       3     C     3.00356  3.00356  0.00000 -0.00712
       4     C     2.99973  2.99973  0.00000  0.00054
       5     H     0.42700  0.42700  0.00000  0.14600
       6     H     0.40738  0.40738  0.00000  0.18524
       7     O     4.30929  4.30929  0.00000 -0.61858
       8     H     0.43637  0.43637  0.00000  0.12726
       9     H     0.41586  0.41586  0.00000  0.16828
      10     C     3.07956  3.07956  0.00000 -0.15912
      11     H     0.43048  0.43048  0.00000  0.13905
      12     H     0.41119  0.41119  0.00000  0.17762
      13     H     0.42758  0.42758  0.00000  0.14485

   Total alpha = 21.00000, Total beta = 21.00000, Total charge = -0.00000
