                              Psi4 1.0.54 Driver

  ==> Input File <==

--------------------------------------------------------------------------
set {
	reference rhf
	basis cc-pvtz
}

set_num_threads( 4 )
memory 2 gb

molecule MOL {
0 1

H	 -1.835082	 1.385983	 0.000069
C	 -1.300516	 0.441153	 -0.000028
O	 -0.006604	 0.654344	 -0.000106
O	 -1.828920	 -0.612308	 0.000113
C	 0.839745	 -0.407416	 0.431383
C	 2.267712	 0.076036	 0.342576
H	 0.669756	 -1.268043	 -0.199792
H	 0.572236	 -0.678264	 1.442839
H	 2.520338	 0.347249	 -0.674574
H	 2.939318	 -0.710662	 0.664919
H	 2.422323	 0.940016	 0.976298

	symmetry c1
}
set optking {
	frozen_dihedral = ("
		5 3 2 4
	")
}

ee,wfn = optimize('scf', return_wfn=True)
oeprop( wfn, 'DIPOLE', 'QUADRUPOLE', 'MULLIKEN_CHARGES')
f=open( 'psi4out.xyz', 'w' )
f.write( "11  " )
f.write( str(ee) + "\n" )
f.write( MOL.save_string_xyz() )
f.close()
--------------------------------------------------------------------------

    Molecular point group: c1
  Charge       = 0
  Multiplicity = 1
  Basis Set: CC-PVTZ
  Basis Set:
  @DF-RHF Final Energy:  -266.92939064307524
    Total Energy =                       -266.9293906430753509
    Molecular point group: c1
  Basis Set: CC-PVTZ
  Basis Set:
  Basis Set: CC-PVTZ
  Basis Set:
  @DF-RHF Final Energy:  -266.92379788397363
    Total Energy =                       -266.9237978839736343
  Basis Set: CC-PVTZ
  Basis Set:
  Basis Set: CC-PVTZ
  Basis Set:
  @DF-RHF Final Energy:  -266.92907306901043
    Total Energy =                       -266.9290730690102009
  Basis Set: CC-PVTZ
  Basis Set:
  Basis Set: CC-PVTZ
  Basis Set:
  @DF-RHF Final Energy:  -266.92966634215571
    Total Energy =                       -266.9296663421555991
  Basis Set: CC-PVTZ
  Basis Set:
  Basis Set: CC-PVTZ
  Basis Set:
  @DF-RHF Final Energy:  -266.92967161898218
    Total Energy =                       -266.9296716189822973
  Basis Set: CC-PVTZ
  Basis Set:
  Basis Set: CC-PVTZ
  Basis Set:
  @DF-RHF Final Energy:  -266.92967562650887
    Total Energy =                       -266.9296756265086970
  Basis Set: CC-PVTZ
  Basis Set:
  Charge       = 0
  Multiplicity = 1
  Basis Set: CC-PVTZ
  Basis Set:

    Orbital Energies (a.u.)
    -----------------------

    Doubly Occupied:

       1A    -20.603463     2A    -20.546979     3A    -11.370443
       4A    -11.290961     5A    -11.225388     6A     -1.478120
       7A     -1.377705     8A     -1.053580     9A     -0.902872
      10A     -0.807256    11A     -0.740753    12A     -0.692396
      13A     -0.681683    14A     -0.598291    15A     -0.573835
      16A     -0.558806    17A     -0.519982    18A     -0.516244
      19A     -0.464429    20A     -0.456828

  @DF-RHF Final Energy:  -266.92967574974119

   => Energetics <=

    Nuclear Repulsion Energy =            179.4025619036443118
    One-Electron Energy =                -719.7444492151576014
    Two-Electron Energy =                 273.4122115617721533
    DFT Exchange-Correlation Energy =       0.0000000000000000
    Empirical Dispersion Energy =           0.0000000000000000
    PCM Polarization Energy =               0.0000000000000000
    EFP Energy =                            0.0000000000000000
    Total Energy =                       -266.9296757497411932
    Molecular point group: c1
  Basis Set: CC-PVTZ
  Basis Set:

  -Total Gradient:
     Atom            X                  Y                   Z
    ------   -----------------  -----------------  -----------------
       1       -0.000020892341     0.000020930688    -0.000013002478
       2        0.000592194866     0.002095919668     0.012677745072
       3       -0.000267648458    -0.003632091319    -0.010586252888
       4       -0.000320366004    -0.000633235446    -0.006761273418
       5        0.000015433791     0.002150271819     0.004694850121
       6        0.000000367874    -0.000004619816    -0.000007779804
       7       -0.000002990848     0.000014553435    -0.000005086530
       8        0.000003837041    -0.000008452443     0.000003067186
       9        0.000004141863     0.000001200573    -0.000001230009
      10        0.000001676490    -0.000000285303    -0.000000268796
      11       -0.000005754273    -0.000004191855    -0.000000768455

  **** Optimization is complete! (in 7 steps) ****
    Final optimized geometry and variables:
    Molecular point group: c1

    Geometry (in Angstrom), charge = 0, multiplicity = 1:

    H           -1.831238108825     1.342536236585    -0.266745237151
    C           -1.299911742912     0.402638313409    -0.151367820441
    O           -0.003884529173     0.597700979199    -0.240348686222
    O           -1.834788254414    -0.639530712533    -0.027040735752
    C            0.857576648586    -0.431305932259     0.239728160294
    C            2.274821126470     0.086027627806     0.175759904236
    H            0.729641918878    -1.314448939660    -0.369384762419
    H            0.568666607850    -0.678947383588     1.251871841343
    H            2.546679417587     0.335874052092    -0.841872922434
    H            2.957041469355    -0.674696246229     0.536060451283
    H            2.391182812642     0.970574703974     0.788900297572

  Mulliken Charges: (a.u.)
   Center  Symbol    Alpha    Beta     Spin     Total
       1     H     0.44961  0.44961  0.00000  0.10077
       2     C     2.84520  2.84520  0.00000  0.30960
       3     O     4.14615  4.14615  0.00000 -0.29230
       4     O     4.19220  4.19220  0.00000 -0.38439
       5     C     2.97220  2.97220  0.00000  0.05560
       6     C     3.13309  3.13309  0.00000 -0.26618
       7     H     0.45033  0.45033  0.00000  0.09935
       8     H     0.45643  0.45643  0.00000  0.08714
       9     H     0.44952  0.44952  0.00000  0.10096
      10     H     0.45435  0.45435  0.00000  0.09130
      11     H     0.45093  0.45093  0.00000  0.09814

   Total alpha = 20.00000, Total beta = 20.00000, Total charge =  0.00000

*** Psi4 exiting successfully. Buy a developer a beer!
