                              Psi4 1.0.54 Driver

  ==> Input File <==

--------------------------------------------------------------------------
set {
	reference rhf
	basis cc-pvtz
}

set_num_threads( 4 )
memory 2 gb

molecule MOL {
0 1

O	 -1.101868	 -1.055715	 -2.088239
C	 -1.757988	 -1.117160	 -1.104290
C	 -2.991440	 -1.969275	 -0.974757
O	 -1.481217	 -0.452708	 0.001092
H	 -2.721144	 -2.998061	 -1.171276
H	 -3.438155	 -1.885756	 0.003052
H	 -3.700733	 -1.664898	 -1.732604
C	 -0.332055	 0.384012	 -0.000250
C	 0.892252	 -0.506059	 -0.000295
H	 -0.360822	 1.020205	 -0.874146
H	 -0.359817	 1.021310	 0.872861
C	 2.188199	 0.299473	 -0.001416
H	 0.857046	 -1.152781	 -0.871031
H	 0.857910	 -1.151798	 0.871202
C	 3.437151	 -0.577593	 -0.000991
H	 2.209565	 0.950707	 -0.871712
H	 2.210062	 0.952234	 0.867721
C	 4.732399	 0.226982	 -0.000914
H	 3.417321	 -1.229122	 -0.869998
H	 3.416993	 -1.228707	 0.868337
H	 4.797903	 0.863451	 -0.876963
H	 5.598517	 -0.424436	 -0.000420
H	 4.797415	 0.864118	 0.874691

	symmetry c1
}
set optking {
	frozen_dihedral = ("
		2 4 8 10
	")
}

ee,wfn = optimize('scf', return_wfn=True)
oeprop( wfn, 'DIPOLE', 'QUADRUPOLE', 'MULLIKEN_CHARGES')
f=open( 'psi4out.xyz', 'w' )
f.write( "23  " )
f.write( str(ee) + "\n" )
f.write( MOL.save_string_xyz() )
f.close()
--------------------------------------------------------------------------

    Molecular point group: c1
  Charge       = 0
  Multiplicity = 1
  Basis Set: CC-PVTZ
  Basis Set:
  @DF-RHF Final Energy:  -423.12998819511637
    Total Energy =                       -423.1299881951163115
    Molecular point group: c1
  Basis Set: CC-PVTZ
  Basis Set:
  Basis Set: CC-PVTZ
  Basis Set:
  @DF-RHF Final Energy:  -423.13292646762716
    Total Energy =                       -423.1329264676276125
  Basis Set: CC-PVTZ
  Basis Set:
  Basis Set: CC-PVTZ
  Basis Set:
  @DF-RHF Final Energy:  -423.13292176366258
    Total Energy =                       -423.1329217636622388
  Basis Set: CC-PVTZ
  Basis Set:
  Basis Set: CC-PVTZ
  Basis Set:
  @DF-RHF Final Energy:  -423.13264540241317
    Total Energy =                       -423.1326454024128907
  Basis Set: CC-PVTZ
  Basis Set:
  Basis Set: CC-PVTZ
  Basis Set:
  @DF-RHF Final Energy:  -423.13336427634863
    Total Energy =                       -423.1333642763486296
  Basis Set: CC-PVTZ
  Basis Set:
  Basis Set: CC-PVTZ
  Basis Set:
  @DF-RHF Final Energy:  -423.13337029036808
    Total Energy =                       -423.1333702903683616
  Basis Set: CC-PVTZ
  Basis Set:
  Charge       = 0
  Multiplicity = 1
  Basis Set: CC-PVTZ
  Basis Set:

    Orbital Energies (a.u.)
    -----------------------

    Doubly Occupied:

       1A    -20.595600     2A    -20.529512     3A    -11.367318
       4A    -11.280340     5A    -11.230502     6A    -11.219108
       7A    -11.217278     8A    -11.216804     9A    -11.208875
      10A     -1.470108    11A     -1.364162    12A     -1.091984
      13A     -1.041293    14A     -1.002767    15A     -0.931990
      16A     -0.853182    17A     -0.798725    18A     -0.763508
      19A     -0.701119    20A     -0.681624    21A     -0.660472
      22A     -0.649965    23A     -0.604695    24A     -0.591131
      25A     -0.583928    26A     -0.573414    27A     -0.550689
      28A     -0.540274    29A     -0.521782    30A     -0.515025
      31A     -0.485554    32A     -0.477201    33A     -0.474086
      34A     -0.468757    35A     -0.441460    36A     -0.438238

  @DF-RHF Final Energy:  -423.13337103968092

   => Energetics <=

    Nuclear Repulsion Energy =            458.3345150907957759
    One-Electron Energy =               -1484.6508339382976374
    Two-Electron Energy =                 603.1829478078207103
    DFT Exchange-Correlation Energy =       0.0000000000000000
    Empirical Dispersion Energy =           0.0000000000000000
    PCM Polarization Energy =               0.0000000000000000
    EFP Energy =                            0.0000000000000000
    Total Energy =                       -423.1333710396811512
    Molecular point group: c1
  Basis Set: CC-PVTZ
  Basis Set:

  -Total Gradient:
     Atom            X                  Y                   Z
    ------   -----------------  -----------------  -----------------
       1        0.000038021725    -0.000005563640    -0.000037150130
       2        0.001198657945    -0.001831622180     0.000707434041
       3        0.000026854358    -0.000048932481     0.000027745699
       4       -0.002009670993     0.003116025843    -0.000570859940
       5       -0.000001094208     0.000003130991    -0.000038675956
       6       -0.000003443931     0.000010251172    -0.000001319797
       7       -0.000042259450     0.000032718407     0.000005105384
       8        0.001876046662    -0.003098476106    -0.001507867121
       9       -0.000002567419    -0.000004600941    -0.000002244519
      10       -0.001079054204     0.001817799577     0.001441350378
      11       -0.000007483319     0.000008468017    -0.000007763766
      12        0.000017257913     0.000000013803    -0.000004824271
      13       -0.000000003891    -0.000003538273    -0.000004161493
      14       -0.000003233449     0.000008521341    -0.000009089549
      15        0.000003370067     0.000000397732     0.000004753320
      16       -0.000001215269    -0.000001053605    -0.000003977007
      17       -0.000006113364    -0.000004408700    -0.000001384510
      18       -0.000002568121    -0.000000048341     0.000000641636
      19       -0.000001437351     0.000003579970     0.000000757804
      20       -0.000000342124    -0.000002809340     0.000001863933
      21       -0.000000433605     0.000001402500    -0.000000636745
      22        0.000000112458    -0.000001295694    -0.000000363486
      23        0.000000599566     0.000000039945     0.000000666100

  **** Optimization is complete! (in 7 steps) ****
    Final optimized geometry and variables:
    Molecular point group: c1

    Geometry (in Angstrom), charge = 0, multiplicity = 1:

    O           -1.711101993012    -0.484716347023    -1.662742287802
    C           -2.256876375055    -0.545786698401    -0.613109339480
    C           -3.513842011283    -1.338549961551    -0.374349312001
    O           -1.841607057990     0.080515877208     0.471028808144
    H           -3.315686732692    -2.375556069550    -0.610673371919
    H           -3.857998374621    -1.251964493110     0.643781289388
    H           -4.277157220006    -0.985978292961    -1.054943174244
    C           -0.633841044506     0.831231630294     0.411218885997
    C            0.606764631265    -0.042586451195     0.411185030821
    H           -0.666860360183     1.487900955486    -0.446295613191
    H           -0.660917634492     1.442084935149     1.302224360524
    C            1.883509388235     0.793221371871     0.450053210722
    H            0.606132185660    -0.670397390425    -0.469896272975
    H            0.568268794518    -0.697002662345     1.277138979829
    C            3.151919938619    -0.055256297424     0.465899706756
    H            1.907733247863     1.454048239408    -0.412785220583
    H            1.873047073015     1.435749097779     1.327645726301
    C            4.428135443172     0.778454153612     0.501315099282
    H            3.163652151076    -0.696047394579    -0.410911771970
    H            3.129463036105    -0.717052804595     1.327246558343
    H            4.496362966118     1.426465625925    -0.366068826806
    H            5.308707968824     0.146663474057     0.511569019749
    H            4.461628643717     1.406508348326     1.385437019504

  Mulliken Charges: (a.u.)
   Center  Symbol    Alpha    Beta     Spin     Total
       1     O     4.20452  4.20452  0.00000 -0.40904
       2     C     2.80912  2.80912  0.00000  0.38176
       3     C     3.13975  3.13975  0.00000 -0.27949
       4     O     4.15352  4.15352  0.00000 -0.30704
       5     H     0.44288  0.44288  0.00000  0.11424
       6     H     0.44131  0.44131  0.00000  0.11739
       7     H     0.44197  0.44197  0.00000  0.11606
       8     C     2.98289  2.98289  0.00000  0.03422
       9     C     3.09900  3.09900  0.00000 -0.19799
      10     H     0.45024  0.45024  0.00000  0.09953
      11     H     0.44245  0.44245  0.00000  0.11510
      12     C     3.09729  3.09729  0.00000 -0.19458
      13     H     0.43857  0.43857  0.00000  0.12287
      14     H     0.45256  0.45256  0.00000  0.09488
      15     C     3.08337  3.08337  0.00000 -0.16674
      16     H     0.45142  0.45142  0.00000  0.09717
      17     H     0.45525  0.45525  0.00000  0.08950
      18     C     3.15040  3.15040  0.00000 -0.30080
      19     H     0.45169  0.45169  0.00000  0.09662
      20     H     0.45426  0.45426  0.00000  0.09149
      21     H     0.45429  0.45429  0.00000  0.09142
      22     H     0.44776  0.44776  0.00000  0.10448
      23     H     0.45551  0.45551  0.00000  0.08897

   Total alpha = 36.00000, Total beta = 36.00000, Total charge = -0.00000

*** Psi4 exiting successfully. Buy a developer a beer!
