  ==> Input File <==

--------------------------------------------------------------------------
set {
	reference rhf
	basis 6-31G*
}

set_num_threads( 4 )
memory 2 gb

molecule MOL {
0 1

H	 -0.239653	 -0.972721	 -0.862914
N	 -0.626943	 -0.667432	 -0.000092
C	 -1.979713	 -0.158776	 0.000050
C	 0.138581	 -0.750733	 1.114897
H	 -2.520245	 -0.492427	 -0.879443
H	 -1.934741	 0.918111	 -0.004428
H	 -2.517790	 -0.485056	 0.883818
C	 1.526380	 -1.314747	 0.884929
O	 -0.241390	 -0.408139	 2.200469
H	 2.079223	 -0.697100	 0.184050
H	 2.052278	 -1.343423	 1.827429
H	 1.469210	 -2.318214	 0.474903

	symmetry c1
}
set optking {
	frozen_dihedral = ("
		4 2 3 5
	")
}

ee = optimize('scf')
oeprop('DIPOLE', 'QUADRUPOLE', 'MULLIKEN_CHARGES')
f=open( 'psi4out.xyz', 'w' )
f.write( "12  " )
f.write( str(ee) + "\n" )
f.write( MOL.save_string_xyz() )
f.close()
--------------------------------------------------------------------------

    Molecular point group: c1
  Charge       = 0
  Multiplicity = 1
  Basis Set: 6-31G*
  Basis Set:
  @DF-RHF Final Energy:  -247.00473148217446
    Total Energy =                       -247.0047314821742930
    Molecular point group: c1
  Basis Set: 6-31G*
  Basis Set:
  Basis Set: 6-31G*
  Basis Set:
  @DF-RHF Final Energy:  -247.00546582842148
    Total Energy =                       -247.0054658284213929
  Basis Set: 6-31G*
  Basis Set:
  Basis Set: 6-31G*
  Basis Set:
  @DF-RHF Final Energy:  -247.00559200145452
    Total Energy =                       -247.0055920014544881
  Basis Set: 6-31G*
  Basis Set:
  Basis Set: 6-31G*
  Basis Set:
  @DF-RHF Final Energy:  -247.00548728022034
    Total Energy =                       -247.0054872802205068
  Basis Set: 6-31G*
  Basis Set:
  @DF-RHF Final Energy:  -247.00563060360892
    Total Energy =                       -247.0056306036088927
  @DF-RHF Final Energy:  -247.00565044604093
    Total Energy =                       -247.0056504460408746
  @DF-RHF Final Energy:  -247.00568420002665
    Total Energy =                       -247.0056842000265078
  @DF-RHF Final Energy:  -247.00568824997916
    Total Energy =                       -247.0056882499790163
  @DF-RHF Final Energy:  -247.00569322684677
    Total Energy =                       -247.0056932268468017
  @DF-RHF Final Energy:  -247.00572249457207
    Total Energy =                       -247.0057224945718986
  @DF-RHF Final Energy:  -247.00574744074672
    Total Energy =                       -247.0057474407466884
  Basis Set: 6-31G*
  Basis Set:
  @DF-RHF Final Energy:  -247.00577484268723
    Total Energy =                       -247.0057748426874014
  Basis Set: 6-31G*
  Basis Set:
  Basis Set: 6-31G*
  Basis Set:
  @DF-RHF Final Energy:  -247.00580447240458
    Total Energy =                       -247.0058044724043498
  Basis Set: 6-31G*
  Basis Set:
  Basis Set: 6-31G*
  Basis Set:
  @DF-RHF Final Energy:  -247.00580800781034
    Total Energy =                       -247.0058080078102876
  Basis Set: 6-31G*
  Basis Set:
  Charge       = 0
  Multiplicity = 1
  Basis Set: 6-31G*
  Basis Set:

    Orbital Energies (a.u.)
    -----------------------

    Doubly Occupied:

       1A    -20.514789     2A    -15.582261     3A    -11.342010
       4A    -11.254802     5A    -11.230057     6A     -1.383892
       7A     -1.228306     8A     -1.015232     9A     -0.932282
      10A     -0.787445    11A     -0.689044    12A     -0.648052
      13A     -0.632736    14A     -0.584960    15A     -0.579633
      16A     -0.555013    17A     -0.546209    18A     -0.503542
      19A     -0.412803    20A     -0.385480

  @DF-RHF Final Energy:  -247.00580869944935

   => Energetics <=

    Nuclear Repulsion Energy =            181.4608615058979808
    One-Electron Energy =                -695.3162410922629988
    Two-Electron Energy =                 266.8495708869157284
    DFT Exchange-Correlation Energy =       0.0000000000000000
    Empirical Dispersion Energy =           0.0000000000000000
    PCM Polarization Energy =               0.0000000000000000
    EFP Energy =                            0.0000000000000000
    Total Energy =                       -247.0058086994492328
    Molecular point group: c1
  Basis Set: 6-31G*
  Basis Set:

  -Total Gradient:
     Atom            X                  Y                   Z
    ------   -----------------  -----------------  -----------------
       1       -0.000002100729    -0.000002461922     0.000004573865
       2        0.000070387952     0.000160575211    -0.000058476398
       3        0.000033126283     0.000068993171    -0.000094979444
       4       -0.000047263718    -0.000122084820     0.000044378813
       5       -0.000044962399    -0.000095939934     0.000094332293
       6        0.000000137858    -0.000000165474    -0.000000318732
       7        0.000003435126    -0.000002841692    -0.000001519842
       8       -0.000005780678    -0.000010053166     0.000023003431
       9       -0.000009022652    -0.000010058942     0.000008210599
      10       -0.000001722571     0.000004257235    -0.000019437655
      11        0.000010454129     0.000015058758    -0.000005850375
      12       -0.000006688603    -0.000005278425     0.000006083443

  **** Optimization is complete! (in 15 steps) ****
    Final optimized geometry and variables:
    Molecular point group: c1

    Geometry (in Angstrom), charge = 0, multiplicity = 1:

    H           -0.071311434839    -0.491551051335    -1.664281630704
    N           -0.433528799795    -0.153049938479    -0.803777379257
    C           -1.740185253419     0.466794382877    -0.803156015256
    C            0.390152965471    -0.085271691674     0.267749543937
    H           -2.347789166090     0.009978860227    -1.573792242951
    H           -1.684946611453     1.535422723097    -0.985280899822
    H           -2.210257846613     0.308127271716     0.155446123884
    C            1.771219319937    -0.673679336740     0.066884999181
    O            0.060622128153     0.419008172237     1.306226252026
    H            2.446867252106     0.114774995108    -0.250052036390
    H            2.125312513968    -1.060539502843     1.011866485925
    H            1.788607288814    -1.460988475113    -0.678094976083

  Mulliken Charges: (a.u.)
   Center  Symbol    Alpha    Beta     Spin     Total
       1     H     0.31009  0.31009  0.00000  0.37981
       2     N     3.89227  3.89227  0.00000 -0.78455
       3     C     3.13710  3.13710  0.00000 -0.27420
       4     C     2.63019  2.63019  0.00000  0.73963
       5     H     0.41716  0.41716  0.00000  0.16567
       6     H     0.41378  0.41378  0.00000  0.17244
       7     H     0.39470  0.39470  0.00000  0.21060
       8     C     3.29191  3.29191  0.00000 -0.58383
       9     O     4.30281  4.30281  0.00000 -0.60561
      10     H     0.40087  0.40087  0.00000  0.19826
      11     H     0.39357  0.39357  0.00000  0.21286
      12     H     0.41554  0.41554  0.00000  0.16892

   Total alpha = 20.00000, Total beta = 20.00000, Total charge =  0.00000
