                              Psi4 1.0.54 Driver

  ==> Input File <==

--------------------------------------------------------------------------
set {
	reference rhf
	basis cc-pvtz
}

set_num_threads( 4 )
memory 2 gb

molecule MOL {
0 1

H	 -1.033378	 -0.193353	 1.370244
C	 -0.131915	 0.378636	 1.182224
N	 0.526300	 -0.128137	 0.000000
H	 0.516017	 0.262198	 2.041681
H	 -0.416744	 1.430333	 1.108897
C	 -0.247113	 0.037112	 -1.209233
H	 1.417963	 0.305003	 -0.104809
H	 -0.996493	 -0.743733	 -1.271440
H	 0.397975	 -0.057351	 -2.073512
H	 -0.763794	 0.997171	 -1.271673

	symmetry c1
}
set optking {
	frozen_dihedral = ("
		2 3 6 8
	")
}

ee,wfn = optimize('scf', return_wfn=True)
oeprop( wfn, 'DIPOLE', 'QUADRUPOLE', 'MULLIKEN_CHARGES')
f=open( 'psi4out.xyz', 'w' )
f.write( "10  " )
f.write( str(ee) + "\n" )
f.write( MOL.save_string_xyz() )
f.close()
--------------------------------------------------------------------------

    Molecular point group: c1
  Charge       = 0
  Multiplicity = 1
  Basis Set: CC-PVTZ
  Basis Set:
  @DF-RHF Final Energy:  -134.29226221810328
    Total Energy =                       -134.2922622181033319
    Molecular point group: c1
  Basis Set: CC-PVTZ
  Basis Set:
  Basis Set: CC-PVTZ
  Basis Set:
  @DF-RHF Final Energy:  -134.29233416820912
    Total Energy =                       -134.2923341682090381
  Basis Set: CC-PVTZ
  Basis Set:
  Basis Set: CC-PVTZ
  Basis Set:
  @DF-RHF Final Energy:  -134.29234078578503
    Total Energy =                       -134.2923407857851430
  Basis Set: CC-PVTZ
  Basis Set:
  Charge       = 0
  Multiplicity = 1
  Basis Set: CC-PVTZ
  Basis Set:

    Orbital Energies (a.u.)
    -----------------------

    Doubly Occupied:

       1A    -15.532777     2A    -11.234279     3A    -11.234254
       4A     -1.200747     5A     -0.948538     6A     -0.854318
       7A     -0.661928     8A     -0.614864     9A     -0.592016
      10A     -0.540913    11A     -0.508821    12A     -0.505693
      13A     -0.365456

  @DF-RHF Final Energy:  -134.29234117800027

   => Energetics <=

    Nuclear Repulsion Energy =             84.7009755674650648
    One-Electron Energy =                -348.3974261189292747
    Two-Electron Energy =                 129.4041093734639389
    DFT Exchange-Correlation Energy =       0.0000000000000000
    Empirical Dispersion Energy =           0.0000000000000000
    PCM Polarization Energy =               0.0000000000000000
    EFP Energy =                            0.0000000000000000
    Total Energy =                       -134.2923411780002425
    Molecular point group: c1
  Basis Set: CC-PVTZ
  Basis Set:

  -Total Gradient:
     Atom            X                  Y                   Z
    ------   -----------------  -----------------  -----------------
       1        0.000000312934    -0.000001188590     0.000004802231
       2        0.000930699397     0.001843710250    -0.000379020643
       3       -0.000835525604    -0.002993518987     0.000090083720
       4        0.000001880754    -0.000000821726     0.000001788780
       5       -0.000016927219     0.000011725813     0.000009613749
       6       -0.001844535012     0.002737614662     0.001645112354
       7       -0.000009409474    -0.000012413711     0.000014769712
       8        0.001769859330    -0.001572945283    -0.001354052360
       9        0.000004627428    -0.000011533109    -0.000023605422
      10       -0.000000982535    -0.000000629319    -0.000009492123

  **** Optimization is complete! (in 4 steps) ****
    Final optimized geometry and variables:
    Molecular point group: c1

    Geometry (in Angstrom), charge = 0, multiplicity = 1:

    H           -1.073577797375    -0.307028151389     1.386888745662
    C           -0.171210625261     0.263094179120     1.196091671955
    N            0.483911263820    -0.242347491246     0.010941642520
    H            0.478428286812     0.144420213154     2.054000731766
    H           -0.454517484851     1.314798842064     1.122441878577
    C           -0.294988031625    -0.080798045059    -1.197846231780
    H            1.365993676645     0.208697537627    -0.096778745015
    H           -1.045660816168    -0.860316590598    -1.266532923400
    H            0.350049031543    -0.190576127097    -2.060923819169
    H           -0.793399954796     0.886696368297    -1.270231638857

  Mulliken Charges: (a.u.)
   Center  Symbol    Alpha    Beta     Spin     Total
       1     H     0.45706  0.45706  0.00000  0.08587
       2     C     3.08207  3.08207  0.00000 -0.16414
       3     N     3.62800  3.62800  0.00000 -0.25601
       4     H     0.45261  0.45261  0.00000  0.09478
       5     H     0.47393  0.47393  0.00000  0.05215
       6     C     3.07846  3.07846  0.00000 -0.15692
       7     H     0.44097  0.44097  0.00000  0.11805
       8     H     0.45592  0.45592  0.00000  0.08816
       9     H     0.45500  0.45500  0.00000  0.09000
      10     H     0.47598  0.47598  0.00000  0.04805

   Total alpha = 13.00000, Total beta = 13.00000, Total charge =  0.00000

*** Psi4 exiting successfully. Buy a developer a beer!
