  ==> Input File <==

--------------------------------------------------------------------------
set {
	reference rhf
	basis 6-31G*
}

set_num_threads( 1 )
memory 2 gb

molecule MOL {
0 1

H	 -3.765697	 1.129019	 0.687726
O	 -2.907897	 1.431994	 0.426647
C	 -2.026376	 0.340750	 0.341611
C	 -0.673256	 0.843270	 -0.132153
H	 -1.920400	 -0.137732	 1.313599
H	 -2.409229	 -0.406646	 -0.352274
C	 0.486613	 -0.083066	 0.235839
H	 -0.715586	 0.970948	 -1.210718
H	 -0.508072	 1.829858	 0.297090
C	 1.840406	 0.433480	 -0.254303
H	 0.300215	 -1.068318	 -0.178947
H	 0.519509	 -0.203625	 1.318070
C	 3.000220	 -0.489290	 0.118523
H	 1.809207	 0.553576	 -1.335192
H	 2.021860	 1.424500	 0.157276
H	 2.864959	 -1.479103	 -0.307933
H	 3.946603	 -0.099227	 -0.243630
H	 3.080049	 -0.602997	 1.196117

	symmetry c1
}
set optking {
	frozen_dihedral = ("
		14 10 7 11,
		10 7 4 8,
		1 2 3 4
	")
}

ee = energy('scf')
oeprop('DIPOLE', 'QUADRUPOLE', 'MULLIKEN_CHARGES')
f=open( 'psi4out.xyz', 'w' )
f.write( "18  " )
f.write( str(ee) + "\n" )
f.write( MOL.save_string_xyz() )
f.close()
--------------------------------------------------------------------------

    Molecular point group: c1

    Geometry (in Angstrom), charge = 0, multiplicity = 1:

       Center              X                  Y                   Z               Mass
    ------------   -----------------  -----------------  -----------------  -----------------
           H         -3.655399355247     0.704770466803     0.552747851583     1.007825032070
           O         -2.797599355247     1.007745466803     0.291668851583    15.994914619560
           C         -1.916078355247    -0.083498533197     0.206632851583    12.000000000000
           C         -0.562958355247     0.419021466803    -0.267131148417    12.000000000000
           H         -1.810102355247    -0.561980533197     1.178620851583     1.007825032070
           H         -2.298931355247    -0.830894533197    -0.487252148417     1.007825032070
           C          0.596910644753    -0.507314533197     0.100860851583    12.000000000000
           H         -0.605288355247     0.546699466803    -1.345696148417     1.007825032070
           H         -0.397774355247     1.405609466803     0.162111851583     1.007825032070
           C          1.950703644753     0.009231466803    -0.389281148417    12.000000000000
           H          0.410512644753    -1.492566533197    -0.313925148417     1.007825032070
           H          0.629806644753    -0.627873533197     1.183091851583     1.007825032070
           C          3.110517644753    -0.913538533197    -0.016455148417    12.000000000000
           H          1.919504644753     0.129327466803    -1.470170148417     1.007825032070
           H          2.132157644753     1.000251466803     0.022297851583     1.007825032070
           H          2.975256644753    -1.903351533197    -0.442911148417     1.007825032070
           H          4.056900644753    -0.523475533197    -0.378608148417     1.007825032070
           H          3.190346644753    -1.027245533197     1.061138851583     1.007825032070

  Charge       = 0
  Multiplicity = 1
  Basis Set: 6-31G*
  Basis Set:

    Orbital Energies (a.u.)
    -----------------------

    Doubly Occupied:

       1A    -20.551977     2A    -11.267065     3A    -11.216090
       4A    -11.215492     5A    -11.210492     6A    -11.208695
       7A     -1.358403     8A     -1.080359     9A     -1.010947
      10A     -0.913585    11A     -0.819518    12A     -0.792267
      13A     -0.694874    14A     -0.658655    15A     -0.622395
      16A     -0.586404    17A     -0.571710    18A     -0.557013
      19A     -0.530109    20A     -0.494182    21A     -0.489667
      22A     -0.468612    23A     -0.464438    24A     -0.451626
      25A     -0.432238

  @DF-RHF Final Energy:  -271.17785910112048

   => Energetics <=

    Nuclear Repulsion Energy =            245.2537529530977451
    One-Electron Energy =                -853.5296892099701154
    Two-Electron Energy =                 337.0980771557516391
    DFT Exchange-Correlation Energy =       0.0000000000000000
    Empirical Dispersion Energy =           0.0000000000000000
    PCM Polarization Energy =               0.0000000000000000
    EFP Energy =                            0.0000000000000000
    Total Energy =                       -271.1778591011207027

  Mulliken Charges: (a.u.)
   Center  Symbol    Alpha    Beta     Spin     Total
       1     H     0.28132  0.28132  0.00000  0.43737
       2     O     4.37167  4.37167  0.00000 -0.74334
       3     C     2.99036  2.99036  0.00000  0.01928
       4     C     3.16160  3.16160  0.00000 -0.32320
       5     H     0.43241  0.43241  0.00000  0.13518
       6     H     0.43200  0.43200  0.00000  0.13600
       7     C     3.15861  3.15861  0.00000 -0.31722
       8     H     0.41822  0.41822  0.00000  0.16357
       9     H     0.41031  0.41031  0.00000  0.17938
      10     C     3.15133  3.15133  0.00000 -0.30265
      11     H     0.42424  0.42424  0.00000  0.15153
      12     H     0.42264  0.42264  0.00000  0.15472
      13     C     3.23936  3.23936  0.00000 -0.47871
      14     H     0.42212  0.42212  0.00000  0.15575
      15     H     0.42108  0.42108  0.00000  0.15784
      16     H     0.42208  0.42208  0.00000  0.15584
      17     H     0.41892  0.41892  0.00000  0.16217
      18     H     0.42176  0.42176  0.00000  0.15649

   Total alpha = 25.00000, Total beta = 25.00000, Total charge =  0.00000
