  ==> Input File <==

--------------------------------------------------------------------------
set {
	reference rhf
	basis 6-31G*
}

set_num_threads( 4 )
memory 2 gb

molecule MOL {
0 1

O	 2.862325	 1.357334	 0.000267
C	 2.843464	 0.164689	 -0.000222
C	 1.546494	 -0.624492	 -0.000609
C	 4.124123	 -0.644674	 -0.000428
C	 0.291004	 0.242674	 0.000989
H	 1.557904	 -1.283758	 -0.867573
H	 1.558622	 -1.285963	 0.864672
C	 -0.994322	 -0.586602	 0.000262
H	 0.309117	 0.896430	 -0.865270
H	 0.309661	 0.894078	 0.869017
C	 -2.259874	 0.272531	 0.000494
H	 -1.004862	 -1.240012	 -0.870939
H	 -1.005220	 -1.241071	 0.870675
C	 -3.547657	 -0.546637	 0.103415
H	 -2.287339	 0.872261	 -0.907575
H	 -2.215543	 0.977516	 0.828762
C	 -4.807483	 0.318534	 0.102811
H	 -3.593674	 -1.250893	 -0.724672
H	 -3.522043	 -1.145426	 1.011520
H	 -4.879790	 0.904970	 -0.808788
H	 -5.703374	 -0.290317	 0.176163
H	 -4.808228	 1.010391	 0.940354
H	 4.165367	 -1.288615	 -0.874074
H	 4.976217	 0.020734	 -0.001915
H	 4.166763	 -1.286207	 0.874930

	symmetry c1
}
set optking {
	frozen_dihedral = ("
		15 11 8 12
	")
}

ee = optimize('scf')
oeprop('DIPOLE', 'QUADRUPOLE', 'MULLIKEN_CHARGES')
f=open( 'psi4out.xyz', 'w' )
f.write( "25  " )
f.write( str(ee) + "\n" )
f.write( MOL.save_string_xyz() )
f.close()
--------------------------------------------------------------------------

    Molecular point group: c1
  Charge       = 0
  Multiplicity = 1
  Basis Set: 6-31G*
  Basis Set:
  @DF-RHF Final Energy:  -387.13647423228355
    Total Energy =                       -387.1364742322836037
    Molecular point group: c1
  Basis Set: 6-31G*
  Basis Set:
  Charge       = 0
  Multiplicity = 1
  Basis Set: 6-31G*
  Basis Set:

    Orbital Energies (a.u.)
    -----------------------

    Doubly Occupied:

       1A    -20.550465     2A    -11.326302     3A    -11.231876
       4A    -11.228347     5A    -11.217103     6A    -11.216480
       7A    -11.215287     8A    -11.213564     9A    -11.208294
      10A     -1.395767    11A     -1.093655    12A     -1.056333
      13A     -1.014515    14A     -0.969200    15A     -0.890743
      16A     -0.813974    17A     -0.790684    18A     -0.729922
      19A     -0.661697    20A     -0.651915    21A     -0.632012
      22A     -0.624068    23A     -0.596067    24A     -0.584206
      25A     -0.566274    26A     -0.560065    27A     -0.540121
      28A     -0.526160    29A     -0.512908    30A     -0.489674
      31A     -0.487797    32A     -0.473304    33A     -0.463638
      34A     -0.462537    35A     -0.450579    36A     -0.399398

  @DF-RHF Final Energy:  -387.13647353100123

   => Energetics <=

    Nuclear Repulsion Energy =            438.3589154304531803
    One-Electron Energy =               -1393.3009103187469009
    Two-Electron Energy =                 567.8055213572918092
    DFT Exchange-Correlation Energy =       0.0000000000000000
    Empirical Dispersion Energy =           0.0000000000000000
    PCM Polarization Energy =               0.0000000000000000
    EFP Energy =                            0.0000000000000000
    Total Energy =                       -387.1364735310019114
    Molecular point group: c1
  Basis Set: 6-31G*
  Basis Set:

  -Total Gradient:
     Atom            X                  Y                   Z
    ------   -----------------  -----------------  -----------------
       1       -0.000003895024     0.000004599343     0.000064221840
       2       -0.000005835768     0.000001941992    -0.000191963491
       3       -0.000000045844    -0.000025828648    -0.000059567622
       4       -0.000000497343    -0.000002730468     0.000058461810
       5       -0.000127815383    -0.000114378547    -0.000234191360
       6        0.000018205682    -0.000013267890    -0.000003714545
       7       -0.000024279055     0.000023161634    -0.000008326742
       8       -0.000509137767    -0.000789393481     0.000648538491
       9        0.000025943509     0.000075230472     0.000027598268
      10       -0.000061188050    -0.000100500307     0.000024922676
      11        0.000527641053     0.000830766292     0.000601160241
      12        0.000599945812     0.000576231096    -0.000461936194
      13       -0.000051299204    -0.000045980904     0.000120481972
      14        0.000124236620     0.000103323107    -0.000214744333
      15       -0.000588981547    -0.000606543703    -0.000398953205
      16        0.000032901993     0.000053681096     0.000121594572
      17       -0.000000451391     0.000017162770    -0.000112847010
      18       -0.000017323174    -0.000085021737     0.000028474841
      19        0.000054754295     0.000116212779     0.000009490917
      20       -0.000020007357     0.000014404785    -0.000001141809
      21        0.000004392270    -0.000006624089    -0.000016874667
      22        0.000024375255    -0.000026852540    -0.000006106783
      23       -0.000009484405     0.000007024197     0.000001592788
      24       -0.000001764212     0.000000178638     0.000002853554
      25        0.000009609019    -0.000006795892     0.000000975792

  **** Optimization is complete! (in 2 steps) ****
    Final optimized geometry and variables:
    Molecular point group: c1

    Geometry (in Angstrom), charge = 0, multiplicity = 1:

    O            2.862188464340     1.355946332238    -0.010595776142
    C            2.842917986552     0.163499037558    -0.031688499761
    C            1.545796632800    -0.625430348433    -0.027812175280
    C            4.123185509841    -0.645901420036    -0.062322585785
    C            0.290741809960     0.241719892279     0.005492066312
    H            1.545320061504    -1.270081790170    -0.905773952846
    H            1.569331792885    -1.301302781916     0.826030551499
    C           -0.994749385590    -0.587296836299     0.012163224940
    H            0.296294219000     0.908463161547    -0.851088629884
    H            0.322325398495     0.879972949937     0.882751731921
    C           -2.259226487903     0.273811749732     0.001468744030
    H           -1.002267860855    -1.242991160581    -0.857317349148
    H           -1.005652089299    -1.235839388893     0.887005292362
    C           -3.548188904907    -0.545608318527     0.086088424884
    H           -2.278458367549     0.869685635261    -0.909297065585
    H           -2.225594644985     0.978841904997     0.830201223487
    C           -4.808827334975     0.316495328336     0.029163001090
    H           -3.569565090940    -1.269327487195    -0.726207280477
    H           -3.547417654374    -1.122754886230     1.008337602292
    H           -4.857578446518     0.879091028520    -0.898872401719
    H           -5.705447787076    -0.292209885304     0.094195469938
    H           -4.833010786695     1.029691309718     0.848250023877
    H            4.152872692255    -1.274801613319    -0.947317621530
    H            4.975416536000     0.019319173665    -0.063501652983
    H            4.176968468377    -1.302328914273     0.801309815207

  Mulliken Charges: (a.u.)
   Center  Symbol    Alpha    Beta     Spin     Total
       1     O     4.26115  4.26115  0.00000 -0.52230
       2     C     2.73569  2.73569  0.00000  0.52861
       3     C     3.21088  3.21088  0.00000 -0.42176
       4     C     3.28662  3.28662  0.00000 -0.57325
       5     C     3.14808  3.14808  0.00000 -0.29617
       6     H     0.41004  0.41004  0.00000  0.17993
       7     H     0.41001  0.41001  0.00000  0.17998
       8     C     3.15387  3.15387  0.00000 -0.30774
       9     H     0.41223  0.41223  0.00000  0.17554
      10     H     0.41214  0.41214  0.00000  0.17572
      11     C     3.15070  3.15070  0.00000 -0.30141
      12     H     0.42493  0.42493  0.00000  0.15015
      13     H     0.42467  0.42467  0.00000  0.15065
      14     C     3.15155  3.15155  0.00000 -0.30310
      15     H     0.42257  0.42257  0.00000  0.15485
      16     H     0.42216  0.42216  0.00000  0.15569
      17     C     3.23933  3.23933  0.00000 -0.47867
      18     H     0.42366  0.42366  0.00000  0.15268
      19     H     0.42348  0.42348  0.00000  0.15304
      20     H     0.42146  0.42146  0.00000  0.15709
      21     H     0.41953  0.41953  0.00000  0.16093
      22     H     0.42134  0.42134  0.00000  0.15733
      23     H     0.40875  0.40875  0.00000  0.18249
      24     H     0.39646  0.39646  0.00000  0.20708
      25     H     0.40869  0.40869  0.00000  0.18263

   Total alpha = 36.00000, Total beta = 36.00000, Total charge =  0.00000
