  ==> Input File <==

--------------------------------------------------------------------------
set {
	reference rhf
	basis 6-31G*
}

set_num_threads( 4 )
memory 2 gb

molecule MOL {
0 1

H	 1.136379	 0.211822	 1.465562
C	 1.135357	 0.094285	 0.374742
C	 0.065331	 0.871482	 -0.349150
O	 1.941633	 -0.601957	 -0.151457
C	 0.079299	 2.363667	 0.012332
H	 -0.894570	 0.419032	 -0.128264
H	 0.251657	 0.759029	 -1.416295
C	 -0.309707	 2.637195	 1.465700
H	 -0.605065	 2.884606	 -0.649694
H	 1.066531	 2.774751	 -0.187732
H	 -1.307385	 2.265177	 1.677284
H	 -0.299470	 3.701965	 1.674211
H	 0.372350	 2.158482	 2.162136

	symmetry c1
}
set optking {
	frozen_dihedral = ("
		6 3 2 4
	")
}

ee = optimize('scf')
oeprop('DIPOLE', 'QUADRUPOLE', 'MULLIKEN_CHARGES')
f=open( 'psi4out.xyz', 'w' )
f.write( "13  " )
f.write( str(ee) + "\n" )
f.write( MOL.save_string_xyz() )
f.close()
--------------------------------------------------------------------------

    Molecular point group: c1
  Charge       = 0
  Multiplicity = 1
  Basis Set: 6-31G*
  Basis Set:
  @DF-RHF Final Energy:  -230.98214667868504
    Total Energy =                       -230.9821466786849555
    Molecular point group: c1
  Basis Set: 6-31G*
  Basis Set:
  Basis Set: 6-31G*
  Basis Set:
  @DF-RHF Final Energy:  -230.98233521087923
    Total Energy =                       -230.9823352108792278
  Basis Set: 6-31G*
  Basis Set:
  Basis Set: 6-31G*
  Basis Set:
  @DF-RHF Final Energy:  -230.98279921382385
    Total Energy =                       -230.9827992138238244
  Basis Set: 6-31G*
  Basis Set:
  Basis Set: 6-31G*
  Basis Set:
  @DF-RHF Final Energy:  -230.98281351695388
    Total Energy =                       -230.9828135169539109
  Basis Set: 6-31G*
  Basis Set:
  Basis Set: 6-31G*
  Basis Set:
  @DF-RHF Final Energy:  -230.98287269410903
    Total Energy =                       -230.9828726941091190
  Basis Set: 6-31G*
  Basis Set:
  Basis Set: 6-31G*
  Basis Set:
  @DF-RHF Final Energy:  -230.98291878643676
    Total Energy =                       -230.9829187864368691
  Basis Set: 6-31G*
  Basis Set:
  Basis Set: 6-31G*
  Basis Set:
  @DF-RHF Final Energy:  -230.98291832009693
    Total Energy =                       -230.9829183200969851
  Basis Set: 6-31G*
  Basis Set:
  Charge       = 0
  Multiplicity = 1
  Basis Set: 6-31G*
  Basis Set:

    Orbital Energies (a.u.)
    -----------------------

    Doubly Occupied:

       1A    -20.562257     2A    -11.326198     3A    -11.239216
       4A    -11.235720     5A    -11.226066     6A     -1.401887
       7A     -1.086074     8A     -0.974020     9A     -0.853260
      10A     -0.785157    11A     -0.675710    12A     -0.648263
      13A     -0.604616    14A     -0.598753    15A     -0.578979
      16A     -0.528783    17A     -0.506645    18A     -0.495282
      19A     -0.483439    20A     -0.408774

  @DF-RHF Final Energy:  -230.98292004241520

   => Energetics <=

    Nuclear Repulsion Energy =            172.2137551966945068
    One-Electron Energy =                -653.9551525207264149
    Two-Electron Energy =                 250.7584772816166492
    DFT Exchange-Correlation Energy =       0.0000000000000000
    Empirical Dispersion Energy =           0.0000000000000000
    PCM Polarization Energy =               0.0000000000000000
    EFP Energy =                            0.0000000000000000
    Total Energy =                       -230.9829200424152873
    Molecular point group: c1
  Basis Set: 6-31G*
  Basis Set:

  -Total Gradient:
     Atom            X                  Y                   Z
    ------   -----------------  -----------------  -----------------
       1        0.000002071453    -0.000000360511     0.000003655568
       2        0.000228336979     0.000221175769    -0.000079732005
       3       -0.000064524574     0.000095182238     0.000218422191
       4       -0.000163150658    -0.000172021481     0.000031885994
       5       -0.000005698942    -0.000000996094     0.000002165318
       6        0.000012362979    -0.000134332157    -0.000181220066
       7       -0.000007913042     0.000000238395     0.000000829774
       8        0.000001643598     0.000000306931     0.000007526963
       9       -0.000000163051    -0.000002502278    -0.000007108497
      10       -0.000001157780    -0.000007469440    -0.000002053597
      11       -0.000000244493     0.000000217577     0.000001008362
      12       -0.000000640430    -0.000001609181    -0.000000519558
      13       -0.000000922037     0.000002170235     0.000005139558

  **** Optimization is complete! (in 8 steps) ****
    Final optimized geometry and variables:
    Molecular point group: c1

    Geometry (in Angstrom), charge = 0, multiplicity = 1:

    H            0.639551714313    -0.903375304847     1.164766140173
    C            0.575642728697    -0.997579974628     0.076144281235
    C           -0.502480806556    -0.189184928064    -0.601697473127
    O            1.328051902092    -1.715764306524    -0.500033109650
    C           -0.488320500241     1.302659937606    -0.227940911394
    H           -1.464097847548    -0.621982510045    -0.327593891523
    H           -0.377246397604    -0.319911475925    -1.669958476066
    C           -0.934939169341     1.604189797811     1.204431879711
    H           -1.146438235923     1.823004224683    -0.916658196448
    H            0.506332760909     1.707605622033    -0.397073183737
    H           -1.935200682032     1.222951218532     1.388822613012
    H           -0.952183536324     2.674699818697     1.380087059229
    H           -0.272482620489     1.166677626217     1.944257399703

  Mulliken Charges: (a.u.)
   Center  Symbol    Alpha    Beta     Spin     Total
       1     H     0.43021  0.43021  0.00000  0.13958
       2     C     2.83072  2.83072  0.00000  0.33855
       3     C     3.21006  3.21006  0.00000 -0.42012
       4     O     4.23820  4.23820  0.00000 -0.47641
       5     C     3.16498  3.16498  0.00000 -0.32995
       6     H     0.40876  0.40876  0.00000  0.18248
       7     H     0.39757  0.39757  0.00000  0.20485
       8     C     3.24453  3.24453  0.00000 -0.48905
       9     H     0.41109  0.41109  0.00000  0.17781
      10     H     0.41313  0.41313  0.00000  0.17374
      11     H     0.41851  0.41851  0.00000  0.16298
      12     H     0.41322  0.41322  0.00000  0.17356
      13     H     0.41901  0.41901  0.00000  0.16197

   Total alpha = 20.00000, Total beta = 20.00000, Total charge =  0.00000
