  ==> Input File <==

--------------------------------------------------------------------------
set {
	reference rhf
	basis 6-31G*
}

set_num_threads( 1 )
memory 2 gb

molecule MOL {
0 1

H	 -3.161837	 0.500524	 -0.000234
C	 -2.367097	 -0.232926	 -0.000000
O	 -1.158440	 0.455814	 -0.000122
H	 -2.468853	 -0.861886	 -0.882833
H	 -2.468942	 -0.861421	 0.883154
C	 -0.029776	 -0.365156	 0.000148
C	 -0.422543	 -1.738645	 -0.515530
H	 0.378369	 -0.441882	 1.008825
H	 0.749044	 0.067195	 -0.629471
C	 0.757089	 -2.709299	 -0.549894
H	 -1.212573	 -2.130984	 0.117387
H	 -0.844445	 -1.625542	 -1.509464
H	 1.179144	 -2.855524	 0.440516
H	 0.448649	 -3.680514	 -0.921985
H	 1.550323	 -2.346134	 -1.197424

	symmetry c1
}
set optking {
	frozen_dihedral = ("
		6 3 2 4,
		11 7 6 8
	")
}

ee = energy('scf')
oeprop('DIPOLE', 'QUADRUPOLE', 'MULLIKEN_CHARGES')
f=open( 'psi4out.xyz', 'w' )
f.write( "15  " )
f.write( str(ee) + "\n" )
f.write( MOL.save_string_xyz() )
f.close()
--------------------------------------------------------------------------

    Molecular point group: c1

    Geometry (in Angstrom), charge = 0, multiplicity = 1:

       Center              X                  Y                   Z               Mass
    ------------   -----------------  -----------------  -----------------  -----------------
           H         -2.497980134413     1.413259030470     0.208989592550     1.007825032070
           C         -1.703240134413     0.679809030470     0.209223592550    12.000000000000
           O         -0.494583134413     1.368549030470     0.209101592550    15.994914619560
           H         -1.804996134413     0.050849030470    -0.673609407450     1.007825032070
           H         -1.805085134413     0.051314030470     1.092377592550     1.007825032070
           C          0.634080865587     0.547579030470     0.209371592550    12.000000000000
           C          0.241313865587    -0.825909969530    -0.306306407450    12.000000000000
           H          1.042225865587     0.470853030470     1.218048592550     1.007825032070
           H          1.412900865587     0.979930030470    -0.420247407450     1.007825032070
           C          1.420945865587    -1.796563969530    -0.340670407450    12.000000000000
           H         -0.548716134413    -1.218248969530     0.326610592550     1.007825032070
           H         -0.180588134413    -0.712806969530    -1.300240407450     1.007825032070
           H          1.843000865587    -1.942788969530     0.649739592550     1.007825032070
           H          1.112505865587    -2.767778969530    -0.712761407450     1.007825032070
           H          2.214179865587    -1.433398969530    -0.988200407450     1.007825032070

  Charge       = 0
  Multiplicity = 1
  Basis Set: 6-31G*
  Basis Set:

    Orbital Energies (a.u.)
    -----------------------

    Doubly Occupied:

       1A    -20.550025     2A    -11.266668     3A    -11.260917
       4A    -11.218655     5A    -11.215697     6A     -1.379011
       7A     -1.057328     8A     -0.962302     9A     -0.897873
      10A     -0.793158    11A     -0.680373    12A     -0.666853
      13A     -0.627561    14A     -0.600245    15A     -0.562031
      16A     -0.544962    17A     -0.524576    18A     -0.500203
      19A     -0.493806    20A     -0.441216    21A     -0.402805

  @DF-RHF Final Energy:  -232.11545333588305

   => Energetics <=

    Nuclear Repulsion Energy =            196.1518992344705907
    One-Electron Energy =                -703.2421800459603674
    Two-Electron Energy =                 274.9748274756067303
    DFT Exchange-Correlation Energy =       0.0000000000000000
    Empirical Dispersion Energy =           0.0000000000000000
    PCM Polarization Energy =               0.0000000000000000
    EFP Energy =                            0.0000000000000000
    Total Energy =                       -232.1154533358830463

  Mulliken Charges: (a.u.)
   Center  Symbol    Alpha    Beta     Spin     Total
       1     H     0.41023  0.41023  0.00000  0.17953
       2     C     3.08898  3.08898  0.00000 -0.17796
       3     O     4.30965  4.30965  0.00000 -0.61930
       4     H     0.42488  0.42488  0.00000  0.15024
       5     H     0.42845  0.42845  0.00000  0.14310
       6     C     2.97060  2.97060  0.00000  0.05879
       7     C     3.19205  3.19205  0.00000 -0.38411
       8     H     0.42994  0.42994  0.00000  0.14012
       9     H     0.42076  0.42076  0.00000  0.15848
      10     C     3.24162  3.24162  0.00000 -0.48323
      11     H     0.41339  0.41339  0.00000  0.17323
      12     H     0.41264  0.41264  0.00000  0.17471
      13     H     0.42007  0.42007  0.00000  0.15987
      14     H     0.41679  0.41679  0.00000  0.16641
      15     H     0.41994  0.41994  0.00000  0.16012

   Total alpha = 21.00000, Total beta = 21.00000, Total charge =  0.00000
