  ==> Input File <==

--------------------------------------------------------------------------
set {
	reference rhf
	basis 6-31G*
}

set_num_threads( 4 )
memory 2 gb

molecule MOL {
0 1

H	 -1.482313	 -1.932148	 -0.542929
C	 -1.235524	 -1.191512	 -1.297724
O	 -0.774054	 0.001095	 -0.743181
H	 -2.138248	 -0.948684	 -1.842200
H	 -0.525278	 -1.627691	 -1.993778
C	 0.406953	 0.000033	 0.038965
C	 1.527284	 -0.003667	 -0.998752
C	 0.498933	 1.262172	 0.902524
C	 0.494271	 -1.259566	 0.906664
H	 1.452513	 0.873252	 -1.631882
H	 1.448863	 -0.881882	 -1.629595
H	 2.502020	 -0.005104	 -0.521731
H	 0.364280	 2.147110	 0.289513
H	 1.472180	 1.321775	 1.378800
H	 -0.247853	 1.275162	 1.689097
H	 0.356778	 -2.146106	 0.296587
H	 1.467182	 -1.320941	 1.383330
H	 -0.252763	 -1.267328	 1.693119

	symmetry c1
}
set optking {
	frozen_dihedral = ("
		2 3 6 7
	")
}

ee = optimize('scf')
oeprop('DIPOLE', 'QUADRUPOLE', 'MULLIKEN_CHARGES')
f=open( 'psi4out.xyz', 'w' )
f.write( "18  " )
f.write( str(ee) + "\n" )
f.write( MOL.save_string_xyz() )
f.close()
--------------------------------------------------------------------------

    Molecular point group: c1
  Charge       = 0
  Multiplicity = 1
  Basis Set: 6-31G*
  Basis Set:
  @DF-RHF Final Energy:  -271.16810582222882
    Total Energy =                       -271.1681058222289380
    Molecular point group: c1
  Basis Set: 6-31G*
  Basis Set:
  Basis Set: 6-31G*
  Basis Set:
  @DF-RHF Final Energy:  -271.17240733655746
    Total Energy =                       -271.1724073365575123
  Basis Set: 6-31G*
  Basis Set:
  Basis Set: 6-31G*
  Basis Set:
  @DF-RHF Final Energy:  -271.17496921004204
    Total Energy =                       -271.1749692100420361
  Basis Set: 6-31G*
  Basis Set:
  Basis Set: 6-31G*
  Basis Set:
  @DF-RHF Final Energy:  -271.17498787141949
    Total Energy =                       -271.1749878714191482
  Basis Set: 6-31G*
  Basis Set:
  @DF-RHF Final Energy:  -271.17506063338294
    Total Energy =                       -271.1750606333830547
  Basis Set: 6-31G*
  Basis Set:
  @DF-RHF Final Energy:  -271.17507446765018
    Total Energy =                       -271.1750744676504610
  Basis Set: 6-31G*
  Basis Set:
  Basis Set: 6-31G*
  Basis Set:
  @DF-RHF Final Energy:  -271.17506849746354
    Total Energy =                       -271.1750684974635419
  Basis Set: 6-31G*
  Basis Set:
  Basis Set: 6-31G*
  Basis Set:
  @DF-RHF Final Energy:  -271.17507693398903
    Total Energy =                       -271.1750769339888620
  Basis Set: 6-31G*
  Basis Set:
  Charge       = 0
  Multiplicity = 1
  Basis Set: 6-31G*
  Basis Set:

    Orbital Energies (a.u.)
    -----------------------

    Doubly Occupied:

       1A    -20.546482     2A    -11.281261     3A    -11.261130
       4A    -11.211311     5A    -11.206413     6A    -11.203144
       7A     -1.369791     8A     -1.073100     9A     -0.947858
      10A     -0.937930    11A     -0.912184    12A     -0.752223
      13A     -0.655603    14A     -0.645079    15A     -0.637715
      16A     -0.590549    17A     -0.573880    18A     -0.552339
      19A     -0.535120    20A     -0.524559    21A     -0.514773
      22A     -0.489520    23A     -0.485576    24A     -0.439968
      25A     -0.402512

  @DF-RHF Final Energy:  -271.17507703223595

   => Energetics <=

    Nuclear Repulsion Energy =            272.3284545133979577
    One-Electron Energy =                -907.5070240344034573
    Two-Electron Energy =                 364.0034924887695524
    DFT Exchange-Correlation Energy =       0.0000000000000000
    Empirical Dispersion Energy =           0.0000000000000000
    PCM Polarization Energy =               0.0000000000000000
    EFP Energy =                            0.0000000000000000
    Total Energy =                       -271.1750770322360040
    Molecular point group: c1
  Basis Set: 6-31G*
  Basis Set:

  -Total Gradient:
     Atom            X                  Y                   Z
    ------   -----------------  -----------------  -----------------
       1        0.000000932052    -0.000005787757     0.000001212749
       2       -0.000806224887    -0.000357611749     0.001478194452
       3        0.001218197176     0.001101880746    -0.002157169119
       4        0.000003170234     0.000000512505    -0.000000169750
       5        0.000000618850    -0.000005032288    -0.000000520471
       6       -0.000492739248    -0.002175168300     0.000588752169
       7        0.000020634128     0.001455801407     0.000122583079
       8        0.000020824230     0.000005686460    -0.000023398177
       9        0.000027504349    -0.000001935313    -0.000001562052
      10       -0.000005401895    -0.000003795906    -0.000002526660
      11       -0.000008571477    -0.000002342835     0.000013924108
      12        0.000006723836     0.000005811685     0.000001682991
      13       -0.000005312554     0.000003331072     0.000003108092
      14        0.000011814904     0.000006949579     0.000000160023
      15        0.000002178376    -0.000019741829    -0.000014106463
      16       -0.000000018351    -0.000012138038    -0.000003218756
      17        0.000004308826    -0.000009225899     0.000007664491
      18        0.000001361452     0.000012806461    -0.000014610705

  **** Optimization is complete! (in 9 steps) ****
    Final optimized geometry and variables:
    Molecular point group: c1

    Geometry (in Angstrom), charge = 0, multiplicity = 1:

    H           -1.792216228351    -1.638499856592    -0.309717729118
    C           -1.462798820672    -0.915956112380    -1.050027680893
    O           -0.938705786380     0.235426802690    -0.465325590686
    H           -2.321913741774    -0.605293819457    -1.629622608832
    H           -0.758730117951    -1.402883775064    -1.719684136326
    C            0.304428239243     0.170668924376     0.213230034822
    C            1.445749387861     0.209846253206    -0.807250375630
    C            0.327172046064     1.437945230984     1.065722350076
    C            0.413777637941    -1.063114428282     1.113275374712
    H            1.348949748520     1.086627938887    -1.437646396424
    H            1.441908551995    -0.667492441078    -1.446134790484
    H            2.409275098363     0.248405415945    -0.308690851641
    H            0.197021086222     2.311200242571     0.436722679517
    H            1.267152082521     1.533459591901     1.599941414420
    H           -0.481829214672     1.419734394313     1.787497113523
    H            0.462588990528    -1.984752957546     0.543313606314
    H            1.316238305946    -1.002822100310     1.712269977295
    H           -0.434633695680    -1.121719509545     1.787252055361

  Mulliken Charges: (a.u.)
   Center  Symbol    Alpha    Beta     Spin     Total
       1     H     0.42775  0.42775  0.00000  0.14450
       2     C     3.07886  3.07886  0.00000 -0.15772
       3     O     4.31955  4.31955  0.00000 -0.63910
       4     H     0.41270  0.41270  0.00000  0.17460
       5     H     0.43163  0.43163  0.00000  0.13673
       6     C     2.84267  2.84267  0.00000  0.31465
       7     C     3.23969  3.23969  0.00000 -0.47938
       8     C     3.23277  3.23277  0.00000 -0.46554
       9     C     3.25325  3.25325  0.00000 -0.50650
      10     H     0.41340  0.41340  0.00000  0.17321
      11     H     0.42133  0.42133  0.00000  0.15735
      12     H     0.42274  0.42274  0.00000  0.15451
      13     H     0.41319  0.41319  0.00000  0.17363
      14     H     0.42532  0.42532  0.00000  0.14937
      15     H     0.41585  0.41585  0.00000  0.16830
      16     H     0.41870  0.41870  0.00000  0.16260
      17     H     0.41690  0.41690  0.00000  0.16619
      18     H     0.41370  0.41370  0.00000  0.17260

   Total alpha = 25.00000, Total beta = 25.00000, Total charge =  0.00000
