  ==> Input File <==

--------------------------------------------------------------------------
set {
	reference rhf
	basis cc-pvtz
}

set_num_threads( 4 )
memory 2 gb

molecule MOL {
0 1

H	 2.635799	 -0.494792	 -0.994742
N	 1.659728	 -0.294941	 -1.010695
C	 1.297825	 0.578208	 0.087704
C	 0.885905	 -1.520005	 -0.994578
H	 1.878667	 1.490120	 0.021448
H	 1.495767	 0.124076	 1.060433
C	 -0.180372	 0.911851	 -0.000000
H	 1.168261	 -2.128506	 -1.845080
H	 1.057822	 -2.106703	 -0.090228
C	 -0.591752	 -1.183612	 -1.080864
H	 -0.357873	 1.505767	 -0.901304
H	 -0.465765	 1.516328	 0.852805
N	 -0.976577	 -0.298712	 -0.000000
H	 -1.174599	 -2.094287	 -1.009591
H	 -0.797593	 -0.734056	 -2.056630
C	 -2.391156	 -0.021003	 -0.000000
H	 -2.853954	 -0.458728	 -0.875714
H	 -2.853954	 -0.458728	 0.875714
H	 -2.614037	 1.049773	 -0.000000

	symmetry c1
}
set optking {
	frozen_dihedral = ("
		7 13 16 19
	")
}

ee = optimize('scf')
oeprop('DIPOLE', 'QUADRUPOLE', 'MULLIKEN_CHARGES')
f=open( 'psi4out.xyz', 'w' )
f.write( "19  " )
f.write( str(ee) + "\n" )
f.write( MOL.save_string_xyz() )
f.close()
--------------------------------------------------------------------------

    Molecular point group: c1
  Charge       = 0
  Multiplicity = 1
  Basis Set: CC-PVTZ
  Basis Set:
  @DF-RHF Final Energy:  -305.30225588038905
    Total Energy =                       -305.3022558803891116
    Molecular point group: c1
  Basis Set: CC-PVTZ
  Basis Set:
  Basis Set: CC-PVTZ
  Basis Set:
  @DF-RHF Final Energy:  -305.30292797241668
    Total Energy =                       -305.3029279724167395
  Basis Set: CC-PVTZ
  Basis Set:
  Basis Set: CC-PVTZ
  Basis Set:
  @DF-RHF Final Energy:  -305.30305754417401
    Total Energy =                       -305.3030575441740666
  Basis Set: CC-PVTZ
  Basis Set:
  Basis Set: CC-PVTZ
  Basis Set:
  @DF-RHF Final Energy:  -305.30306730750323
    Total Energy =                       -305.3030673075033974
  Basis Set: CC-PVTZ
  Basis Set:
  Charge       = 0
  Multiplicity = 1
  Basis Set: CC-PVTZ
  Basis Set:

    Orbital Energies (a.u.)
    -----------------------

    Doubly Occupied:

       1A    -15.532524     2A    -15.530629     3A    -11.236470
       4A    -11.236446     5A    -11.235654     6A    -11.235623
       7A    -11.232952     8A     -1.246037     9A     -1.184985
      10A     -1.023622    11A     -0.964947    12A     -0.861313
      13A     -0.859046    14A     -0.756382    15A     -0.691823
      16A     -0.632176    17A     -0.624139    18A     -0.605980
      19A     -0.605572    20A     -0.582166    21A     -0.544131
      22A     -0.535591    23A     -0.512112    24A     -0.488211
      25A     -0.467595    26A     -0.457432    27A     -0.365445
      28A     -0.340257

  @DF-RHF Final Energy:  -305.30306824917716

   => Energetics <=

    Nuclear Repulsion Energy =            339.7044324901762593
    One-Electron Energy =               -1086.8364862389207701
    Two-Electron Energy =                 441.8289854995671817
    DFT Exchange-Correlation Energy =       0.0000000000000000
    Empirical Dispersion Energy =           0.0000000000000000
    PCM Polarization Energy =               0.0000000000000000
    EFP Energy =                            0.0000000000000000
    Total Energy =                       -305.3030682491773291
    Molecular point group: c1
  Basis Set: CC-PVTZ
  Basis Set:

  -Total Gradient:
     Atom            X                  Y                   Z
    ------   -----------------  -----------------  -----------------
       1        0.000007467372     0.000002215643     0.000002115821
       2       -0.000011952010     0.000007160997    -0.000001731439
       3        0.000010964541    -0.000012877371     0.000013446131
       4        0.000003713143    -0.000011551730    -0.000032447018
       5        0.000002657550     0.000000063714    -0.000001642157
       6       -0.000002431025     0.000004443070     0.000007229095
       7        0.000010317217    -0.000009189815     0.001046704592
       8        0.000015756614    -0.000005131973    -0.000003058153
       9       -0.000013775843     0.000004319515    -0.000004914035
      10       -0.000011197471    -0.000024723655     0.000006904640
      11       -0.000008781909    -0.000007338684     0.000001895780
      12        0.000003988772    -0.000002028382    -0.000001211603
      13        0.000008665171     0.000056921546    -0.001825543928
      14        0.000004112371     0.000000548627    -0.000003609627
      15        0.000006990609    -0.000003443371     0.000007969635
      16       -0.000031714845    -0.000044506351     0.002222568113
      17       -0.000001199676     0.000000708073    -0.000002883537
      18        0.000035646934    -0.000006930166    -0.000032119854
      19       -0.000029227515     0.000051340315    -0.001399672456

  **** Optimization is complete! (in 5 steps) ****
    Final optimized geometry and variables:
    Molecular point group: c1

    Geometry (in Angstrom), charge = 0, multiplicity = 1:

    H            2.692916318175    -0.245305188679    -0.545916599579
    N            1.717491537811    -0.042798093326    -0.570546201322
    C            1.349756998269     0.836485539758     0.520764697715
    C            0.940319828825    -1.265498031564    -0.553545987403
    H            1.939290982156     1.743347259364     0.459630155590
    H            1.531939069501     0.382496960196     1.496865844965
    C           -0.124581996975     1.183172014818     0.415867590788
    H            1.231432599289    -1.882639340485    -1.395027123390
    H            1.099679483257    -1.844190142707     0.358436465999
    C           -0.535500525769    -0.926506385909    -0.660671897685
    H           -0.282565295712     1.789466230156    -0.481153579393
    H           -0.411885993265     1.781792046439     1.271749488582
    N           -0.928203850895    -0.020715013117     0.397344172469
    H           -1.118404005774    -1.836077968633    -0.576257787457
    H           -0.730700507966    -0.499168950137    -1.648732339309
    C           -2.358488152400     0.223789221606     0.452436553408
    H           -2.862759723996    -0.155216758479    -0.431968329280
    H           -2.808145940347    -0.249814830535     1.318474038670
    H           -2.573385123958     1.285268678823     0.498509032618

  Mulliken Charges: (a.u.)
   Center  Symbol    Alpha    Beta     Spin     Total
       1     H     0.43995  0.43995  0.00000  0.12010
       2     N     3.64275  3.64275  0.00000 -0.28550
       3     C     3.04198  3.04198  0.00000 -0.08397
       4     C     3.04203  3.04203  0.00000 -0.08406
       5     H     0.45275  0.45275  0.00000  0.09450
       6     H     0.46625  0.46625  0.00000  0.06750
       7     C     3.03445  3.03445  0.00000 -0.06890
       8     H     0.45275  0.45275  0.00000  0.09450
       9     H     0.46622  0.46622  0.00000  0.06756
      10     C     3.03464  3.03464  0.00000 -0.06929
      11     H     0.46903  0.46903  0.00000  0.06194
      12     H     0.45377  0.45377  0.00000  0.09246
      13     N     3.61676  3.61676  0.00000 -0.23353
      14     H     0.45368  0.45368  0.00000  0.09264
      15     H     0.46892  0.46892  0.00000  0.06217
      16     C     3.09129  3.09129  0.00000 -0.18258
      17     H     0.46248  0.46248  0.00000  0.07503
      18     H     0.45035  0.45035  0.00000  0.09930
      19     H     0.45994  0.45994  0.00000  0.08012

   Total alpha = 28.00000, Total beta = 28.00000, Total charge = -0.00000
