  ==> Input File <==

--------------------------------------------------------------------------
set {
	reference rhf
	basis 6-31G*
}

set_num_threads( 4 )
memory 2 gb

molecule MOL {
0 1

H	 -2.646374	 -0.642757	 1.268656
C	 -2.083525	 -0.384536	 0.393091
O	 -0.807605	 -0.127164	 0.768327
F	 -2.118945	 -1.383102	 -0.486752
F	 -2.621877	 0.670592	 -0.209486
C	 0.084052	 0.273579	 -0.209957
C	 1.353033	 -0.546803	 -0.018071
Cl	 0.433844	 2.004619	 -0.074457
H	 -0.288836	 0.092657	 -1.202930
F	 2.330912	 -0.058983	 -0.751504
F	 1.122816	 -1.783120	 -0.412985
F	 1.738631	 -0.576016	 1.234301

	symmetry c1
}
set optking {
	frozen_dihedral = ("
		10 7 6 9
	")
}

ee = optimize('scf')
oeprop('DIPOLE', 'QUADRUPOLE', 'MULLIKEN_CHARGES')
f=open( 'psi4out.xyz', 'w' )
f.write( "12  " )
f.write( str(ee) + "\n" )
f.write( MOL.save_string_xyz() )
f.close()
--------------------------------------------------------------------------

    Molecular point group: c1
  Charge       = 0
  Multiplicity = 1
  Basis Set: 6-31G*
  Basis Set:
  @DF-RHF Final Energy: -1146.31330449664210
    Total Energy =                      -1146.3133044966423313
    Molecular point group: c1
  Basis Set: 6-31G*
  Basis Set:
  Basis Set: 6-31G*
  Basis Set:
  @DF-RHF Final Energy: -1146.31345007856817
    Total Energy =                      -1146.3134500785672572
  Basis Set: 6-31G*
  Basis Set:
  Basis Set: 6-31G*
  Basis Set:
  @DF-RHF Final Energy: -1146.31355754853803
    Total Energy =                      -1146.3135575485384834
  Basis Set: 6-31G*
  Basis Set:
  Basis Set: 6-31G*
  Basis Set:
  @DF-RHF Final Energy: -1146.31356155627327
    Total Energy =                      -1146.3135615562737257
  Basis Set: 6-31G*
  Basis Set:
  Basis Set: 6-31G*
  Basis Set:
  @DF-RHF Final Energy: -1146.31356289576638
    Total Energy =                      -1146.3135628957661538
  Basis Set: 6-31G*
  Basis Set:
  Charge       = 0
  Multiplicity = 1
  Basis Set: 6-31G*
  Basis Set:

    Orbital Energies (a.u.)
    -----------------------

    Doubly Occupied:

       1A   -104.844479     2A    -26.359745     3A    -26.359688
       4A    -26.355818     5A    -26.346031     6A    -26.345626
       7A    -20.648806     8A    -11.527493     9A    -11.488929
      10A    -11.400557    11A    -10.579200    12A     -8.048570
      13A     -8.045001    14A     -8.044935    15A     -1.760911
      16A     -1.717246    17A     -1.657736    18A     -1.655376
      19A     -1.637950    20A     -1.484854    21A     -1.180179
      22A     -1.052147    23A     -0.985728    24A     -0.919108
      25A     -0.859251    26A     -0.851415    27A     -0.845903
      28A     -0.823172    29A     -0.810312    30A     -0.789724
      31A     -0.726998    32A     -0.724502    33A     -0.705519
      34A     -0.701655    35A     -0.678767    36A     -0.673940
      37A     -0.657659    38A     -0.657381    39A     -0.645412
      40A     -0.633652    41A     -0.596904    42A     -0.580564
      43A     -0.524587    44A     -0.476744    45A     -0.469378

  @DF-RHF Final Energy: -1146.31356360995778

   => Energetics <=

    Nuclear Repulsion Energy =            738.0873187897630032
    One-Electron Energy =               -3059.0426632996532135
    Two-Electron Energy =                1174.6417808999322006
    DFT Exchange-Correlation Energy =       0.0000000000000000
    Empirical Dispersion Energy =           0.0000000000000000
    PCM Polarization Energy =               0.0000000000000000
    EFP Energy =                            0.0000000000000000
    Total Energy =                      -1146.3135636099577823
    Molecular point group: c1
  Basis Set: 6-31G*
  Basis Set:

  -Total Gradient:
     Atom            X                  Y                   Z
    ------   -----------------  -----------------  -----------------
       1       -0.000013973916    -0.000005108979    -0.000001852372
       2        0.000099005124     0.000005259555     0.000025894861
       3       -0.000108047430    -0.000001206194     0.000144314007
       4       -0.000017499581    -0.000020774551    -0.000022778060
       5       -0.000057770662    -0.000000260450    -0.000011368966
       6        0.003078533922     0.004456279166    -0.001138088353
       7       -0.001689879890    -0.003366606096    -0.003072630645
       8        0.000005198042    -0.000131557284    -0.000006569735
       9       -0.002172479787    -0.003004637123     0.001443535985
      10        0.000865482835     0.002025874110     0.002480605399
      11        0.000005419115     0.000057679969     0.000011175620
      12        0.000006012209    -0.000014942220     0.000147762253

  **** Optimization is complete! (in 6 steps) ****
    Final optimized geometry and variables:
    Molecular point group: c1

    Geometry (in Angstrom), charge = 0, multiplicity = 1:

    H           -2.639230612894    -0.665449635626     1.258255212563
    C           -2.079798083516    -0.389486720002     0.385917677358
    O           -0.801140550359    -0.146554841658     0.759723676480
    F           -2.124416587274    -1.368719896112    -0.515803425485
    F           -2.618179209117     0.680278100322    -0.190377883909
    C            0.088877531848     0.275838051233    -0.215437409905
    C            1.357296166204    -0.549403279519    -0.023509825648
    CL           0.418551739729     2.005367604137    -0.060918955356
    H           -0.296898014990     0.082007479540    -1.201127557585
    F            2.339193371986    -0.091637759101    -0.768191554901
    F            1.110851584017    -1.794771043347    -0.376735509656
    F            1.752615669308    -0.543129394888     1.227757600357

  Mulliken Charges: (a.u.)
   Center  Symbol    Alpha    Beta     Spin     Total
       1     H     0.40130  0.40130  0.00000  0.19741
       2     C     2.56602  2.56602  0.00000  0.86796
       3     O     4.29873  4.29873  0.00000 -0.59746
       4     F     4.68658  4.68658  0.00000 -0.37317
       5     F     4.68421  4.68421  0.00000 -0.36842
       6     C     3.04901  3.04901  0.00000 -0.09803
       7     C     2.43254  2.43254  0.00000  1.13491
       8    CL     8.49697  8.49697  0.00000  0.00605
       9     H     0.36705  0.36705  0.00000  0.26589
      10     F     4.67248  4.67248  0.00000 -0.34495
      11     F     4.67558  4.67558  0.00000 -0.35116
      12     F     4.66952  4.66952  0.00000 -0.33904

   Total alpha = 45.00000, Total beta = 45.00000, Total charge =  0.00000
