                              Psi4 1.0.54 Driver

  ==> Input File <==

--------------------------------------------------------------------------
set {
	reference rhf
	basis cc-pvtz
}

set_num_threads( 4 )
memory 2 gb

molecule MOL {
0 1

H	 -0.000105	 1.988529	 0.748933
O	 -0.000098	 1.879786	 -0.188206
C	 -0.000014	 0.545691	 -0.532416
C	 -1.286000	 -0.125171	 -0.046657
C	 1.286016	 -0.125031	 -0.046584
H	 0.000021	 0.481103	 -1.610604
F	 -2.240540	 0.769507	 0.025903
F	 -1.686518	 -1.075797	 -0.852639
F	 -1.132164	 -0.642854	 1.153223
F	 2.317750	 0.468717	 -0.594166
F	 1.336617	 -1.393765	 -0.365123
F	 1.414467	 -0.024806	 1.259108

	symmetry c1
}
set optking {
	frozen_dihedral = ("
		7 4 3 6
	")
}

ee,wfn = optimize('scf', return_wfn=True)
oeprop( wfn, 'DIPOLE', 'QUADRUPOLE', 'MULLIKEN_CHARGES')
f=open( 'psi4out.xyz', 'w' )
f.write( "12  " )
f.write( str(ee) + "\n" )
f.write( MOL.save_string_xyz() )
f.close()
--------------------------------------------------------------------------

    Molecular point group: c1
  Charge       = 0
  Multiplicity = 1
  Basis Set: CC-PVTZ
  Basis Set:
  @DF-RHF Final Energy:  -786.58498032323450
    Total Energy =                       -786.5849803232340491
    Molecular point group: c1
  Basis Set: CC-PVTZ
  Basis Set:
  Basis Set: CC-PVTZ
  Basis Set:
  @DF-RHF Final Energy:  -786.58609307614347
    Total Energy =                       -786.5860930761435839
  Basis Set: CC-PVTZ
  Basis Set:
  Basis Set: CC-PVTZ
  Basis Set:
  @DF-RHF Final Energy:  -786.58667127616445
    Total Energy =                       -786.5866712761651343
  Basis Set: CC-PVTZ
  Basis Set:
  Basis Set: CC-PVTZ
  Basis Set:
  @DF-RHF Final Energy:  -786.58675568906165
    Total Energy =                       -786.5867556890615333
  Basis Set: CC-PVTZ
  Basis Set:
  Basis Set: CC-PVTZ
  Basis Set:
  @DF-RHF Final Energy:  -786.58678038512164
    Total Energy =                       -786.5867803851214148
  Basis Set: CC-PVTZ
  Basis Set:
  Basis Set: CC-PVTZ
  Basis Set:
  @DF-RHF Final Energy:  -786.58679391056125
    Total Energy =                       -786.5867939105613686
  Basis Set: CC-PVTZ
  Basis Set:
  Charge       = 0
  Multiplicity = 1
  Basis Set: CC-PVTZ
  Basis Set:

    Orbital Energies (a.u.)
    -----------------------

    Doubly Occupied:

       1A    -26.358266     2A    -26.358102     3A    -26.356429
       4A    -26.354353     5A    -26.354161     6A    -26.354012
       7A    -20.610812     8A    -11.519251     9A    -11.519103
      10A    -11.351462    11A     -1.771621    12A     -1.765516
      13A     -1.666524    14A     -1.663370    15A     -1.663237
      16A     -1.659418    17A     -1.440850    18A     -1.103093
      19A     -1.000400    20A     -0.944257    21A     -0.870638
      22A     -0.867676    23A     -0.858443    24A     -0.852955
      25A     -0.839519    26A     -0.820371    27A     -0.743949
      28A     -0.736115    29A     -0.733575    30A     -0.727615
      31A     -0.695541    32A     -0.691832    33A     -0.690216
      34A     -0.682530    35A     -0.675807    36A     -0.666854
      37A     -0.664622    38A     -0.657724    39A     -0.624057
      40A     -0.551784    41A     -0.510012

  @DF-RHF Final Energy:  -786.58679475973202

   => Energetics <=

    Nuclear Repulsion Energy =            671.4865263552254646
    One-Electron Energy =               -2430.1944946415333106
    Two-Electron Energy =                 972.1211735265756033
    DFT Exchange-Correlation Energy =       0.0000000000000000
    Empirical Dispersion Energy =           0.0000000000000000
    PCM Polarization Energy =               0.0000000000000000
    EFP Energy =                            0.0000000000000000
    Total Energy =                       -786.5867947597321290
    Molecular point group: c1
  Basis Set: CC-PVTZ
  Basis Set:

  -Total Gradient:
     Atom            X                  Y                   Z
    ------   -----------------  -----------------  -----------------
       1       -0.000004398421    -0.000037816112    -0.000028222777
       2       -0.000006623245    -0.000065456015    -0.000032825234
       3       -0.002702728397     0.005005349243     0.000841683219
       4       -0.000650961166    -0.001863736419    -0.004850348476
       5       -0.000010272032     0.000076073930    -0.000029336062
       6        0.002518983773    -0.003865635488     0.000259497681
       7        0.000897286973     0.000836637103     0.003745119266
       8       -0.000009259854    -0.000009324560    -0.000027670878
       9       -0.000002537758    -0.000008676759     0.000108627335
      10        0.000003199486     0.000014102727     0.000003016141
      11       -0.000020237940    -0.000060835820     0.000026934042
      12       -0.000012451424    -0.000020681820    -0.000016474260

  **** Optimization is complete! (in 7 steps) ****
    Final optimized geometry and variables:
    Molecular point group: c1

    Geometry (in Angstrom), charge = 0, multiplicity = 1:

    H           -0.008065064360     2.028261403211     0.777655236563
    O           -0.048171260923     1.921935212926    -0.158625264364
    C           -0.027599042103     0.595489389889    -0.514795862068
    C           -1.275060902844    -0.173776126636    -0.041860405748
    C            1.274049375837    -0.062622085520    -0.052390927089
    H           -0.013866675079     0.526210197715    -1.592247721535
    F           -2.307087190604     0.627614289221     0.023481448362
    F           -1.557243024959    -1.150348875910    -0.868738079972
    F           -1.116962191091    -0.693987017097     1.157370492107
    F            2.283881099812     0.444277104867    -0.716577287894
    F            1.261433471787    -1.356861311606    -0.260188983228
    F            1.495768406794     0.148889680422     1.226106469180

  Mulliken Charges: (a.u.)
   Center  Symbol    Alpha    Beta     Spin     Total
       1     H     0.38323  0.38323  0.00000  0.23353
       2     O     4.18433  4.18433  0.00000 -0.36865
       3     C     3.01075  3.01075  0.00000 -0.02150
       4     C     2.68063  2.68063  0.00000  0.63873
       5     C     2.68072  2.68072  0.00000  0.63856
       6     H     0.42779  0.42779  0.00000  0.14441
       7     F     4.60052  4.60052  0.00000 -0.20105
       8     F     4.60530  4.60530  0.00000 -0.21060
       9     F     4.60849  4.60849  0.00000 -0.21698
      10     F     4.60261  4.60261  0.00000 -0.20522
      11     F     4.60491  4.60491  0.00000 -0.20983
      12     F     4.61071  4.61071  0.00000 -0.22141

   Total alpha = 41.00000, Total beta = 41.00000, Total charge = -0.00000

*** Psi4 exiting successfully. Buy a developer a beer!
