                              Psi4 1.0.54 Driver

  ==> Input File <==

--------------------------------------------------------------------------
set {
	reference rhf
	basis cc-pvtz
}

set_num_threads( 4 )
memory 2 gb

molecule MOL {
0 1

O	 -2.071633	 -1.227563	 -0.223463
C	 -1.652164	 -0.152425	 0.058082
C	 -0.327811	 0.006324	 0.778296
C	 -2.402515	 1.108629	 -0.298924
C	 -0.400158	 1.122873	 1.826870
H	 -0.044607	 -0.926859	 1.253787
H	 0.421182	 0.252024	 0.036353
C	 0.920987	 1.326579	 2.562606
H	 -1.180675	 0.898831	 2.549568
H	 -0.689638	 2.044303	 1.333379
C	 0.857400	 2.444508	 3.597668
H	 1.209006	 0.399074	 3.049743
H	 1.700935	 1.547376	 1.839785
H	 0.109333	 2.235397	 4.355099
H	 0.602366	 3.391626	 3.134749
H	 1.810118	 2.567214	 4.099338
H	 -3.240910	 0.874416	 -0.936711
H	 -1.747554	 1.818823	 -0.790984
H	 -2.760419	 1.579708	 0.610998

	symmetry c1
}
set optking {
	frozen_dihedral = ("
		5 3 2 4
	")
}

ee,wfn = optimize('scf', return_wfn=True)
oeprop( wfn, 'DIPOLE', 'QUADRUPOLE', 'MULLIKEN_CHARGES')
f=open( 'psi4out.xyz', 'w' )
f.write( "19  " )
f.write( str(ee) + "\n" )
f.write( MOL.save_string_xyz() )
f.close()
--------------------------------------------------------------------------

    Molecular point group: c1
  Charge       = 0
  Multiplicity = 1
  Basis Set: CC-PVTZ
  Basis Set:
  @DF-RHF Final Energy:  -309.17416692816840
    Total Energy =                       -309.1741669281682903
    Molecular point group: c1
  Basis Set: CC-PVTZ
  Basis Set:
  Basis Set: CC-PVTZ
  Basis Set:
  @DF-RHF Final Energy:  -309.17553174059077
    Total Energy =                       -309.1755317405908272
  Basis Set: CC-PVTZ
  Basis Set:
  Basis Set: CC-PVTZ
  Basis Set:
  @DF-RHF Final Energy:  -309.17622237196161
    Total Energy =                       -309.1762223719620124
  Basis Set: CC-PVTZ
  Basis Set:
  Basis Set: CC-PVTZ
  Basis Set:
  @DF-RHF Final Energy:  -309.17623711302639
    Total Energy =                       -309.1762371130262181
  Basis Set: CC-PVTZ
  Basis Set:
  Basis Set: CC-PVTZ
  Basis Set:
  @DF-RHF Final Energy:  -309.17630101624280
    Total Energy =                       -309.1763010162430874
  Basis Set: CC-PVTZ
  Basis Set:
  Basis Set: CC-PVTZ
  Basis Set:
  @DF-RHF Final Energy:  -309.17631445056367
    Total Energy =                       -309.1763144505636660
  Basis Set: CC-PVTZ
  Basis Set:
  Basis Set: CC-PVTZ
  Basis Set:
  @DF-RHF Final Energy:  -309.17631712558455
    Total Energy =                       -309.1763171255845464
  Basis Set: CC-PVTZ
  Basis Set:
  Charge       = 0
  Multiplicity = 1
  Basis Set: CC-PVTZ
  Basis Set:

    Orbital Energies (a.u.)
    -----------------------

    Doubly Occupied:

       1A    -20.536432     2A    -11.319940     3A    -11.230254
       4A    -11.228976     5A    -11.226445     6A    -11.224953
       7A    -11.215385     8A     -1.396720     9A     -1.095797
      10A     -1.029979    11A     -0.983290    12A     -0.896016
      13A     -0.810663    14A     -0.733413    15A     -0.664708
      16A     -0.649458    17A     -0.629739    18A     -0.614373
      19A     -0.585523    20A     -0.574586    21A     -0.555433
      22A     -0.532632    23A     -0.517988    24A     -0.498003
      25A     -0.486922    26A     -0.480309    27A     -0.473389
      28A     -0.399502

  @DF-RHF Final Energy:  -309.17631743268350

   => Energetics <=

    Nuclear Repulsion Energy =            301.6317871720642643
    One-Electron Energy =               -1016.4345569379664767
    Two-Electron Energy =                 405.6264523332183671
    DFT Exchange-Correlation Energy =       0.0000000000000000
    Empirical Dispersion Energy =           0.0000000000000000
    PCM Polarization Energy =               0.0000000000000000
    EFP Energy =                            0.0000000000000000
    Total Energy =                       -309.1763174326838453
    Molecular point group: c1
  Basis Set: CC-PVTZ
  Basis Set:

  -Total Gradient:
     Atom            X                  Y                   Z
    ------   -----------------  -----------------  -----------------
       1        0.000014018137     0.000019922820    -0.000003742319
       2        0.000871035884     0.000347101575    -0.001663589459
       3       -0.000661159875    -0.001036295308     0.001490569920
       4       -0.000475096909    -0.000018398537     0.000874782941
       5        0.000287217782     0.000711238857    -0.000754217455
       6        0.000011390906    -0.000000555768     0.000020510742
       7       -0.000005272551     0.000009396284     0.000000278571
       8        0.000004871571     0.000000877462    -0.000002571855
       9        0.000003549128    -0.000002224883    -0.000001561524
      10       -0.000002389897    -0.000006789623    -0.000002623074
      11       -0.000008425234    -0.000009615846     0.000003196029
      12        0.000005503122    -0.000007070667     0.000001393432
      13       -0.000002978119     0.000002157287    -0.000002919180
      14       -0.000003449096     0.000004166681     0.000005109399
      15        0.000001143179    -0.000001712969    -0.000002700378
      16       -0.000001037686    -0.000004430017     0.000000261005
      17       -0.000008670833    -0.000002378855     0.000005950295
      18       -0.000015341031     0.000003912003     0.000008782751
      19       -0.000014908484    -0.000009300492     0.000023090157

  **** Optimization is complete! (in 8 steps) ****
    Final optimized geometry and variables:
    Molecular point group: c1

    Geometry (in Angstrom), charge = 0, multiplicity = 1:

    O           -1.290902011910    -1.948424698553    -1.392020703901
    C           -0.944507003548    -0.840817070520    -1.137172260697
    C            0.357788962961    -0.588902025244    -0.400247355815
    C           -1.778744096271     0.348763690965    -1.554584560182
    C            0.338250007557     0.527377822794     0.644036693419
    H            0.654047723287    -1.529731133783     0.043672726458
    H            1.098423331213    -0.351663504951    -1.162256623443
    C            1.672563299527     0.661488527457     1.373211072366
    H           -0.445845474562     0.331980261397     1.371159335354
    H            0.094578831373     1.475104740280     0.175205582685
    C            1.669614017351     1.768364185088     2.421823998662
    H            1.918307408818    -0.284293667759     1.846840607039
    H            2.458793876367     0.852597164064     0.648062227110
    H            0.914946178486     1.587497888652     3.179822661420
    H            1.461467342050     2.733727247506     1.972602787951
    H            2.629069174696     1.836417679450     2.920830867553
    H           -2.564627603060     0.019179370799    -2.216394794563
    H           -1.169343797359     1.098265319385    -2.046735375895
    H           -2.219330491288     0.813345995139    -0.679734258946

  Mulliken Charges: (a.u.)
   Center  Symbol    Alpha    Beta     Spin     Total
       1     O     4.17272  4.17272  0.00000 -0.34544
       2     C     2.85903  2.85903  0.00000  0.28193
       3     C     3.09734  3.09734  0.00000 -0.19469
       4     C     3.16544  3.16544  0.00000 -0.33088
       5     C     3.10173  3.10173  0.00000 -0.20346
       6     H     0.43746  0.43746  0.00000  0.12509
       7     H     0.44652  0.44652  0.00000  0.10695
       8     C     3.08632  3.08632  0.00000 -0.17264
       9     H     0.44772  0.44772  0.00000  0.10456
      10     H     0.45065  0.45065  0.00000  0.09871
      11     C     3.14916  3.14916  0.00000 -0.29833
      12     H     0.44998  0.44998  0.00000  0.10005
      13     H     0.45321  0.45321  0.00000  0.09359
      14     H     0.45389  0.45389  0.00000  0.09221
      15     H     0.45508  0.45508  0.00000  0.08984
      16     H     0.44649  0.44649  0.00000  0.10702
      17     H     0.43189  0.43189  0.00000  0.13621
      18     H     0.44848  0.44848  0.00000  0.10304
      19     H     0.44690  0.44690  0.00000  0.10621

   Total alpha = 28.00000, Total beta = 28.00000, Total charge =  0.00000

*** Psi4 exiting successfully. Buy a developer a beer!
