                              Psi4 1.0.54 Driver

  ==> Input File <==

--------------------------------------------------------------------------
set {
	reference rhf
	basis cc-pvtz
}

set_num_threads( 4 )
memory 2 gb

molecule MOL {
0 1

O	 1.847685	 1.294399	 -0.000190
C	 1.704209	 0.119472	 -0.000093
C	 0.380337	 -0.600947	 -0.000234
O	 2.715427	 -0.733672	 0.000025
C	 -0.824290	 0.329213	 -0.000115
H	 0.371455	 -1.255476	 -0.865660
H	 0.371410	 -1.255787	 0.864952
C	 -2.146151	 -0.432825	 -0.000068
H	 -0.773936	 0.979158	 -0.866319
H	 -0.773838	 0.979034	 0.866186
C	 -3.366283	 0.483552	 0.000557
H	 -2.189286	 -1.084450	 -0.869996
H	 -2.188867	 -1.085083	 0.869399
C	 -3.007304	 1.958953	 0.141053
H	 -4.030018	 0.195160	 0.810769
H	 -3.926231	 0.334542	 -0.918363
H	 -2.475835	 2.146234	 1.068253
H	 -3.895052	 2.580748	 0.138092
H	 -2.371551	 2.286826	 -0.674760
C	 4.020999	 -0.192556	 0.000019
H	 4.182809	 0.412891	 -0.879449
H	 4.692590	 -1.035653	 0.000152
H	 4.182726	 0.413087	 0.879368

	symmetry c1
}
set optking {
	frozen_dihedral = ("
		15 11 8 12
	")
}

ee,wfn = optimize('scf', return_wfn=True)
oeprop( wfn, 'DIPOLE', 'QUADRUPOLE', 'MULLIKEN_CHARGES')
f=open( 'psi4out.xyz', 'w' )
f.write( "23  " )
f.write( str(ee) + "\n" )
f.write( MOL.save_string_xyz() )
f.close()
--------------------------------------------------------------------------

    Molecular point group: c1
  Charge       = 0
  Multiplicity = 1
  Basis Set: CC-PVTZ
  Basis Set:
  @DF-RHF Final Energy:  -423.11691566566776
    Total Energy =                       -423.1169156656683299
    Molecular point group: c1
  Basis Set: CC-PVTZ
  Basis Set:
  Basis Set: CC-PVTZ
  Basis Set:
  @DF-RHF Final Energy:  -422.39892580998441
    Total Energy =                       -422.3989258099845756
  Basis Set: CC-PVTZ
  Basis Set:
  Basis Set: CC-PVTZ
  Basis Set:
  @DF-RHF Final Energy:  -422.62209643417617
    Total Energy =                       -422.6220964341765693
  Basis Set: CC-PVTZ
  Basis Set:
  Basis Set: CC-PVTZ
  Basis Set:
  @DF-RHF Final Energy:  -422.93742586669958
    Total Energy =                       -422.9374258666996411
  Basis Set: CC-PVTZ
  Basis Set:
  @DF-RHF Final Energy:  -423.09400000220171
    Total Energy =                       -423.0940000022012555
  @DF-RHF Final Energy:  -423.11894990555163
    Total Energy =                       -423.1189499055515171
  @DF-RHF Final Energy:  -423.12093906700255
    Total Energy =                       -423.1209390670030643
  @DF-RHF Final Energy:  -423.11998733078599
    Total Energy =                       -423.1199873307855341
  Basis Set: CC-PVTZ
  Basis Set:
  @DF-RHF Final Energy:  -423.12092805320225
    Total Energy =                       -423.1209280532027606
  Basis Set: CC-PVTZ
  Basis Set:
  Basis Set: CC-PVTZ
  Basis Set:
  @DF-RHF Final Energy:  -423.12111632761008
    Total Energy =                       -423.1211163276102525
  Basis Set: CC-PVTZ
  Basis Set:
  Basis Set: CC-PVTZ
  Basis Set:
  @DF-RHF Final Energy:  -423.12111737534241
    Total Energy =                       -423.1211173753423509
  Basis Set: CC-PVTZ
  Basis Set:
  Charge       = 0
  Multiplicity = 1
  Basis Set: CC-PVTZ
  Basis Set:

    Orbital Energies (a.u.)
    -----------------------

    Doubly Occupied:

       1A    -20.596149     2A    -20.533924     3A    -11.364346
       4A    -11.278361     5A    -11.233335     6A    -11.216688
       7A    -11.216093     8A    -11.215083     9A    -11.205178
      10A     -1.472040    11A     -1.365573    12A     -1.091857
      13A     -1.040160    14A     -0.985742    15A     -0.931246
      16A     -0.860586    17A     -0.779437    18A     -0.766445
      19A     -0.698320    20A     -0.686749    21A     -0.675878
      22A     -0.650782    23A     -0.607514    24A     -0.598175
      25A     -0.593138    26A     -0.557302    27A     -0.536459
      28A     -0.527039    29A     -0.521517    30A     -0.514772
      31A     -0.496810    32A     -0.463954    33A     -0.462447
      34A     -0.461281    35A     -0.448367    36A     -0.438125

  @DF-RHF Final Energy:  -423.12111758742492

   => Energetics <=

    Nuclear Repulsion Energy =            458.8021960527091778
    One-Electron Energy =               -1485.6648800683328773
    Two-Electron Energy =                 603.7415664281986665
    DFT Exchange-Correlation Energy =       0.0000000000000000
    Empirical Dispersion Energy =           0.0000000000000000
    PCM Polarization Energy =               0.0000000000000000
    EFP Energy =                            0.0000000000000000
    Total Energy =                       -423.1211175874250330
    Molecular point group: c1
  Basis Set: CC-PVTZ
  Basis Set:

  -Total Gradient:
     Atom            X                  Y                   Z
    ------   -----------------  -----------------  -----------------
       1        0.000003600612    -0.000042920454    -0.000033100704
       2        0.000021053140     0.000013903018    -0.000020621575
       3        0.000005919500     0.000003524215     0.000048179275
       4       -0.000015173872     0.000023582880     0.000039226840
       5        0.000019801378    -0.000001292168     0.000014253376
       6       -0.000007286287     0.000012889496    -0.000024334167
       7       -0.000021883307     0.000025857057    -0.000014616118
       8       -0.000156435752    -0.001959979191     0.001331780874
       9       -0.000001372881    -0.000019250890     0.000007855130
      10        0.000007348300    -0.000016514124    -0.000001620051
      11       -0.001563030537    -0.000914224379    -0.001548608815
      12        0.000334657922     0.001802239446    -0.000865841568
      13       -0.000009788578     0.000019674115     0.000008411182
      14        0.000006704439     0.000005616763     0.000019625991
      15        0.001369981925     0.001063724549     0.001077748748
      16        0.000002161029    -0.000002402586    -0.000011574905
      17       -0.000017133951     0.000001362410     0.000009944867
      18        0.000022268132    -0.000001939280    -0.000018117165
      19        0.000006026539    -0.000018394875    -0.000014736582
      20       -0.000006762522    -0.000010701723     0.000007865780
      21        0.000004537883     0.000008747299    -0.000001696778
      22        0.000004013058     0.000006504700    -0.000005696489
      23       -0.000009206171    -0.000000006277    -0.000004327146

  **** Optimization is complete! (in 12 steps) ****
    Final optimized geometry and variables:
    Molecular point group: c1

    Geometry (in Angstrom), charge = 0, multiplicity = 1:

    O            1.503762772548     1.238324678040    -0.463597106087
    C            1.367859183771     0.095688843650    -0.741199714444
    C            0.187215281401    -0.762741328313    -0.365776658702
    O            2.259486073409    -0.591268547284    -1.436669176754
    C           -0.868030236258    -0.029696084942     0.450818698383
    H           -0.229944788883    -1.153542460008    -1.288248732627
    H            0.573187215464    -1.623142255043     0.170843013363
    C           -2.040487644691    -0.949357899646     0.795865299715
    H           -1.211531099642     0.829687768572    -0.111003166347
    H           -0.407816466679     0.360261743027     1.349377573099
    C           -3.199303298105    -0.327860161534     1.620033349346
    H           -2.445007050399    -1.326180915041    -0.138437467536
    H           -1.652226392525    -1.813487728399     1.325420767280
    C           -2.995753839120     1.093109853740     2.147155592346
    H           -3.393269023338    -0.965234353292     2.475592218233
    H           -4.104096586710    -0.341224323197     1.023070216182
    H           -2.144801084137     1.159819529968     2.814509158199
    H           -3.871424477884     1.404405599794     2.705267704397
    H           -2.846972457026     1.809279088439     1.348632996390
    C            3.421347496911     0.093810520900    -1.858261919979
    H            3.163394781472     0.923404188512    -2.499752155548
    H            4.011407771530    -0.626700960192    -2.401019908097
    H            3.974913941276     0.464629662757    -1.008389092360

  Mulliken Charges: (a.u.)
   Center  Symbol    Alpha    Beta     Spin     Total
       1     O     4.19722  4.19722  0.00000 -0.39445
       2     C     2.80622  2.80622  0.00000  0.38756
       3     C     3.10246  3.10246  0.00000 -0.20492
       4     O     4.14615  4.14615  0.00000 -0.29229
       5     C     3.08345  3.08345  0.00000 -0.16691
       6     H     0.44034  0.44034  0.00000  0.11933
       7     H     0.44025  0.44025  0.00000  0.11949
       8     C     3.10296  3.10296  0.00000 -0.20593
       9     H     0.44483  0.44483  0.00000  0.11035
      10     H     0.44449  0.44449  0.00000  0.11102
      11     C     3.08732  3.08732  0.00000 -0.17463
      12     H     0.45238  0.45238  0.00000  0.09525
      13     H     0.45212  0.45212  0.00000  0.09576
      14     C     3.15606  3.15606  0.00000 -0.31212
      15     H     0.45149  0.45149  0.00000  0.09701
      16     H     0.45129  0.45129  0.00000  0.09743
      17     H     0.45264  0.45264  0.00000  0.09471
      18     H     0.44490  0.44490  0.00000  0.11020
      19     H     0.45146  0.45146  0.00000  0.09709
      20     C     3.03780  3.03780  0.00000 -0.07561
      21     H     0.45441  0.45441  0.00000  0.09118
      22     H     0.44537  0.44537  0.00000  0.10925
      23     H     0.45439  0.45439  0.00000  0.09123

   Total alpha = 36.00000, Total beta = 36.00000, Total charge = -0.00000

*** Psi4 exiting successfully. Buy a developer a beer!
