  ==> Input File <==

--------------------------------------------------------------------------
set {
	reference rhf
	basis 6-31G*
}

set_num_threads( 4 )
memory 2 gb

molecule MOL {
0 1

H	 -0.944757	 -0.000069	 1.678017
O	 -0.042387	 -0.000390	 1.388199
C	 -0.001487	 0.000018	 -0.026623
C	 0.012656	 -1.441522	 -0.538877
C	 -1.211053	 0.760506	 -0.573663
C	 1.295650	 0.715149	 -0.387795
H	 0.086164	 -1.476570	 -1.621127
H	 -0.898397	 -1.962119	 -0.252755
H	 0.853946	 -1.981029	 -0.117948
H	 -1.188561	 0.813367	 -1.657540
H	 -2.138123	 0.269786	 -0.286144
H	 -1.229214	 1.770355	 -0.179009
H	 1.423559	 0.768609	 -1.464143
H	 2.143819	 0.189170	 0.035811
H	 1.290916	 1.723427	 0.010635

	symmetry c1
}
set optking {
	frozen_dihedral = ("
		4 3 2 1
	")
}

ee = optimize('scf')
oeprop('DIPOLE', 'QUADRUPOLE', 'MULLIKEN_CHARGES')
f=open( 'psi4out.xyz', 'w' )
f.write( "15  " )
f.write( str(ee) + "\n" )
f.write( MOL.save_string_xyz() )
f.close()
--------------------------------------------------------------------------

    Molecular point group: c1
  Charge       = 0
  Multiplicity = 1
  Basis Set: 6-31G*
  Basis Set:
  @DF-RHF Final Energy:  -232.15208412082646
    Total Energy =                       -232.1520841208265438
    Molecular point group: c1
  Basis Set: 6-31G*
  Basis Set:
  Basis Set: 6-31G*
  Basis Set:
  @DF-RHF Final Energy:  -232.15215956783049
    Total Energy =                       -232.1521595678303242
  Basis Set: 6-31G*
  Basis Set:
  Basis Set: 6-31G*
  Basis Set:
  @DF-RHF Final Energy:  -232.15218342975399
    Total Energy =                       -232.1521834297539613
  Basis Set: 6-31G*
  Basis Set:
  Basis Set: 6-31G*
  Basis Set:
  @DF-RHF Final Energy:  -232.15218469127927
    Total Energy =                       -232.1521846912793308
  Basis Set: 6-31G*
  Basis Set:
  Basis Set: 6-31G*
  Basis Set:
  @DF-RHF Final Energy:  -232.15218843651766
    Total Energy =                       -232.1521884365177470
  Basis Set: 6-31G*
  Basis Set:
  Charge       = 0
  Multiplicity = 1
  Basis Set: 6-31G*
  Basis Set:

    Orbital Energies (a.u.)
    -----------------------

    Doubly Occupied:

       1A    -20.548009     2A    -11.281880     3A    -11.216466
       4A    -11.206355     5A    -11.204577     6A     -1.359400
       7A     -1.063524     8A     -0.944498     9A     -0.936296
      10A     -0.775594    11A     -0.669781    12A     -0.622455
      13A     -0.621036    14A     -0.574953    15A     -0.556521
      16A     -0.532265    17A     -0.516747    18A     -0.508879
      19A     -0.502149    20A     -0.457008    21A     -0.423900

  @DF-RHF Final Energy:  -232.15218828040582

   => Energetics <=

    Nuclear Repulsion Energy =            200.3045920150302663
    One-Electron Energy =                -711.8689736231542611
    Two-Electron Energy =                 279.4121933277182279
    DFT Exchange-Correlation Energy =       0.0000000000000000
    Empirical Dispersion Energy =           0.0000000000000000
    PCM Polarization Energy =               0.0000000000000000
    EFP Energy =                            0.0000000000000000
    Total Energy =                       -232.1521882804057668
    Molecular point group: c1
  Basis Set: 6-31G*
  Basis Set:

  -Total Gradient:
     Atom            X                  Y                   Z
    ------   -----------------  -----------------  -----------------
       1       -0.000017699329     0.002243434124     0.000034418079
       2        0.000516531227    -0.002742874760    -0.000028843655
       3       -0.001865084186     0.000511139080    -0.000016703014
       4        0.001393486274     0.000011936566     0.000033726057
       5        0.000008111560     0.000022284541    -0.000001984106
       6        0.000001942006    -0.000013192604    -0.000013011603
       7        0.000009379486     0.000002727928     0.000016629500
       8       -0.000015934014     0.000009482301    -0.000009608672
       9       -0.000002265543    -0.000021733453     0.000006855701
      10        0.000001003395     0.000010219573    -0.000010186956
      11        0.000004480445    -0.000007428232    -0.000011554745
      12       -0.000026999549    -0.000020374239     0.000015102023
      13        0.000004054186     0.000006881575    -0.000010833991
      14       -0.000003514553    -0.000000724564    -0.000002618075
      15       -0.000007491405    -0.000011777835    -0.000001386546

  **** Optimization is complete! (in 6 steps) ****
    Final optimized geometry and variables:
    Molecular point group: c1

    Geometry (in Angstrom), charge = 0, multiplicity = 1:

    H           -0.937611669280    -0.028152873103     1.690377912486
    O           -0.039627758782    -0.021892453254     1.390520279144
    C           -0.002254573019    -0.002762065417    -0.026443048988
    C            0.014345093132    -1.443820041051    -0.538854435212
    C           -1.208896598856     0.761370187077    -0.571672626214
    C            1.296934827786     0.708974321547    -0.392932312240
    H            0.087990002943    -1.480433274356    -1.621623068528
    H           -0.892332989350    -1.965454807826    -0.245008822287
    H            0.858170278326    -1.977678971330    -0.116720405014
    H           -1.177407642962     0.824463146269    -1.654101747790
    H           -2.137992164453     0.265114345788    -0.298976908765
    H           -1.231664142160     1.769955055394    -0.171553752293
    H            1.438764833324     0.735368512660    -1.468804730600
    H            2.141219323874     0.194788373218     0.052640508196
    H            1.287569597601     1.726544761804    -0.018508841800

  Mulliken Charges: (a.u.)
   Center  Symbol    Alpha    Beta     Spin     Total
       1     H     0.28187  0.28187  0.00000  0.43625
       2     O     4.37963  4.37963  0.00000 -0.75927
       3     C     2.84899  2.84899  0.00000  0.30203
       4     C     3.23376  3.23376  0.00000 -0.46751
       5     C     3.25373  3.25373  0.00000 -0.50746
       6     C     3.23276  3.23276  0.00000 -0.46552
       7     H     0.42469  0.42469  0.00000  0.15062
       8     H     0.42459  0.42459  0.00000  0.15082
       9     H     0.41279  0.41279  0.00000  0.17441
      10     H     0.41630  0.41630  0.00000  0.16740
      11     H     0.42415  0.42415  0.00000  0.15170
      12     H     0.41310  0.41310  0.00000  0.17380
      13     H     0.42491  0.42491  0.00000  0.15019
      14     H     0.41279  0.41279  0.00000  0.17442
      15     H     0.41594  0.41594  0.00000  0.16812

   Total alpha = 21.00000, Total beta = 21.00000, Total charge =  0.00000
