  ==> Input File <==

--------------------------------------------------------------------------
set {
	reference rhf
	basis 6-31G*
}

set_num_threads( 4 )
memory 2 gb

molecule MOL {
0 1

H	 -3.420663	 1.227371	 -1.044276
O	 -3.452007	 0.283848	 -0.965577
C	 -3.181085	 -0.079926	 0.364119
C	 -1.765924	 0.277073	 0.805136
H	 -3.327791	 -1.152017	 0.410903
H	 -3.905698	 0.375695	 1.036898
C	 -0.677594	 -0.417312	 -0.014550
H	 -1.637766	 1.358238	 0.744969
H	 -1.659588	 0.017670	 1.857098
C	 0.738335	 -0.034840	 0.421385
H	 -0.814977	 -0.178223	 -1.064632
H	 -0.802730	 -1.495410	 0.071702
C	 1.688596	 -1.234326	 0.469562
H	 1.126255	 0.719360	 -0.259144
H	 0.700808	 0.431813	 1.404966
C	 3.096647	 -0.917014	 0.986149
H	 1.762069	 -1.674985	 -0.523472
H	 1.251283	 -1.999074	 1.108103
C	 3.911120	 0.011195	 0.083116
H	 3.638975	 -1.852084	 1.103685
H	 3.025091	 -0.481620	 1.980892
H	 3.988857	 -0.392890	 -0.922772
H	 4.919125	 0.135462	 0.466941
H	 3.467783	 0.998723	 0.009613

	symmetry c1
}
set optking {
	frozen_dihedral = ("
		13 10 7 11
	")
}

ee = optimize('scf')
oeprop('DIPOLE', 'QUADRUPOLE', 'MULLIKEN_CHARGES')
f=open( 'psi4out.xyz', 'w' )
f.write( "24  " )
f.write( str(ee) + "\n" )
f.write( MOL.save_string_xyz() )
f.close()
--------------------------------------------------------------------------

    Molecular point group: c1
  Charge       = 0
  Multiplicity = 1
  Basis Set: 6-31G*
  Basis Set:
  @DF-RHF Final Energy:  -349.24310611154198
    Total Energy =                       -349.2431061115419197
    Molecular point group: c1
  Basis Set: 6-31G*
  Basis Set:
  Basis Set: 6-31G*
  Basis Set:
  @DF-RHF Final Energy:  -349.24335623110903
    Total Energy =                       -349.2433562311088053
  Basis Set: 6-31G*
  Basis Set:
  Basis Set: 6-31G*
  Basis Set:
  @DF-RHF Final Energy:  -349.24338509900599
    Total Energy =                       -349.2433850990059909
  Basis Set: 6-31G*
  Basis Set:
  Basis Set: 6-31G*
  Basis Set:
  @DF-RHF Final Energy:  -349.24344442608668
    Total Energy =                       -349.2434444260867394
  Basis Set: 6-31G*
  Basis Set:
  Basis Set: 6-31G*
  Basis Set:
  @DF-RHF Final Energy:  -349.24345276322697
    Total Energy =                       -349.2434527632267987
  Basis Set: 6-31G*
  Basis Set:
  Charge       = 0
  Multiplicity = 1
  Basis Set: 6-31G*
  Basis Set:

    Orbital Energies (a.u.)
    -----------------------

    Doubly Occupied:

       1A    -20.553632     2A    -11.267459     3A    -11.217483
       4A    -11.214104     5A    -11.212510     6A    -11.211898
       7A    -11.210755     8A    -11.207293     9A     -1.360143
      10A     -1.087229    11A     -1.047977    12A     -0.984609
      13A     -0.914839    14A     -0.850748    15A     -0.801010
      16A     -0.776877    17A     -0.679030    18A     -0.652278
      19A     -0.623518    20A     -0.620754    21A     -0.595318
      22A     -0.576610    23A     -0.570971    24A     -0.530234
      25A     -0.523246    26A     -0.512329    27A     -0.492122
      28A     -0.478657    29A     -0.466142    30A     -0.459606
      31A     -0.454132    32A     -0.445493    33A     -0.419362

  @DF-RHF Final Energy:  -349.24345372154795

   => Energetics <=

    Nuclear Repulsion Energy =            383.9061384319559806
    One-Electron Energy =               -1234.2624526790443724
    Two-Electron Energy =                 501.1128605255404409
    DFT Exchange-Correlation Energy =       0.0000000000000000
    Empirical Dispersion Energy =           0.0000000000000000
    PCM Polarization Energy =               0.0000000000000000
    EFP Energy =                            0.0000000000000000
    Total Energy =                       -349.2434537215480077
    Molecular point group: c1
  Basis Set: 6-31G*
  Basis Set:

  -Total Gradient:
     Atom            X                  Y                   Z
    ------   -----------------  -----------------  -----------------
       1       -0.000002209802     0.000009567770    -0.000011918222
       2       -0.000016437089     0.000029631995     0.000029514048
       3       -0.000026962613    -0.000067244490     0.000000372788
       4        0.000013350838    -0.000003756108    -0.000076465120
       5       -0.000003414597    -0.000003819589     0.000008771085
       6       -0.000020919833     0.000003210133    -0.000011093031
       7        0.001257738305    -0.004235876231    -0.000131466212
       8        0.000014331679     0.000005500355    -0.000014504294
       9        0.000030836734    -0.000007240541    -0.000034405768
      10        0.000600156767     0.001376631776    -0.003208076367
      11       -0.001249688704     0.003288620786     0.001000142789
      12       -0.000044559153    -0.000012103046    -0.000044748030
      13       -0.000686634753    -0.000410581624     0.002532278554
      14        0.000065101697     0.000008600334    -0.000027133637
      15        0.000056057959     0.000005682700    -0.000021422384
      16        0.000030297967    -0.000015479333     0.000000396132
      17       -0.000010386500     0.000039033397     0.000009628325
      18       -0.000009952295     0.000003355926    -0.000002903698
      19       -0.000009242225    -0.000010353710     0.000010750577
      20        0.000036703929     0.000002379534     0.000003449316
      21       -0.000012086838    -0.000006484995    -0.000012662879
      22       -0.000008847050     0.000001975676     0.000000170467
      23        0.000005143841    -0.000005985980    -0.000000703060
      24       -0.000008378258     0.000004735266     0.000002028623

  **** Optimization is complete! (in 6 steps) ****
    Final optimized geometry and variables:
    Molecular point group: c1

    Geometry (in Angstrom), charge = 0, multiplicity = 1:

    H           -3.368597770156     1.529519987141    -1.289547135153
    O           -3.414624053481     0.584518730261    -1.242706459120
    C           -3.187404324186     0.174383192368     0.081931380380
    C           -1.779166866474     0.491170498974     0.572432225719
    H           -3.354317664208    -0.895754828887     0.090782822418
    H           -3.922693978616     0.622029341294     0.748416277103
    C           -0.679213147704    -0.208951956221    -0.230014853006
    H           -1.625964759527     1.570452208232     0.539399851306
    H           -1.708152194509     0.207470599533     1.621085576401
    C            0.740333889307     0.183285071280     0.226160655626
    H           -0.818007110412     0.046813392409    -1.274592606264
    H           -0.816862252603    -1.284427796268    -0.146802564748
    C            1.711676233055    -1.000567431350     0.260359687003
    H            1.122849159332     0.969980226112    -0.416795300608
    H            0.696337240839     0.609699621062     1.227227400350
    C            3.126542635394    -0.656732974684     0.738943854901
    H            1.768061885177    -1.453808528405    -0.728512746521
    H            1.297989041482    -1.761814390726     0.918380661134
    C            3.914265339601     0.252375566209    -0.206339084256
    H            3.680045518772    -1.583252400592     0.871337598426
    H            3.071023329379    -0.194307365321     1.722597816356
    H            3.976635650570    -0.180440484252    -1.201180854109
    H            4.928174294675     0.397148967810     0.154059600310
    H            3.460069361440     1.233131827307    -0.300399116517

  Mulliken Charges: (a.u.)
   Center  Symbol    Alpha    Beta     Spin     Total
       1     H     0.28335  0.28335  0.00000  0.43329
       2     O     4.36838  4.36838  0.00000 -0.73677
       3     C     2.99680  2.99680  0.00000  0.00640
       4     C     3.17032  3.17032  0.00000 -0.34065
       5     H     0.41635  0.41635  0.00000  0.16729
       6     H     0.42818  0.42818  0.00000  0.14364
       7     C     3.15492  3.15492  0.00000 -0.30984
       8     H     0.42799  0.42799  0.00000  0.14402
       9     H     0.42252  0.42252  0.00000  0.15496
      10     C     3.15577  3.15577  0.00000 -0.31155
      11     H     0.40950  0.40950  0.00000  0.18099
      12     H     0.42143  0.42143  0.00000  0.15715
      13     C     3.15378  3.15378  0.00000 -0.30756
      14     H     0.41945  0.41945  0.00000  0.16109
      15     H     0.42441  0.42441  0.00000  0.15119
      16     C     3.15299  3.15299  0.00000 -0.30598
      17     H     0.42320  0.42320  0.00000  0.15361
      18     H     0.42264  0.42264  0.00000  0.15471
      19     C     3.24079  3.24079  0.00000 -0.48158
      20     H     0.42110  0.42110  0.00000  0.15779
      21     H     0.42398  0.42398  0.00000  0.15204
      22     H     0.42188  0.42188  0.00000  0.15624
      23     H     0.41959  0.41959  0.00000  0.16083
      24     H     0.42067  0.42067  0.00000  0.15865

   Total alpha = 33.00000, Total beta = 33.00000, Total charge =  0.00000
