  ==> Input File <==

--------------------------------------------------------------------------
set {
	reference rhf
	basis 6-31G*
}

set_num_threads( 4 )
memory 2 gb

molecule MOL {
0 1

O	 1.846825	 1.296220	 0.000415
C	 1.705091	 0.115954	 0.001797
C	 0.381791	 -0.609817	 0.001258
O	 2.721346	 -0.737485	 -0.000216
C	 -0.823008	 0.326187	 0.001381
H	 0.371250	 -1.265087	 -0.865474
H	 0.370908	 -1.265746	 0.867490
C	 -2.149452	 -0.435131	 -0.000098
H	 -0.770201	 0.977095	 -0.865636
H	 -0.771220	 0.975655	 0.869608
C	 -3.368779	 0.488503	 -0.000883
H	 -2.193746	 -1.087250	 -0.871175
H	 -2.195311	 -1.087803	 0.870418
C	 -3.637157	 1.123353	 1.363005
H	 -4.244924	 -0.073482	 -0.316609
H	 -3.225689	 1.271574	 -0.742141
H	 -3.818709	 0.365342	 2.119756
H	 -4.506822	 1.772238	 1.330116
H	 -2.791111	 1.720760	 1.691063
C	 4.024888	 -0.184556	 -0.001949
H	 4.179030	 0.422472	 -0.882452
H	 4.701782	 -1.024608	 -0.003642
H	 4.181981	 0.421185	 0.878906

	symmetry c1
}
set optking {
	frozen_dihedral = ("
		15 11 8 12
	")
}

ee = optimize('scf')
oeprop('DIPOLE', 'QUADRUPOLE', 'MULLIKEN_CHARGES')
f=open( 'psi4out.xyz', 'w' )
f.write( "23  " )
f.write( str(ee) + "\n" )
f.write( MOL.save_string_xyz() )
f.close()
--------------------------------------------------------------------------

    Molecular point group: c1
  Charge       = 0
  Multiplicity = 1
  Basis Set: 6-31G*
  Basis Set:
  @DF-RHF Final Energy:  -422.97422814134489
    Total Energy =                       -422.9742281413443834
    Molecular point group: c1
  Basis Set: 6-31G*
  Basis Set:
  Basis Set: 6-31G*
  Basis Set:
  @DF-RHF Final Energy:  -422.97436850779781
    Total Energy =                       -422.9743685077977489
  Basis Set: 6-31G*
  Basis Set:
  Basis Set: 6-31G*
  Basis Set:
  @DF-RHF Final Energy:  -422.97345017524441
    Total Energy =                       -422.9734501752450342
  Basis Set: 6-31G*
  Basis Set:
  Basis Set: 6-31G*
  Basis Set:
  @DF-RHF Final Energy:  -422.97443824186519
    Total Energy =                       -422.9744382418649593
  Basis Set: 6-31G*
  Basis Set:
  Basis Set: 6-31G*
  Basis Set:
  @DF-RHF Final Energy:  -422.97444131110143
    Total Energy =                       -422.9744413111011454
  Basis Set: 6-31G*
  Basis Set:
  Charge       = 0
  Multiplicity = 1
  Basis Set: 6-31G*
  Basis Set:

    Orbital Energies (a.u.)
    -----------------------

    Doubly Occupied:

       1A    -20.603681     2A    -20.545492     3A    -11.372305
       4A    -11.280885     5A    -11.235540     6A    -11.219117
       7A    -11.217929     8A    -11.216575     9A    -11.208588
      10A     -1.469381    11A     -1.362825    12A     -1.092934
      13A     -1.042237    14A     -0.985581    15A     -0.931461
      16A     -0.853487    17A     -0.786257    18A     -0.767471
      19A     -0.696678    20A     -0.683458    21A     -0.672203
      22A     -0.642576    23A     -0.615718    24A     -0.597070
      25A     -0.587490    26A     -0.562338    27A     -0.533071
      28A     -0.529086    29A     -0.521635    30A     -0.510673
      31A     -0.491534    32A     -0.466603    33A     -0.462352
      34A     -0.459530    35A     -0.454702    36A     -0.435670

  @DF-RHF Final Energy:  -422.97444171494345

   => Energetics <=

    Nuclear Repulsion Energy =            456.4616070877279412
    One-Electron Energy =               -1480.6438415454372262
    Two-Electron Energy =                 601.2077927427656050
    DFT Exchange-Correlation Energy =       0.0000000000000000
    Empirical Dispersion Energy =           0.0000000000000000
    PCM Polarization Energy =               0.0000000000000000
    EFP Energy =                            0.0000000000000000
    Total Energy =                       -422.9744417149436231
    Molecular point group: c1
  Basis Set: 6-31G*
  Basis Set:

  -Total Gradient:
     Atom            X                  Y                   Z
    ------   -----------------  -----------------  -----------------
       1       -0.000004870543    -0.000020863935    -0.000027160550
       2        0.000014662410     0.000016394648     0.000065176023
       3       -0.000003654921    -0.000015928692     0.000037420129
       4       -0.000014185522     0.000002278002    -0.000003591057
       5       -0.000042538683     0.000007884093    -0.000059615800
       6       -0.000008921071     0.000003328689    -0.000012389140
       7        0.000012563048    -0.000002680340    -0.000014579386
       8        0.001134677589     0.001617877420    -0.001513216071
       9        0.000008361198     0.000001357448    -0.000004188530
      10       -0.000026157727     0.000010239926     0.000012234134
      11       -0.000546426814    -0.000813767704     0.002310943979
      12       -0.000898906032    -0.001175816873     0.000911018837
      13        0.000009537156    -0.000013635432     0.000023255838
      14        0.000007739932    -0.000044020142    -0.000026842639
      15        0.000307055678     0.000420911802    -0.001654043460
      16        0.000020841560     0.000017193303    -0.000007114177
      17        0.000014092221    -0.000000627259     0.000003988104
      18       -0.000011881852    -0.000003319776    -0.000019474941
      19        0.000027263743    -0.000007114794    -0.000017996477
      20       -0.000001553638    -0.000001161291    -0.000001422906
      21        0.000002019380     0.000000966507    -0.000000663108
      22        0.000001789690     0.000000894865    -0.000001069520
      23       -0.000001506812    -0.000000390465    -0.000000669283

  **** Optimization is complete! (in 6 steps) ****
    Final optimized geometry and variables:
    Molecular point group: c1

    Geometry (in Angstrom), charge = 0, multiplicity = 1:

    O            1.738795522349     1.131850953027    -0.139182274249
    C            1.591068756758    -0.047573715486    -0.155786243056
    C            0.263999778172    -0.766437278322    -0.159682756402
    O            2.602844630085    -0.906070743952    -0.172915491095
    C           -0.935707533238     0.176269791972    -0.150765993440
    H            0.248377279793    -1.415924886537    -1.030652322091
    H            0.251178356030    -1.427959071002     0.702290950831
    C           -2.263705384717    -0.583690087503    -0.155762781288
    H           -0.883997270939     0.828863921158    -1.016804096581
    H           -0.870540339963     0.821667900486     0.718188007397
    C           -3.502704892643     0.320932747715    -0.148656669961
    H           -2.305158577590    -1.232403497896    -1.028396270348
    H           -2.305018640461    -1.248381465462     0.706478271339
    C           -3.797223024391     0.971165366097     1.203427073441
    H           -4.364955780616    -0.262192929602    -0.461596403328
    H           -3.382028883656     1.095912899736    -0.903008716712
    H           -3.953522907291     0.218769417052     1.971605538564
    H           -4.693571063642     1.581489963576     1.152139491347
    H           -2.984718964046     1.612726734633     1.528730757928
    C            3.909265965667    -0.359885928885    -0.170386723891
    H            4.064268856956     0.258681883163    -1.042660118993
    H            4.581797051497    -1.203347105377    -0.185820550540
    H            4.071820254017     0.232482801682     0.718539456303

  Mulliken Charges: (a.u.)
   Center  Symbol    Alpha    Beta     Spin     Total
       1     O     4.28617  4.28617  0.00000 -0.57235
       2     C     2.60519  2.60519  0.00000  0.78963
       3     C     3.20784  3.20784  0.00000 -0.41568
       4     O     4.30721  4.30721  0.00000 -0.61443
       5     C     3.15352  3.15352  0.00000 -0.30703
       6     H     0.40070  0.40070  0.00000  0.19861
       7     H     0.40056  0.40056  0.00000  0.19887
       8     C     3.15588  3.15588  0.00000 -0.31175
       9     H     0.41197  0.41197  0.00000  0.17605
      10     H     0.41011  0.41011  0.00000  0.17978
      11     C     3.15341  3.15341  0.00000 -0.30681
      12     H     0.42195  0.42195  0.00000  0.15610
      13     H     0.42434  0.42434  0.00000  0.15132
      14     C     3.24113  3.24113  0.00000 -0.48227
      15     H     0.42025  0.42025  0.00000  0.15950
      16     H     0.42142  0.42142  0.00000  0.15716
      17     H     0.42229  0.42229  0.00000  0.15541
      18     H     0.41860  0.41860  0.00000  0.16280
      19     H     0.41845  0.41845  0.00000  0.16310
      20     C     3.09245  3.09245  0.00000 -0.18489
      21     H     0.40906  0.40906  0.00000  0.18188
      22     H     0.40841  0.40841  0.00000  0.18318
      23     H     0.40908  0.40908  0.00000  0.18183

   Total alpha = 36.00000, Total beta = 36.00000, Total charge =  0.00000
