  ==> Input File <==

--------------------------------------------------------------------------
set {
	reference rhf
	basis 6-31G*
}

set_num_threads( 4 )
memory 2 gb

molecule MOL {
0 1

H	 -3.161837	 0.500524	 -0.000234
C	 -2.367097	 -0.232926	 -0.000000
O	 -1.158440	 0.455814	 -0.000122
H	 -2.468853	 -0.861886	 -0.882833
H	 -2.468942	 -0.861421	 0.883154
C	 -0.029776	 -0.365156	 0.000148
C	 1.212217	 0.508981	 0.000007
H	 -0.036772	 -1.013236	 -0.877259
H	 -0.036869	 -1.012778	 0.877897
C	 1.787712	 0.706914	 1.401616
H	 1.953812	 0.053267	 -0.648856
H	 0.957989	 1.468330	 -0.440127
H	 2.071671	 -0.240620	 1.851028
H	 2.672184	 1.334351	 1.371976
H	 1.068449	 1.183922	 2.061561

	symmetry c1
}
set optking {
	frozen_dihedral = ("
		11 7 6 8
	")
}

ee = optimize('scf')
oeprop('DIPOLE', 'QUADRUPOLE', 'MULLIKEN_CHARGES')
f=open( 'psi4out.xyz', 'w' )
f.write( "15  " )
f.write( str(ee) + "\n" )
f.write( MOL.save_string_xyz() )
f.close()
--------------------------------------------------------------------------

    Molecular point group: c1
  Charge       = 0
  Multiplicity = 1
  Basis Set: 6-31G*
  Basis Set:
  @DF-RHF Final Energy:  -232.13525720611537
    Total Energy =                       -232.1352572061155115
    Molecular point group: c1
  Basis Set: 6-31G*
  Basis Set:
  Basis Set: 6-31G*
  Basis Set:
  @DF-RHF Final Energy:  -232.13573821790990
    Total Energy =                       -232.1357382179100455
  Basis Set: 6-31G*
  Basis Set:
  Basis Set: 6-31G*
  Basis Set:
  @DF-RHF Final Energy:  -232.13585103074567
    Total Energy =                       -232.1358510307458118
  Basis Set: 6-31G*
  Basis Set:
  Basis Set: 6-31G*
  Basis Set:
  @DF-RHF Final Energy:  -232.13585310753695
    Total Energy =                       -232.1358531075369456
  Basis Set: 6-31G*
  Basis Set:
  Charge       = 0
  Multiplicity = 1
  Basis Set: 6-31G*
  Basis Set:

    Orbital Energies (a.u.)
    -----------------------

    Doubly Occupied:

       1A    -20.554403     2A    -11.266432     3A    -11.264188
       4A    -11.214064     5A    -11.207986     6A     -1.378758
       7A     -1.053469     8A     -0.952734     9A     -0.882267
      10A     -0.805627    11A     -0.667182    12A     -0.661854
      13A     -0.632049    14A     -0.582475    15A     -0.580293
      16A     -0.545548    17A     -0.493071    18A     -0.487126
      19A     -0.481389    20A     -0.460575    21A     -0.411708

  @DF-RHF Final Energy:  -232.13585349438429

   => Energetics <=

    Nuclear Repulsion Energy =            191.3234781240489326
    One-Electron Energy =                -693.7522699691709249
    Two-Electron Energy =                 270.2929383507376997
    DFT Exchange-Correlation Energy =       0.0000000000000000
    Empirical Dispersion Energy =           0.0000000000000000
    PCM Polarization Energy =               0.0000000000000000
    EFP Energy =                            0.0000000000000000
    Total Energy =                       -232.1358534943842642
    Molecular point group: c1
  Basis Set: 6-31G*
  Basis Set:

  -Total Gradient:
     Atom            X                  Y                   Z
    ------   -----------------  -----------------  -----------------
       1       -0.000021477620    -0.000007633414    -0.000003483284
       2       -0.000032220969     0.000013404987     0.000003511275
       3        0.000042445079    -0.000057704548    -0.000005032425
       4       -0.000005681392     0.000002420270    -0.000000023633
       5       -0.000004245301     0.000000206852    -0.000001540069
       6       -0.003151409417     0.005086757085    -0.003977824425
       7        0.002592026842    -0.004156795850     0.005320696625
       8        0.002278133232    -0.003501986076     0.002468830870
       9       -0.000036309047     0.000010995248     0.000014246382
      10       -0.000026902525    -0.000014932683    -0.000019834876
      11       -0.001648290467     0.002596330504    -0.003755191909
      12        0.000015788788     0.000037280509    -0.000017482714
      13        0.000006014746     0.000013300089    -0.000008495230
      14       -0.000008636995     0.000000781025    -0.000010717558
      15        0.000000765045    -0.000022424000    -0.000007659030

  **** Optimization is complete! (in 5 steps) ****
    Final optimized geometry and variables:
    Molecular point group: c1

    Geometry (in Angstrom), charge = 0, multiplicity = 1:

    H           -3.009883332616     0.315773973551    -0.236209663590
    C           -2.221661731217    -0.424455252991    -0.256609706734
    O           -1.007317129492     0.253603465929    -0.287040560344
    H           -2.350744881079    -1.051445473473    -1.137266519375
    H           -2.306135942211    -1.053222401100     0.628112544152
    C            0.112692535291    -0.579253919301    -0.324113879875
    C            1.378304633279     0.275639457565    -0.281433580848
    H            0.099178570700    -1.213369368384    -1.210323831538
    H            0.091002357604    -1.259900012464     0.528741426846
    C            1.911287215856     0.513737938946     1.128977306793
    H            2.138653148425    -0.164967345120    -0.920413102648
    H            1.131084519899     1.227100034731    -0.742243897857
    H            2.222792692929    -0.416366614248     1.596125614744
    H            2.767175472409     1.181153990015     1.117268832740
    H            1.146259559160     0.962383912383     1.754768900950

  Mulliken Charges: (a.u.)
   Center  Symbol    Alpha    Beta     Spin     Total
       1     H     0.41218  0.41218  0.00000  0.17564
       2     C     3.07955  3.07955  0.00000 -0.15910
       3     O     4.30375  4.30375  0.00000 -0.60750
       4     H     0.43023  0.43023  0.00000  0.13953
       5     H     0.43013  0.43013  0.00000  0.13975
       6     C     2.98975  2.98975  0.00000  0.02050
       7     C     3.16388  3.16388  0.00000 -0.32776
       8     H     0.43016  0.43016  0.00000  0.13969
       9     H     0.43272  0.43272  0.00000  0.13456
      10     C     3.24287  3.24287  0.00000 -0.48575
      11     H     0.42120  0.42120  0.00000  0.15759
      12     H     0.40739  0.40739  0.00000  0.18522
      13     H     0.42334  0.42334  0.00000  0.15332
      14     H     0.41904  0.41904  0.00000  0.16192
      15     H     0.41381  0.41381  0.00000  0.17239

   Total alpha = 21.00000, Total beta = 21.00000, Total charge = -0.00000
