                              Psi4 1.0.54 Driver

  ==> Input File <==

--------------------------------------------------------------------------
set {
	reference rhf
	basis cc-pvtz
}

set_num_threads( 4 )
memory 2 gb

molecule MOL {
0 1

H	 -0.336940	 1.378669	 1.139636
C	 0.642408	 1.080697	 0.782916
N	 0.526300	 -0.128137	 0.000000
H	 1.265931	 0.898777	 1.649037
H	 1.063262	 1.922902	 0.229613
C	 -0.247113	 0.037112	 -1.209233
H	 1.432971	 -0.478236	 -0.221442
H	 -0.996493	 -0.743733	 -1.271440
H	 0.397975	 -0.057351	 -2.073512
H	 -0.763794	 0.997171	 -1.271673

	symmetry c1
}
set optking {
	frozen_dihedral = ("
		2 3 6 8
	")
}

ee,wfn = optimize('scf', return_wfn=True)
oeprop( wfn, 'DIPOLE', 'QUADRUPOLE', 'MULLIKEN_CHARGES')
f=open( 'psi4out.xyz', 'w' )
f.write( "10  " )
f.write( str(ee) + "\n" )
f.write( MOL.save_string_xyz() )
f.close()
--------------------------------------------------------------------------

    Molecular point group: c1
  Charge       = 0
  Multiplicity = 1
  Basis Set: CC-PVTZ
  Basis Set:
  @DF-RHF Final Energy:  -134.28728758674063
    Total Energy =                       -134.2872875867405469
    Molecular point group: c1
  Basis Set: CC-PVTZ
  Basis Set:
  Basis Set: CC-PVTZ
  Basis Set:
  @DF-RHF Final Energy:  -134.28812424875215
    Total Energy =                       -134.2881242487522115
  Basis Set: CC-PVTZ
  Basis Set:
  Basis Set: CC-PVTZ
  Basis Set:
  @DF-RHF Final Energy:  -134.28827866185142
    Total Energy =                       -134.2882786618514501
  Basis Set: CC-PVTZ
  Basis Set:
  Basis Set: CC-PVTZ
  Basis Set:
  @DF-RHF Final Energy:  -134.28829063346882
    Total Energy =                       -134.2882906334689892
  Basis Set: CC-PVTZ
  Basis Set:
  Charge       = 0
  Multiplicity = 1
  Basis Set: CC-PVTZ
  Basis Set:

    Orbital Energies (a.u.)
    -----------------------

    Doubly Occupied:

       1A    -15.528696     2A    -11.234410     3A    -11.233805
       4A     -1.195703     5A     -0.947926     6A     -0.855422
       7A     -0.660773     8A     -0.609113     9A     -0.588575
      10A     -0.545899    11A     -0.511416    12A     -0.506411
      13A     -0.357430

  @DF-RHF Final Energy:  -134.28829239021351

   => Energetics <=

    Nuclear Repulsion Energy =             84.4716457776620757
    One-Electron Energy =                -347.9687206958883507
    Two-Electron Energy =                 129.2087825280128186
    DFT Exchange-Correlation Energy =       0.0000000000000000
    Empirical Dispersion Energy =           0.0000000000000000
    PCM Polarization Energy =               0.0000000000000000
    EFP Energy =                            0.0000000000000000
    Total Energy =                       -134.2882923902134849
    Molecular point group: c1
  Basis Set: CC-PVTZ
  Basis Set:

  -Total Gradient:
     Atom            X                  Y                   Z
    ------   -----------------  -----------------  -----------------
       1       -0.000005188314    -0.000000932940     0.000012557810
       2       -0.001085661910    -0.000293466260     0.000646403147
       3        0.001247829295     0.000732179687    -0.000621870499
       4       -0.000000443414    -0.000002974511     0.000004357506
       5        0.000009601512    -0.000019583426     0.000006407759
       6        0.000951884460    -0.001355328086    -0.000905020636
       7       -0.000002843075    -0.000015038393    -0.000037437042
       8       -0.001128992172     0.000921023233     0.000840301892
       9        0.000012995372     0.000013087028     0.000030481753
      10        0.000000818247     0.000021033668     0.000023818313

  **** Optimization is complete! (in 5 steps) ****
    Final optimized geometry and variables:
    Molecular point group: c1

    Geometry (in Angstrom), charge = 0, multiplicity = 1:

    H           -0.712284272610     0.991346396520     1.311616910469
    C            0.282056887045     0.750963328963     0.954426448994
    N            0.236188557298    -0.449625351974     0.152121141894
    H            0.907492913692     0.582536196210     1.822299918330
    H            0.666171666102     1.625814146464     0.425830358748
    C           -0.536607718161    -0.350138315521    -1.074604533893
    H            1.155493759266    -0.779480403429    -0.034967422262
    H           -1.237289940594    -1.172905398298    -1.162552168278
    H            0.087782787419    -0.337315393476    -1.963488168594
    H           -1.118160320359     0.564701818665    -1.081423988686

  Mulliken Charges: (a.u.)
   Center  Symbol    Alpha    Beta     Spin     Total
       1     H     0.45667  0.45667  0.00000  0.08666
       2     C     3.08176  3.08176  0.00000 -0.16352
       3     N     3.63531  3.63531  0.00000 -0.27061
       4     H     0.45331  0.45331  0.00000  0.09338
       5     H     0.47446  0.47446  0.00000  0.05107
       6     C     3.07803  3.07803  0.00000 -0.15606
       7     H     0.43909  0.43909  0.00000  0.12182
       8     H     0.45560  0.45560  0.00000  0.08879
       9     H     0.46315  0.46315  0.00000  0.07370
      10     H     0.46262  0.46262  0.00000  0.07477

   Total alpha = 13.00000, Total beta = 13.00000, Total charge = -0.00000

*** Psi4 exiting successfully. Buy a developer a beer!
