  ==> Input File <==

--------------------------------------------------------------------------
set {
	reference rhf
	basis 6-31G*
}

set_num_threads( 4 )
memory 2 gb

molecule MOL {
0 1

H	 -2.646374	 -0.642757	 1.268656
C	 -2.083525	 -0.384536	 0.393091
O	 -0.807605	 -0.127164	 0.768327
F	 -2.118945	 -1.383102	 -0.486752
F	 -2.621877	 0.670592	 -0.209486
C	 0.084052	 0.273579	 -0.209957
C	 -0.447247	 1.578756	 -0.788226
Cl	 0.227384	 -0.956975	 -1.475819
H	 1.069357	 0.453957	 0.182997
F	 0.361922	 2.030385	 -1.722793
F	 -0.502997	 2.477680	 0.174201
F	 -1.646808	 1.441804	 -1.298393

	symmetry c1
}
set optking {
	frozen_dihedral = ("
		9 6 3 2
	")
}

ee = optimize('scf')
oeprop('DIPOLE', 'QUADRUPOLE', 'MULLIKEN_CHARGES')
f=open( 'psi4out.xyz', 'w' )
f.write( "12  " )
f.write( str(ee) + "\n" )
f.write( MOL.save_string_xyz() )
f.close()
--------------------------------------------------------------------------

    Molecular point group: c1
  Charge       = 0
  Multiplicity = 1
  Basis Set: 6-31G*
  Basis Set:
  @DF-RHF Final Energy: -1146.18087308674785
    Total Energy =                      -1146.1808730867483064
    Molecular point group: c1
  Basis Set: 6-31G*
  Basis Set:
  Basis Set: 6-31G*
  Basis Set:
  @DF-RHF Final Energy: -1146.24930516686709
    Total Energy =                      -1146.2493051668675434
  Basis Set: 6-31G*
  Basis Set:
  Basis Set: 6-31G*
  Basis Set:
  @DF-RHF Final Energy: -1146.27622611779543
    Total Energy =                      -1146.2762261177956589
  Basis Set: 6-31G*
  Basis Set:
  Basis Set: 6-31G*
  Basis Set:
  @DF-RHF Final Energy: -1146.29195759751383
    Total Energy =                      -1146.2919575975133739
  Basis Set: 6-31G*
  Basis Set:
  @DF-RHF Final Energy: -1146.29982379736953
    Total Energy =                      -1146.2998237973706637
  @DF-RHF Final Energy: -1146.30355418441991
    Total Energy =                      -1146.3035541844189993
  @DF-RHF Final Energy: -1146.30486383307107
    Total Energy =                      -1146.3048638330715221
  @DF-RHF Final Energy: -1146.30516237236748
    Total Energy =                      -1146.3051623723677039
  @DF-RHF Final Energy: -1146.30526077062314
    Total Energy =                      -1146.3052607706233630
  @DF-RHF Final Energy: -1146.30529572007731
    Total Energy =                      -1146.3052957200777655
  @DF-RHF Final Energy: -1146.30531372715541
    Total Energy =                      -1146.3053137271563173
  @DF-RHF Final Energy: -1146.30532646286315
    Total Energy =                      -1146.3053264628638317
  @DF-RHF Final Energy: -1146.30533700540173
    Total Energy =                      -1146.3053370054003608
  @DF-RHF Final Energy: -1146.30535378488003
    Total Energy =                      -1146.3053537848797987
  @DF-RHF Final Energy: -1146.30536872163157
    Total Energy =                      -1146.3053687216306571
  Basis Set: 6-31G*
  Basis Set:
  @DF-RHF Final Energy: -1146.30537717870311
    Total Energy =                      -1146.3053771787035657
  Basis Set: 6-31G*
  Basis Set:
  Basis Set: 6-31G*
  Basis Set:
  @DF-RHF Final Energy: -1146.30538376881236
    Total Energy =                      -1146.3053837688121348
  Basis Set: 6-31G*
  Basis Set:
  Basis Set: 6-31G*
  Basis Set:
  @DF-RHF Final Energy: -1146.30538756389387
    Total Energy =                      -1146.3053875638936461
  Basis Set: 6-31G*
  Basis Set:
  Charge       = 0
  Multiplicity = 1
  Basis Set: 6-31G*
  Basis Set:

    Orbital Energies (a.u.)
    -----------------------

    Doubly Occupied:

       1A   -104.842454     2A    -26.359328     3A    -26.358832
       4A    -26.358386     5A    -26.341138     6A    -26.337503
       7A    -20.647102     8A    -11.528437     9A    -11.485726
      10A    -11.402719    11A    -10.577274    12A     -8.046634
      13A     -8.043100    14A     -8.042954    15A     -1.761438
      16A     -1.711481    17A     -1.657404    18A     -1.656640
      19A     -1.633015    20A     -1.477569    21A     -1.177672
      22A     -1.050000    23A     -0.993915    24A     -0.915775
      25A     -0.857707    26A     -0.850299    27A     -0.844869
      28A     -0.830129    29A     -0.807079    30A     -0.752945
      31A     -0.729892    32A     -0.726086    33A     -0.702332
      34A     -0.696948    35A     -0.680731    36A     -0.671975
      37A     -0.663046    38A     -0.659059    39A     -0.650785
      40A     -0.633233    41A     -0.591739    42A     -0.559657
      43A     -0.521897    44A     -0.476215    45A     -0.465948

  @DF-RHF Final Energy: -1146.30538809498921

   => Energetics <=

    Nuclear Repulsion Energy =            757.5455949843181997
    One-Electron Energy =               -3098.1438353234034366
    Two-Electron Energy =                1194.2928522440963661
    DFT Exchange-Correlation Energy =       0.0000000000000000
    Empirical Dispersion Energy =           0.0000000000000000
    PCM Polarization Energy =               0.0000000000000000
    EFP Energy =                            0.0000000000000000
    Total Energy =                      -1146.3053880949889844
    Molecular point group: c1
  Basis Set: 6-31G*
  Basis Set:

  -Total Gradient:
     Atom            X                  Y                   Z
    ------   -----------------  -----------------  -----------------
       1        0.000009367701     0.000007310377     0.000005033029
       2        0.000669762632    -0.002764914409    -0.000604990902
       3       -0.000951689156     0.003821174727     0.000745138831
       4       -0.000009223900     0.000008652220     0.000025345729
       5        0.000028547533    -0.000023665363     0.000019977049
       6       -0.000552642813     0.001896999055     0.000429817200
       7       -0.000004332735     0.000003676045    -0.000016708892
       8        0.000006588860    -0.000004147759    -0.000015791341
       9        0.000803917987    -0.002919131799    -0.000586058783
      10        0.000004714641    -0.000001446456     0.000034589842
      11        0.000012184996    -0.000014671551     0.000004979028
      12       -0.000017195670    -0.000009835037    -0.000041330748

  **** Optimization is complete! (in 19 steps) ****
    Final optimized geometry and variables:
    Molecular point group: c1

    Geometry (in Angstrom), charge = 0, multiplicity = 1:

    H           -1.633440592156    -1.384931512597     2.071693908252
    C           -1.303942511428    -0.929789615128     1.157612078760
    O            0.008146876830    -0.606925704806     1.331839426956
    F           -1.491761419463    -1.759139369443     0.144668346122
    F           -2.029339987381     0.156332326878     0.915658850685
    C            0.879899255629    -0.175598349832     0.350834465175
    C            0.490831438947     1.155371460926    -0.294882014100
    CL           1.234515552074    -1.384287969509    -0.905013756954
    H            1.810622868446    -0.024016385151     0.866193148161
    F            1.531918542128     1.632264342560    -0.947915515110
    F            0.168838651412     2.018236499177     0.644915813637
    F           -0.510374188785     1.054401530514    -1.135202181392

  Mulliken Charges: (a.u.)
   Center  Symbol    Alpha    Beta     Spin     Total
       1     H     0.40694  0.40694  0.00000  0.18612
       2     C     2.56340  2.56340  0.00000  0.87319
       3     O     4.31171  4.31171  0.00000 -0.62343
       4     F     4.67606  4.67606  0.00000 -0.35213
       5     F     4.68142  4.68142  0.00000 -0.36283
       6     C     3.02931  3.02931  0.00000 -0.05863
       7     C     2.44645  2.44645  0.00000  1.10710
       8    CL     8.50489  8.50489  0.00000 -0.00978
       9     H     0.36391  0.36391  0.00000  0.27218
      10     F     4.67506  4.67506  0.00000 -0.35012
      11     F     4.67406  4.67406  0.00000 -0.34813
      12     F     4.66678  4.66678  0.00000 -0.33355

   Total alpha = 45.00000, Total beta = 45.00000, Total charge = -0.00000
