  ==> Input File <==

--------------------------------------------------------------------------
set {
	reference rhf
	basis 6-31G*
}

set_num_threads( 4 )
memory 2 gb

molecule MOL {
0 1

O	 1.434374	 0.500381	 -1.036837
C	 0.861134	 0.272526	 -0.014869
C	 -0.623889	 -0.118271	 -0.003699
C	 1.606301	 0.374232	 1.304368
C	 -0.895332	 -1.256461	 -1.002431
C	 -1.473649	 1.103340	 -0.370799
C	 -0.983900	 -0.581483	 1.422328
H	 -0.615301	 -0.972064	 -2.012700
H	 -1.954261	 -1.493213	 -1.010207
H	 -0.360539	 -2.164946	 -0.747760
H	 -1.227476	 1.468527	 -1.361691
H	 -2.526716	 0.838935	 -0.358521
H	 -1.314819	 1.915855	 0.325860
H	 -2.039679	 -0.828001	 1.472951
H	 -0.427637	 -1.464071	 1.720694
H	 -0.789023	 0.202493	 2.147048
H	 1.878533	 -0.620914	 1.643534
H	 2.511958	 0.943795	 1.147839
H	 1.014091	 0.834152	 2.086022

	symmetry c1
}
set optking {
	frozen_dihedral = ("
		1 2 3 5
	")
}

ee = optimize('scf')
oeprop('DIPOLE', 'QUADRUPOLE', 'MULLIKEN_CHARGES')
f=open( 'psi4out.xyz', 'w' )
f.write( "19  " )
f.write( str(ee) + "\n" )
f.write( MOL.save_string_xyz() )
f.close()
--------------------------------------------------------------------------

    Molecular point group: c1
  Charge       = 0
  Multiplicity = 1
  Basis Set: 6-31G*
  Basis Set:
  @DF-RHF Final Energy:  -309.05698823175601
    Total Energy =                       -309.0569882317561223
    Molecular point group: c1
  Basis Set: 6-31G*
  Basis Set:
  Basis Set: 6-31G*
  Basis Set:
  @DF-RHF Final Energy:  -309.05846848165760
    Total Energy =                       -309.0584684816575987
  Basis Set: 6-31G*
  Basis Set:
  Basis Set: 6-31G*
  Basis Set:
  @DF-RHF Final Energy:  -309.06116810067090
    Total Energy =                       -309.0611681006707272
  Basis Set: 6-31G*
  Basis Set:
  Basis Set: 6-31G*
  Basis Set:
  @DF-RHF Final Energy:  -309.06167231427582
    Total Energy =                       -309.0616723142757110
  Basis Set: 6-31G*
  Basis Set:
  @DF-RHF Final Energy:  -309.06175260996713
    Total Energy =                       -309.0617526099669021
  @DF-RHF Final Energy:  -309.06181898934864
    Total Energy =                       -309.0618189893489784
  Basis Set: 6-31G*
  Basis Set:
  @DF-RHF Final Energy:  -309.06190466169807
    Total Energy =                       -309.0619046616980086
  Basis Set: 6-31G*
  Basis Set:
  Basis Set: 6-31G*
  Basis Set:
  @DF-RHF Final Energy:  -309.06193494222117
    Total Energy =                       -309.0619349422210007
  Basis Set: 6-31G*
  Basis Set:
  Basis Set: 6-31G*
  Basis Set:
  @DF-RHF Final Energy:  -309.06189905524781
    Total Energy =                       -309.0618990552477499
  Basis Set: 6-31G*
  Basis Set:
  Charge       = 0
  Multiplicity = 1
  Basis Set: 6-31G*
  Basis Set:

    Orbital Energies (a.u.)
    -----------------------

    Doubly Occupied:

       1A    -20.547412     2A    -11.323559     3A    -11.246255
       4A    -11.227685     5A    -11.222122     6A    -11.218961
       7A    -11.213746     8A     -1.394545     9A     -1.107802
      10A     -1.003621    11A     -0.942207    12A     -0.938273
      13A     -0.833367    14A     -0.703951    15A     -0.664701
      16A     -0.630915    17A     -0.622559    18A     -0.587464
      19A     -0.585487    20A     -0.572391    21A     -0.551881
      22A     -0.545894    23A     -0.523198    24A     -0.513573
      25A     -0.500089    26A     -0.471304    27A     -0.460495
      28A     -0.391783

  @DF-RHF Final Energy:  -309.06195195713104

   => Energetics <=

    Nuclear Repulsion Energy =            326.1665311865788794
    One-Electron Energy =               -1065.3664885948187475
    Two-Electron Energy =                 430.1380054511089952
    DFT Exchange-Correlation Energy =       0.0000000000000000
    Empirical Dispersion Energy =           0.0000000000000000
    PCM Polarization Energy =               0.0000000000000000
    EFP Energy =                            0.0000000000000000
    Total Energy =                       -309.0619519571309297
    Molecular point group: c1
  Basis Set: 6-31G*
  Basis Set:

  -Total Gradient:
     Atom            X                  Y                   Z
    ------   -----------------  -----------------  -----------------
       1       -0.000270692991     0.000835996545     0.000110599952
       2        0.000541449980    -0.001225587162    -0.000034698744
       3       -0.000310641973     0.000756927871    -0.000543442746
       4       -0.000049763434     0.000061230557    -0.000020670171
       5        0.000140410549    -0.000390657251     0.000465240910
       6        0.000001854320     0.000019105770    -0.000004901305
       7        0.000014715937     0.000017012688    -0.000027332758
       8       -0.000009853843     0.000000113313     0.000000793742
       9       -0.000005304766    -0.000009311062    -0.000005089389
      10        0.000003617490     0.000007539449     0.000018277369
      11       -0.000005012108    -0.000003318952     0.000012125045
      12       -0.000020629469     0.000021130331    -0.000000732916
      13        0.000007524995    -0.000017154279    -0.000001194622
      14       -0.000009006121    -0.000003695031     0.000002175281
      15       -0.000006074316     0.000003915166     0.000002538812
      16        0.000003974302     0.000001032673     0.000009181219
      17       -0.000012886149    -0.000037096052     0.000018245397
      18       -0.000006547518    -0.000016699386    -0.000005198046
      19       -0.000007134888    -0.000020485186     0.000004082974

  **** Optimization is complete! (in 10 steps) ****
    Final optimized geometry and variables:
    Molecular point group: c1

    Geometry (in Angstrom), charge = 0, multiplicity = 1:

    O            1.368694484575     0.497027797309    -1.115322997650
    C            0.873296373558     0.235343537524    -0.060598562335
    C           -0.608937553859    -0.182064055540    -0.000737151048
    C            1.687658545700     0.359677598289     1.210978283413
    C           -0.834698420817    -1.290665190118    -1.041297515010
    C           -1.435524974728     1.061389122457    -0.378161032877
    C           -1.046270814767    -0.687584088939     1.381624427132
    H           -0.536549193974    -0.960843578485    -2.027340187098
    H           -1.884141465338    -1.567806835120    -1.070073516491
    H           -0.262858895922    -2.181348234310    -0.796607123091
    H           -1.156325960452     1.423456686539    -1.359663706622
    H           -2.493608243243     0.818331959033    -0.387319947573
    H           -1.288470580097     1.868160017092     0.335099314960
    H           -2.095169588402    -0.963877850577     1.351438873153
    H           -0.488940553436    -1.567610813741     1.687375853161
    H           -0.933275545969     0.067402473657     2.152501718549
    H            1.745161186544    -0.589359493376     1.733403038994
    H            2.683787694613     0.690592228275     0.953322858197
    H            1.234808473614     1.074599216532     1.890735431921

  Mulliken Charges: (a.u.)
   Center  Symbol    Alpha    Beta     Spin     Total
       1     O     4.26758  4.26758  0.00000 -0.53517
       2     C     2.72755  2.72755  0.00000  0.54490
       3     C     3.06085  3.06085  0.00000 -0.12170
       4     C     3.28964  3.28964  0.00000 -0.57929
       5     C     3.23512  3.23512  0.00000 -0.47023
       6     C     3.23789  3.23789  0.00000 -0.47578
       7     C     3.24037  3.24037  0.00000 -0.48073
       8     H     0.40072  0.40072  0.00000  0.19856
       9     H     0.41961  0.41961  0.00000  0.16078
      10     H     0.42017  0.42017  0.00000  0.15966
      11     H     0.40269  0.40269  0.00000  0.19463
      12     H     0.41656  0.41656  0.00000  0.16689
      13     H     0.42041  0.42041  0.00000  0.15918
      14     H     0.41413  0.41413  0.00000  0.17174
      15     H     0.41812  0.41812  0.00000  0.16375
      16     H     0.41833  0.41833  0.00000  0.16333
      17     H     0.40701  0.40701  0.00000  0.18598
      18     H     0.39544  0.39544  0.00000  0.20913
      19     H     0.40782  0.40782  0.00000  0.18436

   Total alpha = 28.00000, Total beta = 28.00000, Total charge =  0.00000
