  ==> Input File <==

--------------------------------------------------------------------------
set {
	reference rhf
	basis 6-31G*
}

set_num_threads( 4 )
memory 2 gb

molecule MOL {
0 1

O	 0.074228	 1.262779	 -0.000085
C	 0.028650	 0.075053	 -0.000277
C	 -1.233602	 -0.752807	 0.000328
O	 1.109162	 -0.694619	 -0.000298
C	 -2.501530	 0.091881	 0.000126
H	 -1.193807	 -1.406641	 -0.865785
H	 -1.193516	 -1.405779	 0.867015
H	 -2.545121	 0.729328	 -0.874513
H	 -3.377167	 -0.548497	 0.000561
H	 -2.544818	 0.730135	 0.874258
C	 1.883286	 -0.715488	 1.185402
H	 2.254067	 0.273225	 1.414271
H	 2.704656	 -1.386981	 0.989669
H	 1.294891	 -1.075674	 2.016984

	symmetry c1
}
set optking {
	frozen_dihedral = ("
		11 4 2 3
	")
}

ee = optimize('scf')
oeprop('DIPOLE', 'QUADRUPOLE', 'MULLIKEN_CHARGES')
f=open( 'psi4out.xyz', 'w' )
f.write( "14  " )
f.write( str(ee) + "\n" )
f.write( MOL.save_string_xyz() )
f.close()
--------------------------------------------------------------------------

    Molecular point group: c1
  Charge       = 0
  Multiplicity = 1
  Basis Set: 6-31G*
  Basis Set:
  @DF-RHF Final Energy:  -305.85435012639095
    Total Energy =                       -305.8543501263909548
    Molecular point group: c1
  Basis Set: 6-31G*
  Basis Set:
  Basis Set: 6-31G*
  Basis Set:
  @DF-RHF Final Energy:  -305.85420264662093
    Total Energy =                       -305.8542026466212178
  Basis Set: 6-31G*
  Basis Set:
  Basis Set: 6-31G*
  Basis Set:
  @DF-RHF Final Energy:  -305.85468634578399
    Total Energy =                       -305.8546863457842164
  Basis Set: 6-31G*
  Basis Set:
  Basis Set: 6-31G*
  Basis Set:
  @DF-RHF Final Energy:  -305.85523426633034
    Total Energy =                       -305.8552342663302852
  Basis Set: 6-31G*
  Basis Set:
  Basis Set: 6-31G*
  Basis Set:
  @DF-RHF Final Energy:  -305.85524428083056
    Total Energy =                       -305.8552442808306751
  Basis Set: 6-31G*
  Basis Set:
  Charge       = 0
  Multiplicity = 1
  Basis Set: 6-31G*
  Basis Set:

    Orbital Energies (a.u.)
    -----------------------

    Doubly Occupied:

       1A    -20.587482     2A    -20.556945     3A    -11.375851
       4A    -11.289554     5A    -11.242207     6A    -11.218942
       7A     -1.461114     8A     -1.366979     9A     -1.063452
      10A     -0.976406    11A     -0.888630    12A     -0.766066
      13A     -0.700440    14A     -0.677143    15A     -0.671864
      16A     -0.619332    17A     -0.615760    18A     -0.555895
      19A     -0.542352    20A     -0.523419    21A     -0.509974
      22A     -0.494287    23A     -0.455343    24A     -0.437460

  @DF-RHF Final Energy:  -305.85524502040158

   => Energetics <=

    Nuclear Repulsion Energy =            246.6427340866076179
    One-Electron Energy =                -905.8021660199686949
    Two-Electron Energy =                 353.3041869129595511
    DFT Exchange-Correlation Energy =       0.0000000000000000
    Empirical Dispersion Energy =           0.0000000000000000
    PCM Polarization Energy =               0.0000000000000000
    EFP Energy =                            0.0000000000000000
    Total Energy =                       -305.8552450204014690
    Molecular point group: c1
  Basis Set: 6-31G*
  Basis Set:

  -Total Gradient:
     Atom            X                  Y                   Z
    ------   -----------------  -----------------  -----------------
       1       -0.000000988479     0.000006865082    -0.000103897311
       2       -0.001487992999    -0.001940391203    -0.006314876683
       3        0.000150909415    -0.000113446141     0.005182458294
       4        0.004443905723     0.006520222571    -0.000701874926
       5       -0.000001224568     0.000006672907    -0.000008341894
       6        0.000002915643     0.000003908990    -0.000002174704
       7       -0.000001373575    -0.000014344150    -0.000007935490
       8        0.000003764973    -0.000000365174     0.000001735817
       9       -0.000003543039     0.000001512195     0.000002234991
      10       -0.000001623056    -0.000002513818    -0.000002123777
      11       -0.003144883420    -0.004459766562     0.001970483361
      12        0.000008745765    -0.000009640225    -0.000007088133
      13       -0.000004978387     0.000001921352    -0.000025574688
      14        0.000036366002    -0.000000635824     0.000016975143

  **** Optimization is complete! (in 6 steps) ****
    Final optimized geometry and variables:
    Molecular point group: c1

    Geometry (in Angstrom), charge = 0, multiplicity = 1:

    O            0.156107906789     1.374602571281    -0.136978948301
    C            0.104741691390     0.194803814682    -0.203380074181
    C           -1.164559868914    -0.619775504070    -0.202328161491
    O            1.213394747210    -0.574909550682    -0.235637044609
    C           -2.431777971433     0.223641749608    -0.254518569920
    H           -1.113983815282    -1.317312283838    -1.033020914958
    H           -1.135256313815    -1.233188833304     0.695504821127
    H           -2.462496448302     0.822149286754    -1.157224996106
    H           -3.308840584470    -0.414440085790    -0.238838299262
    H           -2.485201373416     0.899831339435     0.589864050825
    C            1.993973543702    -0.603172621464     0.942190458167
    H            2.305708286997     0.394337481935     1.220672150243
    H            2.859078452633    -1.209062289572     0.722445872445
    H            1.437926646694    -1.054949003121     1.756990617699

  Mulliken Charges: (a.u.)
   Center  Symbol    Alpha    Beta     Spin     Total
       1     O     4.25875  4.25875  0.00000 -0.51751
       2     C     2.61310  2.61310  0.00000  0.77381
       3     C     3.20765  3.20765  0.00000 -0.41531
       4     O     4.31558  4.31558  0.00000 -0.63115
       5     C     3.24000  3.24000  0.00000 -0.48000
       6     H     0.39857  0.39857  0.00000  0.20287
       7     H     0.40543  0.40543  0.00000  0.18914
       8     H     0.40964  0.40964  0.00000  0.18072
       9     H     0.41747  0.41747  0.00000  0.16506
      10     H     0.40933  0.40933  0.00000  0.18134
      11     C     3.09329  3.09329  0.00000 -0.18657
      12     H     0.40519  0.40519  0.00000  0.18963
      13     H     0.40402  0.40402  0.00000  0.19196
      14     H     0.42199  0.42199  0.00000  0.15601

   Total alpha = 24.00000, Total beta = 24.00000, Total charge =  0.00000
