  ==> Input File <==

--------------------------------------------------------------------------
set {
	reference rhf
	basis cc-pvtz
}

set_num_threads( 4 )
memory 2 gb

molecule MOL {
0 1

H	 -3.230071	 0.617454	 -0.566582
C	 -2.479425	 0.091230	 -1.151819
O	 -1.401606	 -0.295183	 -0.366624
H	 -2.924411	 -0.802034	 -1.565286
H	 -2.166836	 0.736990	 -1.970456
C	 -0.718530	 0.758693	 0.228682
C	 0.718529	 0.758687	 -0.228709
H	 -1.176498	 1.708665	 -0.046615
H	 -0.748705	 0.673525	 1.312779
O	 1.401606	 -0.295166	 0.366636
H	 0.748705	 0.673477	 -1.312803
H	 1.176496	 1.708671	 0.046552
C	 2.714315	 -0.441627	 -0.061017
H	 2.765292	 -0.641548	 -1.128869
H	 3.305661	 0.447341	 0.150952
H	 3.143725	 -1.278506	 0.470147

	symmetry c1
}
set optking {
	frozen_dihedral = ("
		2 3 6 7
	")
}

ee = optimize('scf')
oeprop('DIPOLE', 'QUADRUPOLE', 'MULLIKEN_CHARGES')
f=open( 'psi4out.xyz', 'w' )
f.write( "16  " )
f.write( str(ee) + "\n" )
f.write( MOL.save_string_xyz() )
f.close()
--------------------------------------------------------------------------

    Molecular point group: c1
  Charge       = 0
  Multiplicity = 1
  Basis Set: CC-PVTZ
  Basis Set:
  @DF-RHF Final Energy:  -307.09316340687195
    Total Energy =                       -307.0931634068718949
    Molecular point group: c1
  Basis Set: CC-PVTZ
  Basis Set:
  Basis Set: CC-PVTZ
  Basis Set:
  @DF-RHF Final Energy:  -307.09361241623537
    Total Energy =                       -307.0936124162353735
  Basis Set: CC-PVTZ
  Basis Set:
  Basis Set: CC-PVTZ
  Basis Set:
  @DF-RHF Final Energy:  -307.09372047099623
    Total Energy =                       -307.0937204709963453
  Basis Set: CC-PVTZ
  Basis Set:
  Charge       = 0
  Multiplicity = 1
  Basis Set: CC-PVTZ
  Basis Set:

    Orbital Energies (a.u.)
    -----------------------

    Doubly Occupied:

       1A    -20.547930     2A    -20.545015     3A    -11.267622
       4A    -11.266932     5A    -11.263655     6A    -11.261799
       7A     -1.389899     8A     -1.372340     9A     -1.030659
      10A     -0.939447    11A     -0.895861    12A     -0.821706
      13A     -0.687721    14A     -0.678634    15A     -0.659889
      16A     -0.640264    17A     -0.624758    18A     -0.604801
      19A     -0.558428    20A     -0.527139    21A     -0.511668
      22A     -0.480513    23A     -0.471710    24A     -0.418974
      25A     -0.409801

  @DF-RHF Final Energy:  -307.09372214497870

   => Energetics <=

    Nuclear Repulsion Energy =            259.0247630064853297
    One-Electron Energy =                -932.4826378945135730
    Two-Electron Energy =                 366.3641527430496581
    DFT Exchange-Correlation Energy =       0.0000000000000000
    Empirical Dispersion Energy =           0.0000000000000000
    PCM Polarization Energy =               0.0000000000000000
    EFP Energy =                            0.0000000000000000
    Total Energy =                       -307.0937221449786421
    Molecular point group: c1
  Basis Set: CC-PVTZ
  Basis Set:

  -Total Gradient:
     Atom            X                  Y                   Z
    ------   -----------------  -----------------  -----------------
       1        0.000036019745     0.000006159014     0.000008414172
       2       -0.000008901091    -0.000079902111    -0.000177847041
       3       -0.000164401518     0.000069396275     0.000078220363
       4       -0.000029423156    -0.000000080723    -0.000026603105
       5        0.000035266696    -0.000006350492     0.000046765236
       6        0.000103980604    -0.000153651426     0.000125529047
       7       -0.000025617244     0.000283142461    -0.000056344251
       8        0.000012250280    -0.000016893320    -0.000002466258
       9        0.000064092739     0.000034215093    -0.000001614443
      10       -0.000021897027    -0.000089362620     0.000017651408
      11       -0.000002734606    -0.000053437919     0.000035111504
      12        0.000009802182    -0.000011690344    -0.000020306117
      13       -0.000011034848     0.000019097719    -0.000040807667
      14        0.000008854564    -0.000003547021     0.000003303819
      15        0.000002919582     0.000000876465     0.000003711091
      16       -0.000009176903     0.000002028947     0.000007282243

  **** Optimization is complete! (in 4 steps) ****
    Final optimized geometry and variables:
    Molecular point group: c1

    Geometry (in Angstrom), charge = 0, multiplicity = 1:

    H           -3.297087146324     0.513668488535    -0.370874898805
    C           -2.539317091923    -0.025747453169    -0.934588652810
    O           -1.456591112475    -0.374986921242    -0.136763293823
    H           -2.975723356571    -0.939079913818    -1.312361360966
    H           -2.236990803002     0.588812951473    -1.779917210402
    C           -0.747743226790     0.684314319498     0.433226164878
    C            0.698686435994     0.684194768272    -0.005244405079
    H           -1.190162384987     1.638077675859     0.158461843582
    H           -0.790374157247     0.595942230867     1.513157431471
    O            1.357588830169    -0.400976988114     0.558175948776
    H            0.749143752600     0.640497712295    -1.092147441072
    H            1.166060995933     1.616862758812     0.313560506321
    C            2.675961556552    -0.548608239576     0.149257148117
    H            2.744626107925    -0.707055326700    -0.924689890848
    H            3.274707937492     0.323156055724     0.406993356470
    H            3.084145691427    -1.411620711575     0.654595211141

  Mulliken Charges: (a.u.)
   Center  Symbol    Alpha    Beta     Spin     Total
       1     H     0.46998  0.46998  0.00000  0.06004
       2     C     3.02984  3.02984  0.00000 -0.05968
       3     O     4.17539  4.17539  0.00000 -0.35079
       4     H     0.44856  0.44856  0.00000  0.10288
       5     H     0.47425  0.47425  0.00000  0.05150
       6     C     2.96948  2.96948  0.00000  0.06105
       7     C     2.95832  2.95832  0.00000  0.08335
       8     H     0.47388  0.47388  0.00000  0.05224
       9     H     0.45645  0.45645  0.00000  0.08710
      10     O     4.16840  4.16840  0.00000 -0.33680
      11     H     0.47592  0.47592  0.00000  0.04815
      12     H     0.47713  0.47713  0.00000  0.04574
      13     C     3.03166  3.03166  0.00000 -0.06332
      14     H     0.47105  0.47105  0.00000  0.05790
      15     H     0.47356  0.47356  0.00000  0.05288
      16     H     0.44612  0.44612  0.00000  0.10777

   Total alpha = 25.00000, Total beta = 25.00000, Total charge = -0.00000
