  ==> Input File <==

--------------------------------------------------------------------------
set {
	reference rhf
	basis cc-pvtz
}

set_num_threads( 4 )
memory 2 gb

molecule MOL {
0 1

H	 0.038000	 0.931000	 0.259000
N	 0.000000	 0.000000	 -0.111000
H	 -0.825000	 -0.433000	 0.259000
H	 0.787000	 -0.498000	 0.259000

	symmetry c1
}
ee = optimize('scf')
oeprop('DIPOLE', 'QUADRUPOLE', 'MULLIKEN_CHARGES')
f=open( 'psi4out.xyz', 'w' )
f.write( "4  " )
f.write( str(ee) + "\n" )
f.write( MOL.save_string_xyz() )
f.close()
--------------------------------------------------------------------------

    Molecular point group: c1
  Charge       = 0
  Multiplicity = 1
  Basis Set: CC-PVTZ
  Basis Set:
  @DF-RHF Final Energy:   -56.21824917315317
    Total Energy =                        -56.2182491731531897
    Molecular point group: c1
  Basis Set: CC-PVTZ
  Basis Set:
  Basis Set: CC-PVTZ
  Basis Set:
  @DF-RHF Final Energy:   -56.21828114105234
    Total Energy =                        -56.2182811410523371
  Basis Set: CC-PVTZ
  Basis Set:
  Charge       = 0
  Multiplicity = 1
  Basis Set: CC-PVTZ
  Basis Set:

    Orbital Energies (a.u.)
    -----------------------

    Doubly Occupied:

       1A    -15.528234     2A     -1.142636     3A     -0.630464
       4A     -0.630462     5A     -0.423956

  @DF-RHF Final Energy:   -56.21828366571181

   => Energetics <=

    Nuclear Repulsion Energy =             12.1087271495534434
    One-Electron Energy =                 -99.9425160389356790
    Two-Electron Energy =                  31.6155052236703966
    DFT Exchange-Correlation Energy =       0.0000000000000000
    Empirical Dispersion Energy =           0.0000000000000000
    PCM Polarization Energy =               0.0000000000000000
    EFP Energy =                            0.0000000000000000
    Total Energy =                        -56.2182836657118372
    Molecular point group: c1
  Basis Set: CC-PVTZ
  Basis Set:

  -Total Gradient:
     Atom            X                  Y                   Z
    ------   -----------------  -----------------  -----------------
       1       -0.000002016632    -0.000018363677     0.000001319409
       2       -0.000010318275     0.000008062043    -0.000009900617
       3        0.000014096258     0.000009003457     0.000001901475
       4       -0.000001761352     0.000001298176     0.000006679733

  **** Optimization is complete! (in 3 steps) ****
    Final optimized geometry and variables:
    Molecular point group: c1

    Geometry (in Angstrom), charge = 0, multiplicity = 1:

    H            0.037734152023     0.930219863467     0.297881094994
    N           -0.000000478850     0.000000373926    -0.064317101659
    H           -0.824467116781    -0.432423817538     0.297881198375
    H            0.786739618069    -0.497801241385     0.297882045332

  Mulliken Charges: (a.u.)
   Center  Symbol    Alpha    Beta     Spin     Total
       1     H     0.41745  0.41745  0.00000  0.16510
       2     N     3.74766  3.74766  0.00000 -0.49531
       3     H     0.41745  0.41745  0.00000  0.16510
       4     H     0.41745  0.41745  0.00000  0.16510

   Total alpha =  5.00000, Total beta =  5.00000, Total charge = -0.00000
