  ==> Input File <==

--------------------------------------------------------------------------
set {
	reference rhf
	basis cc-pvtz
}

set_num_threads( 4 )
memory 2 gb

molecule MOL {
0 1

H	 2.129164	 -1.371247	 -0.147457
O	 1.675515	 -0.612943	 -0.465627
C	 1.135873	 0.113391	 0.608264
C	 0.027642	 1.012027	 0.090274
H	 1.902972	 0.727968	 1.072615
H	 0.756163	 -0.561896	 1.370018
C	 -1.138737	 0.285728	 -0.581921
H	 0.464661	 1.708096	 -0.618252
H	 -0.340737	 1.603071	 0.925246
C	 -1.933983	 -0.631436	 0.343653
H	 -0.763151	 -0.285569	 -1.422081
H	 -1.808359	 1.035291	 -0.992333
H	 -2.789188	 -1.049673	 -0.174718
H	 -1.335629	 -1.461368	 0.700418
H	 -2.305435	 -0.092167	 1.209725

	symmetry c1
}
set optking {
	frozen_dihedral = ("
		1 2 3 4
	")
}

ee = optimize('scf')
oeprop('DIPOLE', 'QUADRUPOLE', 'MULLIKEN_CHARGES')
f=open( 'psi4out.xyz', 'w' )
f.write( "15  " )
f.write( str(ee) + "\n" )
f.write( MOL.save_string_xyz() )
f.close()
--------------------------------------------------------------------------

    Molecular point group: c1
  Charge       = 0
  Multiplicity = 1
  Basis Set: CC-PVTZ
  Basis Set:
  @DF-RHF Final Energy:  -232.23722104913946
    Total Energy =                       -232.2372210491395208
    Molecular point group: c1
  Basis Set: CC-PVTZ
  Basis Set:
  Basis Set: CC-PVTZ
  Basis Set:
  @DF-RHF Final Energy:  -232.23723891816175
    Total Energy =                       -232.2372389181616654
  Basis Set: CC-PVTZ
  Basis Set:
  Basis Set: CC-PVTZ
  Basis Set:
  @DF-RHF Final Energy:  -232.23724379801806
    Total Energy =                       -232.2372437980178574
  Basis Set: CC-PVTZ
  Basis Set:
  Basis Set: CC-PVTZ
  Basis Set:
  @DF-RHF Final Energy:  -232.23724498511640
    Total Energy =                       -232.2372449851164902
  Basis Set: CC-PVTZ
  Basis Set:
  Charge       = 0
  Multiplicity = 1
  Basis Set: CC-PVTZ
  Basis Set:

    Orbital Energies (a.u.)
    -----------------------

    Doubly Occupied:

       1A    -20.546305     2A    -11.265503     3A    -11.210953
       4A    -11.208108     5A    -11.204651     6A     -1.364001
       7A     -1.065922     8A     -0.972394     9A     -0.870381
      10A     -0.775933    11A     -0.707759    12A     -0.649843
      13A     -0.609013    14A     -0.578165    15A     -0.564693
      16A     -0.534649    17A     -0.510522    18A     -0.477125
      19A     -0.468684    20A     -0.454110    21A     -0.432787

  @DF-RHF Final Energy:  -232.23724553560317

   => Energetics <=

    Nuclear Repulsion Energy =            191.7526591359016948
    One-Electron Energy =                -695.0368060044381764
    Two-Electron Energy =                 271.0469013329333166
    DFT Exchange-Correlation Energy =       0.0000000000000000
    Empirical Dispersion Energy =           0.0000000000000000
    PCM Polarization Energy =               0.0000000000000000
    EFP Energy =                            0.0000000000000000
    Total Energy =                       -232.2372455356031651
    Molecular point group: c1
  Basis Set: CC-PVTZ
  Basis Set:

  -Total Gradient:
     Atom            X                  Y                   Z
    ------   -----------------  -----------------  -----------------
       1       -0.001055653202    -0.000690914071    -0.000104087925
       2        0.001101808846     0.000661057809     0.000179238235
       3        0.000452930682     0.000600087335    -0.000176184540
       4       -0.000489799376    -0.000564253336     0.000096368978
       5       -0.000010175972     0.000007275026    -0.000005122978
       6        0.000004335140    -0.000015415302     0.000011413368
       7        0.000001483148    -0.000004019357     0.000006853555
       8       -0.000006095775     0.000005331463    -0.000003662966
       9       -0.000000802312     0.000003417652     0.000001856430
      10       -0.000002972319     0.000004513315    -0.000000141011
      11        0.000003077108     0.000000219125    -0.000005422296
      12       -0.000000079319    -0.000006316002     0.000002522518
      13       -0.000001547591     0.000000739648    -0.000000682100
      14       -0.000000732227    -0.000000383712    -0.000001380800
      15        0.000004223170    -0.000001339591    -0.000001568470

  **** Optimization is complete! (in 5 steps) ****
    Final optimized geometry and variables:
    Molecular point group: c1

    Geometry (in Angstrom), charge = 0, multiplicity = 1:

    H            2.162542892254    -1.350211699143    -0.165471829947
    O            1.704354507061    -0.591141328609    -0.473524399008
    C            1.137476899526     0.107842390333     0.605434033039
    C            0.025626873612     1.005075290325     0.091799517640
    H            1.893005207372     0.716995286731     1.094577219466
    H            0.752371741271    -0.586094907664     1.346717149970
    C           -1.140619904334     0.278495587949    -0.579477171419
    H            0.460527267468     1.703113710911    -0.616350853093
    H           -0.341281195265     1.595728337018     0.927772351441
    C           -1.948020849445    -0.623275127671     0.350840137210
    H           -0.762958241441    -0.303382562482    -1.411447404159
    H           -1.803835344955     1.026834250349    -1.002108525606
    H           -2.800267617018    -1.045059140424    -0.169463547978
    H           -1.357581598976    -1.451307072394     0.725326026047
    H           -2.324827004754    -0.070863586729     1.206126810931

  Mulliken Charges: (a.u.)
   Center  Symbol    Alpha    Beta     Spin     Total
       1     H     0.39460  0.39460  0.00000  0.21081
       2     O     4.20114  4.20114  0.00000 -0.40229
       3     C     2.97639  2.97639  0.00000  0.04722
       4     C     3.09413  3.09413  0.00000 -0.18826
       5     H     0.46197  0.46197  0.00000  0.07606
       6     H     0.47212  0.47212  0.00000  0.05576
       7     C     3.08795  3.08795  0.00000 -0.17590
       8     H     0.44752  0.44752  0.00000  0.10497
       9     H     0.45434  0.45434  0.00000  0.09131
      10     C     3.15452  3.15452  0.00000 -0.30904
      11     H     0.44643  0.44643  0.00000  0.10714
      12     H     0.45045  0.45045  0.00000  0.09910
      13     H     0.44641  0.44641  0.00000  0.10718
      14     H     0.45559  0.45559  0.00000  0.08882
      15     H     0.45645  0.45645  0.00000  0.08711

   Total alpha = 21.00000, Total beta = 21.00000, Total charge = -0.00000
