  ==> Input File <==

--------------------------------------------------------------------------
set {
	reference rhf
	basis 6-31G*
}

set_num_threads( 4 )
memory 2 gb

molecule MOL {
0 1

H	 2.194934	 0.531676	 -0.816887
O	 2.064459	 -0.086912	 -0.111827
C	 0.745630	 0.005118	 0.354752
H	 0.739005	 0.037656	 1.444976
C	 -0.064159	 -1.194875	 -0.122754
C	 -0.046302	 1.193543	 -0.190431
H	 0.197384	 -1.376065	 -1.160690
H	 0.162855	 -2.097978	 0.431858
C	 -1.535782	 -0.752177	 0.006642
H	 0.154512	 1.271315	 -1.255561
H	 0.226209	 2.140461	 0.267302
C	 -1.509193	 0.801505	 0.065617
H	 -2.127797	 -1.112194	 -0.826847
H	 -1.986849	 -1.158408	 0.905561
H	 -2.183670	 1.254107	 -0.651985
H	 -1.821727	 1.144320	 1.047089

	symmetry c1
}
set optking {
	frozen_dihedral = ("
		1 2 3 6
	")
}

ee = optimize('scf')
oeprop('DIPOLE', 'QUADRUPOLE', 'MULLIKEN_CHARGES')
f=open( 'psi4out.xyz', 'w' )
f.write( "16  " )
f.write( str(ee) + "\n" )
f.write( MOL.save_string_xyz() )
f.close()
--------------------------------------------------------------------------

    Molecular point group: c1
  Charge       = 0
  Multiplicity = 1
  Basis Set: 6-31G*
  Basis Set:
  @DF-RHF Final Energy:  -270.01114863465011
    Total Energy =                       -270.0111486346501124
    Molecular point group: c1
  Basis Set: 6-31G*
  Basis Set:
  Basis Set: 6-31G*
  Basis Set:
  @DF-RHF Final Energy:  -270.01194226067048
    Total Energy =                       -270.0119422606705939
  Basis Set: 6-31G*
  Basis Set:
  Basis Set: 6-31G*
  Basis Set:
  @DF-RHF Final Energy:  -270.01212636442892
    Total Energy =                       -270.0121263644288092
  Basis Set: 6-31G*
  Basis Set:
  Basis Set: 6-31G*
  Basis Set:
  @DF-RHF Final Energy:  -270.01213466092531
    Total Energy =                       -270.0121346609253123
  Basis Set: 6-31G*
  Basis Set:
  @DF-RHF Final Energy:  -270.01214041810294
    Total Energy =                       -270.0121404181031721
  Basis Set: 6-31G*
  Basis Set:
  @DF-RHF Final Energy:  -270.01215624329109
    Total Energy =                       -270.0121562432913151
  Basis Set: 6-31G*
  Basis Set:
  Basis Set: 6-31G*
  Basis Set:
  @DF-RHF Final Energy:  -270.01216517214226
    Total Energy =                       -270.0121651721421472
  Basis Set: 6-31G*
  Basis Set:
  Basis Set: 6-31G*
  Basis Set:
  @DF-RHF Final Energy:  -270.01216914678059
    Total Energy =                       -270.0121691467805931
  Basis Set: 6-31G*
  Basis Set:
  Charge       = 0
  Multiplicity = 1
  Basis Set: 6-31G*
  Basis Set:

    Orbital Energies (a.u.)
    -----------------------

    Doubly Occupied:

       1A    -20.549744     2A    -11.268559     3A    -11.221133
       4A    -11.220553     5A    -11.217075     6A    -11.208172
       7A     -1.359252     8A     -1.115803     9A     -0.969313
      10A     -0.948939    11A     -0.801091    12A     -0.781818
      13A     -0.679797    14A     -0.665162    15A     -0.605379
      16A     -0.599891    17A     -0.576967    18A     -0.534661
      19A     -0.502667    20A     -0.485463    21A     -0.473084
      22A     -0.459761    23A     -0.449959    24A     -0.415315

  @DF-RHF Final Energy:  -270.01216938176293

   => Energetics <=

    Nuclear Repulsion Energy =            255.0570322582813674
    One-Electron Energy =                -871.9192817973689671
    Two-Electron Energy =                 346.8500801573245553
    DFT Exchange-Correlation Energy =       0.0000000000000000
    Empirical Dispersion Energy =           0.0000000000000000
    PCM Polarization Energy =               0.0000000000000000
    EFP Energy =                            0.0000000000000000
    Total Energy =                       -270.0121693817629875
    Molecular point group: c1
  Basis Set: 6-31G*
  Basis Set:

  -Total Gradient:
     Atom            X                  Y                   Z
    ------   -----------------  -----------------  -----------------
       1        0.000275327442     0.000751084394     0.000824385755
       2       -0.000418790741    -0.001100339500    -0.001279249524
       3        0.000357109255     0.000728545459     0.001074658227
       4        0.000006532519     0.000001139362    -0.000005077870
       5       -0.000033045718    -0.000003425954    -0.000020713772
       6       -0.000220930878    -0.000383728677    -0.000586366298
       7        0.000010888098    -0.000001348857    -0.000002086937
       8       -0.000001412321    -0.000001248647    -0.000004099046
       9        0.000020177368    -0.000022713126     0.000028788929
      10       -0.000008874794     0.000000585014    -0.000004167704
      11        0.000004436007     0.000003398711    -0.000003498745
      12        0.000009421360     0.000019310969    -0.000027451915
      13        0.000010268185     0.000001693351     0.000005670600
      14       -0.000012478732    -0.000005073530     0.000001984221
      15       -0.000006982682     0.000013611540     0.000002761710
      16        0.000008355624    -0.000001490508    -0.000005537631

  **** Optimization is complete! (in 9 steps) ****
    Final optimized geometry and variables:
    Molecular point group: c1

    Geometry (in Angstrom), charge = 0, multiplicity = 1:

    H            2.263610387252     0.587581062144    -0.713885846770
    O            2.092845968447    -0.068984456837    -0.054960252257
    C            0.747771368737    -0.015700501144     0.343325377288
    H            0.738479795617    -0.014278551595     1.430005935188
    C           -0.081722580530    -1.193394022822    -0.164795609712
    C           -0.036705318842     1.192834568179    -0.168761987856
    H            0.117443344533    -1.316368379236    -1.226410421436
    H            0.172091993898    -2.127240657329     0.323827227723
    C           -1.535002053968    -0.753312262058     0.074581452114
    H            0.177486435263     1.318854721785    -1.229722030685
    H            0.232667836061     2.117685478269     0.330644806523
    C           -1.512824385841     0.802006007679     0.031002973971
    H           -2.212132289512    -1.173131424990    -0.660190373886
    H           -1.878573762150    -1.094679723706     1.045628834820
    H           -2.137743811359     1.197054554028    -0.761443362760
    H           -1.891851786241     1.213172732308     0.960325365458

  Mulliken Charges: (a.u.)
   Center  Symbol    Alpha    Beta     Spin     Total
       1     H     0.28001  0.28001  0.00000  0.43997
       2     O     4.38266  4.38266  0.00000 -0.76532
       3     C     2.89724  2.89724  0.00000  0.20553
       4     H     0.42201  0.42201  0.00000  0.15597
       5     C     3.16464  3.16464  0.00000 -0.32928
       6     C     3.18658  3.18658  0.00000 -0.37316
       7     H     0.42090  0.42090  0.00000  0.15821
       8     H     0.41214  0.41214  0.00000  0.17572
       9     C     3.17098  3.17098  0.00000 -0.34196
      10     H     0.42482  0.42482  0.00000  0.15036
      11     H     0.41158  0.41158  0.00000  0.17684
      12     C     3.16675  3.16675  0.00000 -0.33349
      13     H     0.41424  0.41424  0.00000  0.17152
      14     H     0.41626  0.41626  0.00000  0.16747
      15     H     0.41410  0.41410  0.00000  0.17181
      16     H     0.41509  0.41509  0.00000  0.16982

   Total alpha = 24.00000, Total beta = 24.00000, Total charge = -0.00000
