  ==> Input File <==

--------------------------------------------------------------------------
set {
	reference rhf
	basis 6-31G*
}

set_num_threads( 4 )
memory 2 gb

molecule MOL {
0 1

O	 -1.487788	 1.240889	 -0.102860
C	 -1.083277	 0.139568	 0.115197
C	 0.323299	 -0.082943	 0.642902
C	 -1.933017	 -1.084621	 -0.143902
C	 1.355627	 -0.005344	 -0.493127
H	 0.396251	 -1.044647	 1.143147
H	 0.528637	 0.693580	 1.371677
C	 1.463914	 -1.315714	 -1.270593
H	 1.090091	 0.798471	 -1.176241
H	 2.319401	 0.253006	 -0.067057
H	 2.202238	 -1.237371	 -2.062067
H	 0.515175	 -1.582719	 -1.727132
H	 1.760577	 -2.132494	 -0.619512
H	 -1.393885	 -1.806447	 -0.750509
H	 -2.850323	 -0.799888	 -0.640100
H	 -2.169004	 -1.571158	 0.798858

	symmetry c1
}
set optking {
	frozen_dihedral = ("
		9 5 3 2
	")
}

ee = optimize('scf')
oeprop('DIPOLE', 'QUADRUPOLE', 'MULLIKEN_CHARGES')
f=open( 'psi4out.xyz', 'w' )
f.write( "16  " )
f.write( str(ee) + "\n" )
f.write( MOL.save_string_xyz() )
f.close()
--------------------------------------------------------------------------

    Molecular point group: c1
  Charge       = 0
  Multiplicity = 1
  Basis Set: 6-31G*
  Basis Set:
  @DF-RHF Final Energy:  -270.02652230957233
    Total Energy =                       -270.0265223095724991
    Molecular point group: c1
  Basis Set: 6-31G*
  Basis Set:
  Basis Set: 6-31G*
  Basis Set:
  @DF-RHF Final Energy:  -270.02766101378131
    Total Energy =                       -270.0276610137815396
  Basis Set: 6-31G*
  Basis Set:
  Basis Set: 6-31G*
  Basis Set:
  @DF-RHF Final Energy:  -270.02665016246647
    Total Energy =                       -270.0266501624664102
  Basis Set: 6-31G*
  Basis Set:
  Basis Set: 6-31G*
  Basis Set:
  @DF-RHF Final Energy:  -270.02836439675730
    Total Energy =                       -270.0283643967573539
  Basis Set: 6-31G*
  Basis Set:
  @DF-RHF Final Energy:  -270.02888165219258
    Total Energy =                       -270.0288816521925810
  @DF-RHF Final Energy:  -270.02948316708353
    Total Energy =                       -270.0294831670835833
  @DF-RHF Final Energy:  -270.03011143769993
    Total Energy =                       -270.0301114377000431
  @DF-RHF Final Energy:  -270.03028876017498
    Total Energy =                       -270.0302887601746988
  @DF-RHF Final Energy:  -270.03046090621865
    Total Energy =                       -270.0304609062187069
  @DF-RHF Final Energy:  -270.03061468665749
    Total Energy =                       -270.0306146866574863
  @DF-RHF Final Energy:  -270.03100185823030
    Total Energy =                       -270.0310018582299563
  @DF-RHF Final Energy:  -270.03125202015366
    Total Energy =                       -270.0312520201536017
  @DF-RHF Final Energy:  -270.03133108340967
    Total Energy =                       -270.0313310834095546
  Basis Set: 6-31G*
  Basis Set:
  @DF-RHF Final Energy:  -270.03138387720111
    Total Energy =                       -270.0313838772012787
  Basis Set: 6-31G*
  Basis Set:
  Basis Set: 6-31G*
  Basis Set:
  @DF-RHF Final Energy:  -270.03138715342061
    Total Energy =                       -270.0313871534206100
  Basis Set: 6-31G*
  Basis Set:
  Basis Set: 6-31G*
  Basis Set:
  @DF-RHF Final Energy:  -270.03138823541349
    Total Energy =                       -270.0313882354133170
  Basis Set: 6-31G*
  Basis Set:
  Charge       = 0
  Multiplicity = 1
  Basis Set: 6-31G*
  Basis Set:

    Orbital Energies (a.u.)
    -----------------------

    Doubly Occupied:

       1A    -20.551688     2A    -11.327914     3A    -11.232609
       4A    -11.229282     5A    -11.219124     6A    -11.208086
       7A     -1.397195     8A     -1.075494     9A     -1.015232
      10A     -0.944542    11A     -0.825796    12A     -0.728345
      13A     -0.665077    14A     -0.637073    15A     -0.622609
      16A     -0.592792    17A     -0.582707    18A     -0.553363
      19A     -0.546868    20A     -0.501311    21A     -0.486290
      22A     -0.479727    23A     -0.474176    24A     -0.402133

  @DF-RHF Final Energy:  -270.03138858230966

   => Energetics <=

    Nuclear Repulsion Energy =            240.6093158073966833
    One-Electron Energy =                -842.6825473582133554
    Two-Electron Energy =                 332.0418429685070123
    DFT Exchange-Correlation Energy =       0.0000000000000000
    Empirical Dispersion Energy =           0.0000000000000000
    PCM Polarization Energy =               0.0000000000000000
    EFP Energy =                            0.0000000000000000
    Total Energy =                       -270.0313885823096598
    Molecular point group: c1
  Basis Set: 6-31G*
  Basis Set:

  -Total Gradient:
     Atom            X                  Y                   Z
    ------   -----------------  -----------------  -----------------
       1       -0.000011799486    -0.000006679621    -0.000041766405
       2       -0.000123014442     0.001758839001     0.000869350106
       3       -0.000003035709    -0.002773359420    -0.001639782273
       4        0.000020385635     0.000040297327     0.000020082477
       5        0.001004430493     0.002345935391     0.002910797383
       6       -0.000004872197    -0.000007461391     0.000000989597
       7       -0.000001565903    -0.000002746670     0.000000994285
       8       -0.000006208231     0.000009191145     0.000014853857
       9       -0.000864621863    -0.001324226234    -0.002103773851
      10       -0.000001470280    -0.000003263162     0.000000276385
      11        0.000000664289    -0.000001102209    -0.000002809647
      12        0.000000669135     0.000001314868    -0.000006138571
      13        0.000003403339    -0.000004769532     0.000000022225
      14       -0.000002918451    -0.000006830207    -0.000019313294
      15       -0.000004200405    -0.000006880393    -0.000002706831
      16       -0.000005845923    -0.000018258893    -0.000001075443

  **** Optimization is complete! (in 17 steps) ****
    Final optimized geometry and variables:
    Molecular point group: c1

    Geometry (in Angstrom), charge = 0, multiplicity = 1:

    O           -1.019535625398     0.753561003027    -0.848869831958
    C           -0.924733293905     0.126729242898     0.161637638646
    C            0.405077200229    -0.091097294259     0.864735549971
    C           -2.139442687788    -0.492477226868     0.821023817768
    C            1.625342134196     0.376153919085     0.069940859857
    H            0.490049980281    -1.140742570827     1.138794727254
    H            0.338176479200     0.449251527929     1.808700715300
    C            2.065468381722    -0.633604874875    -0.991125098290
    H            1.385233672371     1.311864667040    -0.419708540188
    H            2.445797489337     0.562382994331     0.756339127548
    H            2.926363773745    -0.267094547202    -1.541179356843
    H            1.270890854802    -0.816279433095    -1.706735267920
    H            2.341489695260    -1.583908178800    -0.541297896528
    H           -2.092343783698    -1.574070984817     0.726704685342
    H           -3.039375145166    -0.133918039720     0.340978575435
    H           -2.169927655406    -0.262042510751     1.881326720797

  Mulliken Charges: (a.u.)
   Center  Symbol    Alpha    Beta     Spin     Total
       1     O     4.26220  4.26220  0.00000 -0.52440
       2     C     2.73614  2.73614  0.00000  0.52772
       3     C     3.21076  3.21076  0.00000 -0.42151
       4     C     3.28698  3.28698  0.00000 -0.57395
       5     C     3.15254  3.15254  0.00000 -0.30508
       6     H     0.41087  0.41087  0.00000  0.17825
       7     H     0.40619  0.40619  0.00000  0.18763
       8     C     3.24361  3.24361  0.00000 -0.48722
       9     H     0.40276  0.40276  0.00000  0.19447
      10     H     0.42004  0.42004  0.00000  0.15992
      11     H     0.41765  0.41765  0.00000  0.16469
      12     H     0.41160  0.41160  0.00000  0.17680
      13     H     0.42565  0.42565  0.00000  0.14869
      14     H     0.40629  0.40629  0.00000  0.18742
      15     H     0.39647  0.39647  0.00000  0.20705
      16     H     0.41024  0.41024  0.00000  0.17952

   Total alpha = 24.00000, Total beta = 24.00000, Total charge =  0.00000
