                              Psi4 1.0.54 Driver

  ==> Input File <==

--------------------------------------------------------------------------
set {
	reference rhf
	basis cc-pvtz
}

set_num_threads( 4 )
memory 2 gb

molecule MOL {
0 1

O	 1.035167	 -1.412042	 -4.945753
C	 0.651237	 -0.530124	 -4.248437
C	 0.461722	 -0.737241	 -2.758727
C	 0.351007	 0.842889	 -4.801126
C	 1.785034	 -0.554903	 -2.004776
H	 0.096029	 -1.745632	 -2.612007
H	 -0.280302	 -0.045655	 -2.374053
C	 1.630207	 -0.772146	 -0.501001
H	 2.508270	 -1.247919	 -2.415733
H	 2.173329	 0.445076	 -2.182449
C	 2.907848	 -0.545876	 0.309149
H	 1.265908	 -1.780732	 -0.322061
H	 0.861420	 -0.100619	 -0.128681
C	 3.373802	 0.906639	 0.372125
H	 3.699140	 -1.146831	 -0.127906
H	 2.764321	 -0.923458	 1.318191
H	 3.519798	 1.311927	 -0.623875
H	 4.316899	 0.983758	 0.900700
H	 2.661122	 1.540651	 0.885346
H	 -0.716398	 1.028237	 -4.735624
H	 0.664923	 0.905899	 -5.831687
H	 0.845505	 1.608577	 -4.213943

	symmetry c1
}
set optking {
	frozen_dihedral = ("
		12 8 11 15
	")
}

ee,wfn = optimize('scf', return_wfn=True)
oeprop( wfn, 'DIPOLE', 'QUADRUPOLE', 'MULLIKEN_CHARGES')
f=open( 'psi4out.xyz', 'w' )
f.write( "22  " )
f.write( str(ee) + "\n" )
f.write( MOL.save_string_xyz() )
f.close()
--------------------------------------------------------------------------

    Molecular point group: c1
  Charge       = 0
  Multiplicity = 1
  Basis Set: CC-PVTZ
  Basis Set:
  @DF-RHF Final Energy:  -348.22292840280829
    Total Energy =                       -348.2229284028077814
    Molecular point group: c1
  Basis Set: CC-PVTZ
  Basis Set:
  Basis Set: CC-PVTZ
  Basis Set:
  @DF-RHF Final Energy:  -348.22314507274990
    Total Energy =                       -348.2231450727499009
  Basis Set: CC-PVTZ
  Basis Set:
  Basis Set: CC-PVTZ
  Basis Set:
  @DF-RHF Final Energy:  -348.22334674509608
    Total Energy =                       -348.2233467450958528
  Basis Set: CC-PVTZ
  Basis Set:
  Basis Set: CC-PVTZ
  Basis Set:
  @DF-RHF Final Energy:  -348.22338060106586
    Total Energy =                       -348.2233806010659691
  Basis Set: CC-PVTZ
  Basis Set:
  @DF-RHF Final Energy:  -348.22338891898607
    Total Energy =                       -348.2233889189859610
  Basis Set: CC-PVTZ
  Basis Set:
  @DF-RHF Final Energy:  -348.22338751877635
    Total Energy =                       -348.2233875187756666
  Basis Set: CC-PVTZ
  Basis Set:
  Basis Set: CC-PVTZ
  Basis Set:
  @DF-RHF Final Energy:  -348.22338858783365
    Total Energy =                       -348.2233885878334831
  Basis Set: CC-PVTZ
  Basis Set:
  Basis Set: CC-PVTZ
  Basis Set:
  @DF-RHF Final Energy:  -348.22339032760823
    Total Energy =                       -348.2233903276080582
  Basis Set: CC-PVTZ
  Basis Set:
  Charge       = 0
  Multiplicity = 1
  Basis Set: CC-PVTZ
  Basis Set:

    Orbital Energies (a.u.)
    -----------------------

    Doubly Occupied:

       1A    -20.536726     2A    -11.319229     3A    -11.228169
       4A    -11.227511     5A    -11.226882     6A    -11.220736
       7A    -11.219178     8A    -11.211557     9A     -1.396839
      10A     -1.097604    11A     -1.046197    12A     -1.000575
      13A     -0.939490    14A     -0.858415    15A     -0.788783
      16A     -0.734334    17A     -0.662353    18A     -0.649700
      19A     -0.628153    20A     -0.620394    21A     -0.600382
      22A     -0.587739    23A     -0.555185    24A     -0.549068
      25A     -0.536289    26A     -0.520516    27A     -0.500639
      28A     -0.490046    29A     -0.471340    30A     -0.466041
      31A     -0.462962    32A     -0.398490

  @DF-RHF Final Energy:  -348.22339048656158

   => Energetics <=

    Nuclear Repulsion Energy =            373.4824078107212699
    One-Electron Energy =               -1211.9085465000725890
    Two-Electron Energy =                 490.2027482027895076
    DFT Exchange-Correlation Energy =       0.0000000000000000
    Empirical Dispersion Energy =           0.0000000000000000
    PCM Polarization Energy =               0.0000000000000000
    EFP Energy =                            0.0000000000000000
    Total Energy =                       -348.2233904865618115
    Molecular point group: c1
  Basis Set: CC-PVTZ
  Basis Set:

  -Total Gradient:
     Atom            X                  Y                   Z
    ------   -----------------  -----------------  -----------------
       1       -0.000002803907     0.000007928656     0.000003854942
       2        0.000016640647     0.000017837544    -0.000005328883
       3       -0.000017918979     0.000014078624     0.000005369854
       4       -0.000034241905    -0.000028397874    -0.000027386040
       5        0.000007931450    -0.000020325266     0.000008052377
       6       -0.000001107532    -0.000001935094    -0.000002070034
       7        0.000007234563    -0.000005740741    -0.000001566030
       8        0.000635315952    -0.000194342668    -0.000954486890
       9       -0.000006249071     0.000002912970     0.000001052199
      10       -0.000005459244     0.000004225071    -0.000012530634
      11       -0.000392513287    -0.000758891417     0.000781777393
      12       -0.000462920691     0.000290884993     0.000685384615
      13        0.000004297789    -0.000001659554     0.000001854060
      14       -0.000025610883    -0.000003719555     0.000008842870
      15        0.000230368886     0.000671695419    -0.000516193471
      16        0.000001303103     0.000001691021     0.000009270719
      17        0.000002325335     0.000003165838    -0.000004684756
      18        0.000004219117    -0.000003276364     0.000008426338
      19        0.000009019910    -0.000004810675    -0.000007393977
      20        0.000012554713    -0.000005011590     0.000011573016
      21        0.000003846648     0.000006257853     0.000000130301
      22        0.000013767385     0.000007432806     0.000006052025

  **** Optimization is complete! (in 9 steps) ****
    Final optimized geometry and variables:
    Molecular point group: c1

    Geometry (in Angstrom), charge = 0, multiplicity = 1:

    O           -0.454604680401    -1.071375897359    -2.630087853428
    C           -0.866701182803    -0.198442149014    -1.937685336522
    C           -1.068749315991    -0.409212154716    -0.450303106753
    C           -1.194328824740     1.166270390511    -2.495375407706
    C            0.235315229064    -0.173639979819     0.322279164343
    H           -1.398488289454    -1.430029399319    -0.305653210558
    H           -1.841473593891     0.255449065684    -0.078505448919
    C            0.068758180238    -0.396918284164     1.823687609759
    H            0.992755430855    -0.847005111103    -0.064222578068
    H            0.589142422911     0.835042376182     0.134587290551
    C            1.354623231170    -0.230538992354     2.636048651363
    H           -0.320331853700    -1.397665221038     1.986692899824
    H           -0.686641645099     0.284745389318     2.208271725025
    C            1.848252809859     1.210025274203     2.750520798085
    H            2.137496524019    -0.842161105794     2.196245957222
    H            1.185188359296    -0.620712152905     3.634345357193
    H            2.107866656325     1.628416675438     1.785260027247
    H            2.732220068327     1.264854708608     3.375277092679
    H            1.090473951923     1.847080289819     3.195150563396
    H           -2.267445981665     1.321633349402    -2.447981554072
    H           -0.865333936734     1.237781413346    -3.520653273332
    H           -0.731422021049     1.945700793825    -1.900653600327

  Mulliken Charges: (a.u.)
   Center  Symbol    Alpha    Beta     Spin     Total
       1     O     4.17776  4.17776  0.00000 -0.35552
       2     C     2.85819  2.85819  0.00000  0.28361
       3     C     3.09733  3.09733  0.00000 -0.19466
       4     C     3.15514  3.15514  0.00000 -0.31029
       5     C     3.10257  3.10257  0.00000 -0.20514
       6     H     0.43880  0.43880  0.00000  0.12241
       7     H     0.44918  0.44918  0.00000  0.10164
       8     C     3.09671  3.09671  0.00000 -0.19342
       9     H     0.44077  0.44077  0.00000  0.11847
      10     H     0.45067  0.45067  0.00000  0.09866
      11     C     3.09057  3.09057  0.00000 -0.18114
      12     H     0.44615  0.44615  0.00000  0.10770
      13     H     0.45407  0.45407  0.00000  0.09186
      14     C     3.15166  3.15166  0.00000 -0.30333
      15     H     0.45284  0.45284  0.00000  0.09432
      16     H     0.44706  0.44706  0.00000  0.10588
      17     H     0.45470  0.45470  0.00000  0.09060
      18     H     0.44529  0.44529  0.00000  0.10942
      19     H     0.45511  0.45511  0.00000  0.08978
      20     H     0.44830  0.44830  0.00000  0.10340
      21     H     0.43603  0.43603  0.00000  0.12795
      22     H     0.45109  0.45109  0.00000  0.09782

   Total alpha = 32.00000, Total beta = 32.00000, Total charge = -0.00000

*** Psi4 exiting successfully. Buy a developer a beer!
