                              Psi4 1.0.54 Driver

  ==> Input File <==

--------------------------------------------------------------------------
set {
	reference rhf
	basis cc-pvtz
}

set_num_threads( 4 )
memory 2 gb

molecule MOL {
0 1

O	 -0.491523	 1.914689	 -3.467234
C	 -0.866398	 1.495379	 -2.420774
C	 -0.291295	 0.219404	 -1.838371
C	 -1.916294	 2.216216	 -1.609058
C	 1.017053	 0.497669	 -1.087615
H	 -0.101248	 -0.459323	 -2.660151
H	 -1.008222	 -0.245805	 -1.170192
C	 1.630207	 -0.772146	 -0.501001
H	 1.708221	 0.970765	 -1.773687
H	 0.835302	 1.209183	 -0.285733
C	 2.907848	 -0.545876	 0.309149
H	 1.835309	 -1.473763	 -1.305765
H	 0.894882	 -1.250940	 0.139825
C	 3.373802	 0.906639	 0.372125
H	 3.699140	 -1.146831	 -0.127906
H	 2.764321	 -0.923458	 1.318191
H	 3.519798	 1.311927	 -0.623875
H	 4.316899	 0.983758	 0.900700
H	 2.661122	 1.540651	 0.885346
H	 -2.820335	 1.616243	 -1.581853
H	 -2.134278	 3.176152	 -2.051297
H	 -1.586479	 2.344830	 -0.584231

	symmetry c1
}
set optking {
	frozen_dihedral = ("
		12 8 11 15
	")
}

ee,wfn = optimize('scf', return_wfn=True)
oeprop( wfn, 'DIPOLE', 'QUADRUPOLE', 'MULLIKEN_CHARGES')
f=open( 'psi4out.xyz', 'w' )
f.write( "22  " )
f.write( str(ee) + "\n" )
f.write( MOL.save_string_xyz() )
f.close()
--------------------------------------------------------------------------

    Molecular point group: c1
  Charge       = 0
  Multiplicity = 1
  Basis Set: CC-PVTZ
  Basis Set:
  @DF-RHF Final Energy:  -348.21298029029748
    Total Energy =                       -348.2129802902974234
    Molecular point group: c1
  Basis Set: CC-PVTZ
  Basis Set:
  Basis Set: CC-PVTZ
  Basis Set:
  @DF-RHF Final Energy:  -348.19764634362849
    Total Energy =                       -348.1976463436287190
  Basis Set: CC-PVTZ
  Basis Set:
  Basis Set: CC-PVTZ
  Basis Set:
  @DF-RHF Final Energy:  -348.21436441605186
    Total Energy =                       -348.2143644160514668
  Basis Set: CC-PVTZ
  Basis Set:
  Basis Set: CC-PVTZ
  Basis Set:
  @DF-RHF Final Energy:  -348.21500629297213
    Total Energy =                       -348.2150062929719638
  Basis Set: CC-PVTZ
  Basis Set:
  @DF-RHF Final Energy:  -348.21501572686952
    Total Energy =                       -348.2150157268696375
  Basis Set: CC-PVTZ
  Basis Set:
  @DF-RHF Final Energy:  -348.21503668735045
    Total Energy =                       -348.2150366873501639
  Basis Set: CC-PVTZ
  Basis Set:
  Basis Set: CC-PVTZ
  Basis Set:
  @DF-RHF Final Energy:  -348.21504246412286
    Total Energy =                       -348.2150424641225186
  Basis Set: CC-PVTZ
  Basis Set:
  Basis Set: CC-PVTZ
  Basis Set:
  @DF-RHF Final Energy:  -348.21504435585382
    Total Energy =                       -348.2150443558537631
  Basis Set: CC-PVTZ
  Basis Set:
  Charge       = 0
  Multiplicity = 1
  Basis Set: CC-PVTZ
  Basis Set:

    Orbital Energies (a.u.)
    -----------------------

    Doubly Occupied:

       1A    -20.536573     2A    -11.319068     3A    -11.227829
       4A    -11.227143     5A    -11.226775     6A    -11.220864
       7A    -11.219297     8A    -11.210468     9A     -1.396682
      10A     -1.094827    11A     -1.043288    12A     -0.999992
      13A     -0.938655    14A     -0.864537    15A     -0.779537
      16A     -0.734367    17A     -0.666255    18A     -0.648439
      19A     -0.631293    20A     -0.616093    21A     -0.591719
      22A     -0.591200    23A     -0.559863    24A     -0.542168
      25A     -0.532935    26A     -0.527300    27A     -0.503346
      28A     -0.489417    29A     -0.470148    30A     -0.463858
      31A     -0.453091    32A     -0.398341

  @DF-RHF Final Energy:  -348.21504431913667

   => Energetics <=

    Nuclear Repulsion Energy =            374.5347343631735271
    One-Electron Energy =               -1214.0488196850494660
    Two-Electron Energy =                 491.2990410027393864
    DFT Exchange-Correlation Energy =       0.0000000000000000
    Empirical Dispersion Energy =           0.0000000000000000
    PCM Polarization Energy =               0.0000000000000000
    EFP Energy =                            0.0000000000000000
    Total Energy =                       -348.2150443191364957
    Molecular point group: c1
  Basis Set: CC-PVTZ
  Basis Set:

  -Total Gradient:
     Atom            X                  Y                   Z
    ------   -----------------  -----------------  -----------------
       1       -0.000007050342    -0.000001368199     0.000020246364
       2        0.000017747290     0.000014077890    -0.000016598283
       3       -0.000006362428    -0.000007819295    -0.000019719404
       4       -0.000018709918    -0.000018498248    -0.000015229581
       5       -0.000024108274     0.000030473235     0.000041366330
       6       -0.000011465128    -0.000000117842    -0.000004974897
       7        0.000014154875     0.000002347632    -0.000003620711
       8       -0.000016526648    -0.000057183341     0.000087403683
       9        0.000008566417    -0.000009059417     0.000007769570
      10       -0.000023407618    -0.000015373821    -0.000018707138
      11        0.000031034752     0.000056847337    -0.000103704900
      12        0.000016529358     0.000038014723    -0.000049049639
      13        0.000011174343     0.000011096453     0.000000664735
      14        0.000010954712     0.000006064268     0.000002077836
      15       -0.000018688525    -0.000045085158     0.000059432856
      16       -0.000007378656    -0.000001966609    -0.000005424867
      17       -0.000008370903    -0.000003061327     0.000005225460
      18       -0.000008675111    -0.000000667151    -0.000006508346
      19        0.000019536193    -0.000002530221     0.000008831300
      20        0.000011113570     0.000001713895     0.000001167354
      21        0.000004847866    -0.000004398035     0.000002522651
      22        0.000005084170     0.000006493228     0.000006829630

  **** Optimization is complete! (in 9 steps) ****
    Final optimized geometry and variables:
    Molecular point group: c1

    Geometry (in Angstrom), charge = 0, multiplicity = 1:

    O           -1.375656791517     0.651620597104    -2.308637980889
    C           -1.658564050880     0.506482732506    -1.163979773490
    C           -1.037568903921    -0.603568519189    -0.339570780044
    C           -2.634049162721     1.425069783762    -0.467297201637
    C            0.326579895245    -0.177112405846     0.218113542126
    H           -0.914414304023    -1.462547183505    -0.986756309949
    H           -1.698380220680    -0.881661542558     0.474696411921
    C            0.972622409822    -1.293627329641     1.038741262683
    H            0.961766198022     0.100098682985    -0.613829994161
    H            0.204583166512     0.711522221199     0.829006965731
    C            2.371335887024    -1.005012366245     1.647617540072
    H            1.040670603500    -2.172894420322     0.406927260223
    H            0.290344560420    -1.560769383912     1.839353337349
    C            2.982505833530     0.370773081768     1.382796348664
    H            3.066683252138    -1.755303947101     1.288519309723
    H            2.318438814808    -1.147435604829     2.721279272305
    H            3.125505013921     0.556618214142     0.325315161173
    H            3.954164506440     0.436607530024     1.858581675468
    H            2.371894983867     1.172102491913     1.781646535338
    H           -3.534453636116     0.869898535743    -0.224349325849
    H           -2.885444404648     2.255815578208    -1.108541515314
    H           -2.219777075163     1.787803708153     0.466684037500

  Mulliken Charges: (a.u.)
   Center  Symbol    Alpha    Beta     Spin     Total
       1     O     4.17870  4.17870  0.00000 -0.35740
       2     C     2.85799  2.85799  0.00000  0.28402
       3     C     3.09673  3.09673  0.00000 -0.19346
       4     C     3.15516  3.15516  0.00000 -0.31032
       5     C     3.10266  3.10266  0.00000 -0.20532
       6     H     0.43919  0.43919  0.00000  0.12162
       7     H     0.44955  0.44955  0.00000  0.10091
       8     C     3.10123  3.10123  0.00000 -0.20246
       9     H     0.43840  0.43840  0.00000  0.12321
      10     H     0.45076  0.45076  0.00000  0.09849
      11     C     3.08812  3.08812  0.00000 -0.17623
      12     H     0.44847  0.44847  0.00000  0.10306
      13     H     0.45098  0.45098  0.00000  0.09803
      14     C     3.15662  3.15662  0.00000 -0.31325
      15     H     0.45005  0.45005  0.00000  0.09990
      16     H     0.45106  0.45106  0.00000  0.09788
      17     H     0.45109  0.45109  0.00000  0.09783
      18     H     0.44354  0.44354  0.00000  0.11292
      19     H     0.45438  0.45438  0.00000  0.09125
      20     H     0.44837  0.44837  0.00000  0.10326
      21     H     0.43604  0.43604  0.00000  0.12791
      22     H     0.45092  0.45092  0.00000  0.09816

   Total alpha = 32.00000, Total beta = 32.00000, Total charge = -0.00000

*** Psi4 exiting successfully. Buy a developer a beer!
