  ==> Input File <==

--------------------------------------------------------------------------
set {
	reference rhf
	basis cc-pvtz
}

set_num_threads( 4 )
memory 2 gb

molecule MOL {
0 1

O	 0.287748	 0.934324	 -0.774141
C	 0.029490	 0.077183	 0.000078
C	 -1.232113	 -0.748027	 0.000015
O	 0.834823	 -0.274393	 0.988544
C	 -2.501422	 0.088592	 -0.000052
H	 -1.188777	 -1.400384	 -0.865133
H	 -1.188857	 -1.400312	 0.865225
H	 -2.548170	 0.725504	 -0.873205
H	 -3.371613	 -0.556398	 -0.000040
H	 -2.548215	 0.725571	 0.873047
C	 2.059350	 0.421477	 1.106622
H	 2.657775	 0.293672	 0.216797
H	 2.563365	 -0.005113	 1.958570
H	 1.885015	 1.475304	 1.265682

	symmetry c1
}
set optking {
	frozen_dihedral = ("
		4 2 3 6
	")
}

ee = optimize('scf')
oeprop('DIPOLE', 'QUADRUPOLE', 'MULLIKEN_CHARGES')
f=open( 'psi4out.xyz', 'w' )
f.write( "14  " )
f.write( str(ee) + "\n" )
f.write( MOL.save_string_xyz() )
f.close()
--------------------------------------------------------------------------

    Molecular point group: c1
  Charge       = 0
  Multiplicity = 1
  Basis Set: CC-PVTZ
  Basis Set:
  @DF-RHF Final Energy:  -305.98557228111196
    Total Energy =                       -305.9855722811117857
    Molecular point group: c1
  Basis Set: CC-PVTZ
  Basis Set:
  Basis Set: CC-PVTZ
  Basis Set:
  @DF-RHF Final Energy:  -305.98615588913492
    Total Energy =                       -305.9861558891349205
  Basis Set: CC-PVTZ
  Basis Set:
  Basis Set: CC-PVTZ
  Basis Set:
  @DF-RHF Final Energy:  -305.98566295652756
    Total Energy =                       -305.9856629565277899
  Basis Set: CC-PVTZ
  Basis Set:
  Basis Set: CC-PVTZ
  Basis Set:
  @DF-RHF Final Energy:  -305.98620109131002
    Total Energy =                       -305.9862010913101358
  Basis Set: CC-PVTZ
  Basis Set:
  Basis Set: CC-PVTZ
  Basis Set:
  @DF-RHF Final Energy:  -305.98620270842775
    Total Energy =                       -305.9862027084276406
  Basis Set: CC-PVTZ
  Basis Set:
  Charge       = 0
  Multiplicity = 1
  Basis Set: CC-PVTZ
  Basis Set:

    Orbital Energies (a.u.)
    -----------------------

    Doubly Occupied:

       1A    -20.599652     2A    -20.532398     3A    -11.365102
       4A    -11.279308     5A    -11.236180     6A    -11.219837
       7A     -1.473681     8A     -1.365808     9A     -1.065457
      10A     -0.981097    11A     -0.880474    12A     -0.773990
      13A     -0.701452    14A     -0.684480    15A     -0.675765
      16A     -0.619601    17A     -0.603158    18A     -0.559391
      19A     -0.540181    20A     -0.519748    21A     -0.513031
      22A     -0.499501    23A     -0.460193    24A     -0.440304

  @DF-RHF Final Energy:  -305.98620294580053

   => Energetics <=

    Nuclear Repulsion Energy =            247.6894190281956014
    One-Electron Energy =                -908.1716672956411003
    Two-Electron Energy =                 354.4960453216450560
    DFT Exchange-Correlation Energy =       0.0000000000000000
    Empirical Dispersion Energy =           0.0000000000000000
    PCM Polarization Energy =               0.0000000000000000
    EFP Energy =                            0.0000000000000000
    Total Energy =                       -305.9862029458004145
    Molecular point group: c1
  Basis Set: CC-PVTZ
  Basis Set:

  -Total Gradient:
     Atom            X                  Y                   Z
    ------   -----------------  -----------------  -----------------
       1        0.000013221899    -0.000034321995     0.000037887668
       2        0.000274727256    -0.000403186273    -0.000727134915
       3        0.000351458379    -0.000546109587     0.000668580530
       4       -0.000256320036     0.000422505407     0.000432400691
       5        0.000001054214     0.000015271187    -0.000019123927
       6       -0.000376235957     0.000573705156    -0.000396447099
       7        0.000001827915    -0.000015862544     0.000001856078
       8       -0.000004044763     0.000007658175    -0.000007268579
       9        0.000004514688    -0.000006997776     0.000003432510
      10        0.000010599466    -0.000011308819    -0.000000877727
      11       -0.000037182907    -0.000004159345     0.000007155633
      12        0.000001475878    -0.000002314466    -0.000002751966
      13        0.000005572812     0.000000439875     0.000000380502
      14        0.000009331159     0.000004681005     0.000001910600

  **** Optimization is complete! (in 6 steps) ****
    Final optimized geometry and variables:
    Molecular point group: c1

    Geometry (in Angstrom), charge = 0, multiplicity = 1:

    O            0.306417133911     0.848144261396    -0.968896122180
    C            0.084750683576    -0.025195325754    -0.200044982779
    C           -1.169987051034    -0.863620183538    -0.208454853413
    O            0.922620071569    -0.374404251258     0.759683448808
    C           -2.430153458075    -0.003508009719    -0.266452533563
    H           -1.115776882173    -1.485151805832    -1.095817305818
    H           -1.175358035488    -1.514889747668     0.653016559246
    H           -2.409824905118     0.646851602875    -1.129429393748
    H           -3.308589998421    -0.633441868456    -0.328465584329
    H           -2.522964863263     0.613528460727     0.619666322572
    C            2.143931206154     0.333537338515     0.841569045601
    H            2.712872612539     0.217314320084    -0.068824336766
    H            2.679906910717    -0.093702212520     1.673412675092
    H            1.963745647642     1.384264827232     1.012921796941

  Mulliken Charges: (a.u.)
   Center  Symbol    Alpha    Beta     Spin     Total
       1     O     4.20334  4.20334  0.00000 -0.40668
       2     C     2.80553  2.80553  0.00000  0.38894
       3     C     3.08647  3.08647  0.00000 -0.17293
       4     O     4.14363  4.14363  0.00000 -0.28726
       5     C     3.14437  3.14437  0.00000 -0.28873
       6     H     0.44607  0.44607  0.00000  0.10785
       7     H     0.43877  0.43877  0.00000  0.12245
       8     H     0.44157  0.44157  0.00000  0.11686
       9     H     0.44955  0.44955  0.00000  0.10091
      10     H     0.45350  0.45350  0.00000  0.09301
      11     C     3.03380  3.03380  0.00000 -0.06759
      12     H     0.45421  0.45421  0.00000  0.09157
      13     H     0.44521  0.44521  0.00000  0.10958
      14     H     0.45399  0.45399  0.00000  0.09202

   Total alpha = 24.00000, Total beta = 24.00000, Total charge =  0.00000
