  ==> Input File <==

--------------------------------------------------------------------------
set {
	reference rhf
	basis 6-31G*
}

set_num_threads( 4 )
memory 2 gb

molecule MOL {
0 1

H	 -0.241325	 -0.977650	 0.861721
N	 -0.626943	 -0.667432	 -0.000092
C	 -1.979713	 -0.158776	 0.000050
C	 0.141897	 -0.741289	 -1.113463
H	 -2.520245	 -0.492427	 -0.879443
H	 -1.934741	 0.918111	 -0.004428
H	 -2.517790	 -0.485056	 0.883818
C	 1.529032	 -1.307200	 -0.884143
O	 -0.235224	 -0.390513	 -2.197414
H	 1.470102	 -2.316869	 -0.489870
H	 2.060182	 -1.321383	 -1.824024
H	 2.077565	 -0.700116	 -0.170773

	symmetry c1
}
set optking {
	frozen_dihedral = ("
		4 2 3 5
	")
}

ee = optimize('scf')
oeprop('DIPOLE', 'QUADRUPOLE', 'MULLIKEN_CHARGES')
f=open( 'psi4out.xyz', 'w' )
f.write( "12  " )
f.write( str(ee) + "\n" )
f.write( MOL.save_string_xyz() )
f.close()
--------------------------------------------------------------------------

    Molecular point group: c1
  Charge       = 0
  Multiplicity = 1
  Basis Set: 6-31G*
  Basis Set:
  @DF-RHF Final Energy:  -247.00473615892940
    Total Energy =                       -247.0047361589294042
    Molecular point group: c1
  Basis Set: 6-31G*
  Basis Set:
  Basis Set: 6-31G*
  Basis Set:
  @DF-RHF Final Energy:  -247.00544955177784
    Total Energy =                       -247.0054495517777582
  Basis Set: 6-31G*
  Basis Set:
  Basis Set: 6-31G*
  Basis Set:
  @DF-RHF Final Energy:  -247.00558308041914
    Total Energy =                       -247.0055830804191146
  Basis Set: 6-31G*
  Basis Set:
  Basis Set: 6-31G*
  Basis Set:
  @DF-RHF Final Energy:  -247.00548025552504
    Total Energy =                       -247.0054802555251285
  Basis Set: 6-31G*
  Basis Set:
  @DF-RHF Final Energy:  -247.00561851130638
    Total Energy =                       -247.0056185113063520
  @DF-RHF Final Energy:  -247.00564188234267
    Total Energy =                       -247.0056418823426725
  @DF-RHF Final Energy:  -247.00567027440403
    Total Energy =                       -247.0056702744041104
  @DF-RHF Final Energy:  -247.00567894110046
    Total Energy =                       -247.0056789411003138
  @DF-RHF Final Energy:  -247.00568110374076
    Total Energy =                       -247.0056811037408124
  @DF-RHF Final Energy:  -247.00570423026693
    Total Energy =                       -247.0057042302671562
  @DF-RHF Final Energy:  -247.00572605426740
    Total Energy =                       -247.0057260542673703
  @DF-RHF Final Energy:  -247.00575311622265
    Total Energy =                       -247.0057531162225359
  Basis Set: 6-31G*
  Basis Set:
  @DF-RHF Final Energy:  -247.00578756432694
    Total Energy =                       -247.0057875643271927
  Basis Set: 6-31G*
  Basis Set:
  Basis Set: 6-31G*
  Basis Set:
  @DF-RHF Final Energy:  -247.00580031746327
    Total Energy =                       -247.0058003174631835
  Basis Set: 6-31G*
  Basis Set:
  Basis Set: 6-31G*
  Basis Set:
  @DF-RHF Final Energy:  -247.00580444033889
    Total Energy =                       -247.0058044403389204
  Basis Set: 6-31G*
  Basis Set:
  Charge       = 0
  Multiplicity = 1
  Basis Set: 6-31G*
  Basis Set:

    Orbital Energies (a.u.)
    -----------------------

    Doubly Occupied:

       1A    -20.514684     2A    -15.582343     3A    -11.342050
       4A    -11.254790     5A    -11.230061     6A     -1.383816
       7A     -1.228363     8A     -1.015227     9A     -0.932328
      10A     -0.787482    11A     -0.689064    12A     -0.648089
      13A     -0.632662    14A     -0.584948    15A     -0.579643
      16A     -0.554957    17A     -0.546328    18A     -0.503542
      19A     -0.412768    20A     -0.385431

  @DF-RHF Final Energy:  -247.00580540271923

   => Energetics <=

    Nuclear Repulsion Energy =            181.4556879314899049
    One-Electron Energy =                -695.3058321455185933
    Two-Electron Energy =                 266.8443388113093988
    DFT Exchange-Correlation Energy =       0.0000000000000000
    Empirical Dispersion Energy =           0.0000000000000000
    PCM Polarization Energy =               0.0000000000000000
    EFP Energy =                            0.0000000000000000
    Total Energy =                       -247.0058054027192611
    Molecular point group: c1
  Basis Set: 6-31G*
  Basis Set:

  -Total Gradient:
     Atom            X                  Y                   Z
    ------   -----------------  -----------------  -----------------
       1        0.000004153222    -0.000001386097     0.000010161682
       2        0.000116458000     0.000225131970     0.000012390569
       3       -0.000123301868    -0.000204587243     0.000043017835
       4       -0.000060546064    -0.000141379301     0.000060693906
       5        0.000061400113     0.000125957429    -0.000052184228
       6        0.000009908536    -0.000005696365     0.000002143023
       7        0.000011648570    -0.000006097596    -0.000003047351
       8        0.000020447853    -0.000001731621    -0.000050939903
       9       -0.000023009054     0.000008116413    -0.000060303536
      10       -0.000010840345    -0.000006381954     0.000009814671
      11        0.000002508708     0.000013592961     0.000004899864
      12       -0.000008827668    -0.000005538595     0.000023353470

  **** Optimization is complete! (in 16 steps) ****
    Final optimized geometry and variables:
    Molecular point group: c1

    Geometry (in Angstrom), charge = 0, multiplicity = 1:

    H           -0.073749217924    -0.498601487538     1.661912502784
    N           -0.434760926625    -0.156329323277     0.802376509214
    C           -1.742448789031     0.461319708531     0.802663433595
    C            0.390666786675    -0.083590053440    -0.267357893072
    H           -2.204063205553     0.319250344710    -0.162525285425
    H           -1.689907885384     1.526791373794     1.003601663899
    H           -2.355246752341    -0.008713571284     1.561148334239
    C            1.771875786722    -0.671822169749    -0.066817338409
    O            0.062914696217     0.424424413144    -1.304655539816
    H            1.791735069309    -1.453846399177     0.683639725042
    H            2.122396763001    -1.065578320571    -1.010326647649
    H            2.449069219840     0.118578190288     0.241670860165

  Mulliken Charges: (a.u.)
   Center  Symbol    Alpha    Beta     Spin     Total
       1     H     0.31011  0.31011  0.00000  0.37978
       2     N     3.89234  3.89234  0.00000 -0.78468
       3     C     3.13732  3.13732  0.00000 -0.27465
       4     C     2.63007  2.63007  0.00000  0.73987
       5     H     0.39431  0.39431  0.00000  0.21138
       6     H     0.41395  0.41395  0.00000  0.17211
       7     H     0.41710  0.41710  0.00000  0.16580
       8     C     3.29178  3.29178  0.00000 -0.58356
       9     O     4.30294  4.30294  0.00000 -0.60587
      10     H     0.41572  0.41572  0.00000  0.16856
      11     H     0.39363  0.39363  0.00000  0.21274
      12     H     0.40074  0.40074  0.00000  0.19853

   Total alpha = 20.00000, Total beta = 20.00000, Total charge =  0.00000
