  ==> Input File <==

--------------------------------------------------------------------------
set {
	reference rhf
	basis 6-31G*
}

set_num_threads( 4 )
memory 2 gb

molecule MOL {
0 1

H	 -0.000158	 1.970498	 0.756846
O	 -0.000074	 1.880206	 -0.189275
C	 -0.000015	 0.544847	 -0.545111
C	 -0.783006	 -0.266028	 0.482213
C	 1.432037	 0.063288	 -0.753264
H	 -0.514041	 0.455296	 -1.490553
F	 -2.024763	 0.166355	 0.533486
F	 -0.810073	 -1.548987	 0.189566
F	 -0.257528	 -0.129024	 1.689151
F	 1.999636	 0.764842	 -1.710965
F	 1.486814	 -1.207433	 -1.091858
F	 2.148488	 0.228423	 0.347193

	symmetry c1
}
set optking {
	frozen_dihedral = ("
		6 3 2 1
	")
}

ee = optimize('scf')
oeprop('DIPOLE', 'QUADRUPOLE', 'MULLIKEN_CHARGES')
f=open( 'psi4out.xyz', 'w' )
f.write( "12  " )
f.write( str(ee) + "\n" )
f.write( MOL.save_string_xyz() )
f.close()
--------------------------------------------------------------------------

    Molecular point group: c1
  Charge       = 0
  Multiplicity = 1
  Basis Set: 6-31G*
  Basis Set:
  @DF-RHF Final Energy:  -786.27597646225900
    Total Energy =                       -786.2759764622589955
    Molecular point group: c1
  Basis Set: 6-31G*
  Basis Set:
  Basis Set: 6-31G*
  Basis Set:
  @DF-RHF Final Energy:  -786.27623756083096
    Total Energy =                       -786.2762375608301681
  Basis Set: 6-31G*
  Basis Set:
  Basis Set: 6-31G*
  Basis Set:
  @DF-RHF Final Energy:  -786.27629833812512
    Total Energy =                       -786.2762983381246613
  Basis Set: 6-31G*
  Basis Set:
  Basis Set: 6-31G*
  Basis Set:
  @DF-RHF Final Energy:  -786.27630425386030
    Total Energy =                       -786.2763042538601894
  Basis Set: 6-31G*
  Basis Set:
  Charge       = 0
  Multiplicity = 1
  Basis Set: 6-31G*
  Basis Set:

    Orbital Energies (a.u.)
    -----------------------

    Doubly Occupied:

       1A    -26.368956     2A    -26.367417     3A    -26.363773
       4A    -26.356864     5A    -26.356820     6A    -26.353535
       7A    -20.615575     8A    -11.531689     9A    -11.521029
      10A    -11.349357    11A     -1.768335    12A     -1.755921
      13A     -1.666237    14A     -1.662005    15A     -1.653480
      16A     -1.651748    17A     -1.433843    18A     -1.102617
      19A     -0.997628    20A     -0.938213    21A     -0.866747
      22A     -0.862933    23A     -0.854443    24A     -0.842669
      25A     -0.831348    26A     -0.812127    27A     -0.744783
      28A     -0.731057    29A     -0.721213    30A     -0.717495
      31A     -0.692296    32A     -0.689668    33A     -0.684431
      34A     -0.672483    35A     -0.667795    36A     -0.666376
      37A     -0.654171    38A     -0.653035    39A     -0.618725
      40A     -0.549976    41A     -0.504858

  @DF-RHF Final Energy:  -786.27630509754715

   => Energetics <=

    Nuclear Repulsion Energy =            670.6024355729522313
    One-Electron Energy =               -2428.0501395250144014
    Two-Electron Energy =                 971.1713988545151324
    DFT Exchange-Correlation Energy =       0.0000000000000000
    Empirical Dispersion Energy =           0.0000000000000000
    PCM Polarization Energy =               0.0000000000000000
    EFP Energy =                            0.0000000000000000
    Total Energy =                       -786.2763050975469241
    Molecular point group: c1
  Basis Set: 6-31G*
  Basis Set:

  -Total Gradient:
     Atom            X                  Y                   Z
    ------   -----------------  -----------------  -----------------
       1       -0.003617441169     0.000012169048     0.000122273700
       2        0.003831647192    -0.000079924639     0.000269854088
       3        0.002452624962     0.000517484937    -0.001997895167
       4        0.000076056149     0.000027466678     0.000112428041
       5        0.000058959748    -0.000042668576    -0.000003601052
       6       -0.002653891848    -0.000386033702     0.001587923062
       7       -0.000042490300    -0.000012846634    -0.000020159027
       8       -0.000021420410    -0.000046714125    -0.000026031393
       9        0.000030361480     0.000004243049    -0.000052220463
      10       -0.000007928300     0.000011353052    -0.000025886279
      11       -0.000023468983    -0.000018167442    -0.000003455428
      12       -0.000083008519     0.000013638345     0.000036769905

  **** Optimization is complete! (in 5 steps) ****
    Final optimized geometry and variables:
    Molecular point group: c1

    Geometry (in Angstrom), charge = 0, multiplicity = 1:

    H           -0.297058929204     1.969588317044     0.828385727136
    O           -0.321424327591     1.860840608501    -0.114258895552
    C           -0.333307737774     0.521483760150    -0.461099940042
    C           -1.106617067576    -0.285248567469     0.577036841056
    C            1.096180507762     0.036900577014    -0.673970767966
    H           -0.870050016371     0.413668024345    -1.392875864308
    F           -2.369929445897     0.090760701346     0.574625158607
    F           -1.063127655184    -1.577458761022     0.345712578824
    F           -0.631201247075    -0.064211848103     1.793634982695
    F            1.691963721743     0.795939431020    -1.567669031618
    F            1.127587495937    -1.206436382656    -1.112793628803
    F            1.794349525942     0.095801583501     0.445102530294

  Mulliken Charges: (a.u.)
   Center  Symbol    Alpha    Beta     Spin     Total
       1     H     0.26407  0.26407  0.00000  0.47186
       2     O     4.36677  4.36677  0.00000 -0.73354
       3     C     3.03652  3.03652  0.00000 -0.07305
       4     C     2.45741  2.45741  0.00000  1.08517
       5     C     2.44046  2.44046  0.00000  1.11908
       6     H     0.37750  0.37750  0.00000  0.24501
       7     F     4.67565  4.67565  0.00000 -0.35131
       8     F     4.67097  4.67097  0.00000 -0.34193
       9     F     4.68034  4.68034  0.00000 -0.36068
      10     F     4.67497  4.67497  0.00000 -0.34994
      11     F     4.67666  4.67666  0.00000 -0.35332
      12     F     4.67867  4.67867  0.00000 -0.35735

   Total alpha = 41.00000, Total beta = 41.00000, Total charge = -0.00000
