  ==> Input File <==

--------------------------------------------------------------------------
set {
	reference rhf
	basis 6-31G*
}

set_num_threads( 4 )
memory 2 gb

molecule MOL {
0 1

H	 -1.843055	 0.069849	 1.064089
C	 -1.049282	 -0.484033	 0.605803
C	 -1.042359	 -1.867295	 0.601806
C	 0.000000	 0.183220	 0.000000
H	 -1.848008	 -2.404452	 1.066948
C	 0.000000	 -2.555744	 0.000000
N	 0.000000	 1.642018	 0.000000
C	 1.049282	 -0.484034	 -0.605803
H	 0.000000	 -3.630640	 0.000000
C	 1.042359	 -1.867295	 -0.601806
O	 1.057097	 2.196749	 0.000000
O	 -1.057097	 2.196749	 0.000000
H	 1.843055	 0.069849	 -1.064089
H	 1.848008	 -2.404452	 -1.066948

	symmetry c1
}
set optking {
	frozen_dihedral = ("
		2 4 7 11
	")
}

ee = optimize('scf')
oeprop('DIPOLE', 'QUADRUPOLE', 'MULLIKEN_CHARGES')
f=open( 'psi4out.xyz', 'w' )
f.write( "14  " )
f.write( str(ee) + "\n" )
f.write( MOL.save_string_xyz() )
f.close()
--------------------------------------------------------------------------

    Molecular point group: c1
  Charge       = 0
  Multiplicity = 1
  Basis Set: 6-31G*
  Basis Set:
  @DF-RHF Final Energy:  -434.17239041027005
    Total Energy =                       -434.1723904102703955
    Molecular point group: c1
  Basis Set: 6-31G*
  Basis Set:
  Basis Set: 6-31G*
  Basis Set:
  @DF-RHF Final Energy:  -434.16533492979715
    Total Energy =                       -434.1653349297971545
  Basis Set: 6-31G*
  Basis Set:
  Basis Set: 6-31G*
  Basis Set:
  @DF-RHF Final Energy:  -434.17242012160813
    Total Energy =                       -434.1724201216080701
  Basis Set: 6-31G*
  Basis Set:
  Basis Set: 6-31G*
  Basis Set:
  @DF-RHF Final Energy:  -434.17260917986715
    Total Energy =                       -434.1726091798670950
  Basis Set: 6-31G*
  Basis Set:
  Basis Set: 6-31G*
  Basis Set:
  @DF-RHF Final Energy:  -434.17261019635077
    Total Energy =                       -434.1726101963504334
  Basis Set: 6-31G*
  Basis Set:
  Charge       = 0
  Multiplicity = 1
  Basis Set: 6-31G*
  Basis Set:

    Orbital Energies (a.u.)
    -----------------------

    Doubly Occupied:

       1A    -20.602378     2A    -20.602138     3A    -15.855403
       4A    -11.304697     5A    -11.271253     6A    -11.271094
       7A    -11.267279     8A    -11.261731     9A    -11.261590
      10A     -1.634688    11A     -1.418266    12A     -1.202040
      13A     -1.094919    14A     -1.053162    15A     -0.957956
      16A     -0.866564    17A     -0.825486    18A     -0.783133
      19A     -0.733318    20A     -0.728901    21A     -0.710854
      22A     -0.652993    23A     -0.649897    24A     -0.624484
      25A     -0.554853    26A     -0.538444    27A     -0.530253
      28A     -0.489145    29A     -0.488188    30A     -0.450834
      31A     -0.372465    32A     -0.365994

  @DF-RHF Final Energy:  -434.17261182847574

   => Energetics <=

    Nuclear Repulsion Energy =            417.1203166227968495
    One-Electron Energy =               -1417.7370619990319938
    Two-Electron Energy =                 566.4441335477592929
    DFT Exchange-Correlation Energy =       0.0000000000000000
    Empirical Dispersion Energy =           0.0000000000000000
    PCM Polarization Energy =               0.0000000000000000
    EFP Energy =                            0.0000000000000000
    Total Energy =                       -434.1726118284758513
    Molecular point group: c1
  Basis Set: 6-31G*
  Basis Set:

  -Total Gradient:
     Atom            X                  Y                   Z
    ------   -----------------  -----------------  -----------------
       1        0.000002471594    -0.000003781881    -0.000001269373
       2        0.001611321071    -0.000075764369     0.002715128715
       3       -0.000013406921     0.000018207732    -0.000000272328
       4       -0.002301183018     0.000062855577    -0.002569499000
       5        0.000000880296    -0.000000388501     0.000001196101
       6        0.000017474797    -0.000000656553    -0.000015627923
       7        0.000635028269     0.000050602092    -0.003749154686
       8       -0.000022083290     0.000018727703    -0.000005644439
       9       -0.000001314342     0.000000570140     0.000000872663
      10       -0.000003655473    -0.000018084162     0.000019188074
      11        0.000081987320    -0.000063372793     0.003609815916
      12       -0.000011467506     0.000008234794    -0.000002137229
      13        0.000002848356    -0.000000526477    -0.000000774428
      14        0.000001098845     0.000003376688    -0.000001822063

  **** Optimization is complete! (in 6 steps) ****
    Final optimized geometry and variables:
    Molecular point group: c1

    Geometry (in Angstrom), charge = 0, multiplicity = 1:

    H           -1.856071928716     0.076133822118     1.036413076520
    C           -1.056851002797    -0.479953939971     0.588510715759
    C           -1.040592462500    -1.863530432633     0.602393897107
    C           -0.011754057309     0.183289567403    -0.025532545843
    H           -1.839266476048    -2.400111313938     1.079996721734
    C            0.002268787674    -2.552355794944     0.001964974254
    N            0.000131383861     1.639823523634    -0.003139532013
    C            1.049849063911    -0.481452554021    -0.609454694845
    H            0.006453308303    -3.627189128332     0.010412217123
    C            1.042490330026    -1.864804862524    -0.605276784558
    O            1.063312915860     2.182706180976    -0.012852100217
    O           -1.053270682530     2.199194261946     0.050773275859
    H            1.852086363471     0.073660652889    -1.053248129187
    H            1.849308493035    -2.402698578531    -1.067471249537

  Mulliken Charges: (a.u.)
   Center  Symbol    Alpha    Beta     Spin     Total
       1     H     0.36738  0.36738  0.00000  0.26524
       2     C     3.08582  3.08582  0.00000 -0.17165
       3     C     3.10785  3.10785  0.00000 -0.21570
       4     C     2.91432  2.91432  0.00000  0.17136
       5     H     0.38846  0.38846  0.00000  0.22308
       6     C     3.08739  3.08739  0.00000 -0.17478
       7     N     3.24982  3.24982  0.00000  0.50036
       8     C     3.08491  3.08491  0.00000 -0.16982
       9     H     0.38913  0.38913  0.00000  0.22174
      10     C     3.10810  3.10810  0.00000 -0.21621
      11     O     4.23034  4.23034  0.00000 -0.46068
      12     O     4.23013  4.23013  0.00000 -0.46025
      13     H     0.36790  0.36790  0.00000  0.26419
      14     H     0.38845  0.38845  0.00000  0.22311

   Total alpha = 32.00000, Total beta = 32.00000, Total charge = -0.00000
