  ==> Input File <==

--------------------------------------------------------------------------
set {
	reference rhf
	basis 6-31G*
}

set_num_threads( 4 )
memory 2 gb

molecule MOL {
0 1

O	 -2.042549	 -1.228399	 -0.269030
C	 -1.653912	 -0.146171	 0.050137
C	 -0.332303	 0.024011	 0.778412
C	 -2.438579	 1.106236	 -0.272369
C	 0.845713	 -0.001731	 -0.208243
H	 -0.323783	 0.953829	 1.340327
H	 -0.235459	 -0.796807	 1.480410
C	 1.519257	 -1.372641	 -0.285531
H	 1.583884	 0.744491	 0.080442
H	 0.481159	 0.284861	 -1.190132
C	 2.685419	 -1.403532	 -1.272606
H	 1.873738	 -1.657619	 0.702678
H	 0.781519	 -2.117913	 -0.573421
H	 3.456535	 -0.691725	 -0.991957
H	 2.355191	 -1.154237	 -2.276720
H	 3.141502	 -2.387761	 -1.308782
H	 -3.277823	 0.863061	 -0.908988
H	 -1.806773	 1.843019	 -0.759671
H	 -2.802853	 1.554979	 0.648059

	symmetry c1
}
set optking {
	frozen_dihedral = ("
		9 5 3 2
	")
}

ee = optimize('scf')
oeprop('DIPOLE', 'QUADRUPOLE', 'MULLIKEN_CHARGES')
f=open( 'psi4out.xyz', 'w' )
f.write( "19  " )
f.write( str(ee) + "\n" )
f.write( MOL.save_string_xyz() )
f.close()
--------------------------------------------------------------------------

    Molecular point group: c1
  Charge       = 0
  Multiplicity = 1
  Basis Set: 6-31G*
  Basis Set:
  @DF-RHF Final Energy:  -309.06117310821833
    Total Energy =                       -309.0611731082183837
    Molecular point group: c1
  Basis Set: 6-31G*
  Basis Set:
  Basis Set: 6-31G*
  Basis Set:
  @DF-RHF Final Energy:  -309.06140043200367
    Total Energy =                       -309.0614004320038930
  Basis Set: 6-31G*
  Basis Set:
  Basis Set: 6-31G*
  Basis Set:
  @DF-RHF Final Energy:  -309.05898799509083
    Total Energy =                       -309.0589879950908880
  Basis Set: 6-31G*
  Basis Set:
  Basis Set: 6-31G*
  Basis Set:
  @DF-RHF Final Energy:  -309.06164254381707
    Total Energy =                       -309.0616425438170154
  Basis Set: 6-31G*
  Basis Set:
  @DF-RHF Final Energy:  -309.06166748067375
    Total Energy =                       -309.0616674806740320
  Basis Set: 6-31G*
  Basis Set:
  @DF-RHF Final Energy:  -309.06170561244369
    Total Energy =                       -309.0617056124435749
  Basis Set: 6-31G*
  Basis Set:
  Basis Set: 6-31G*
  Basis Set:
  @DF-RHF Final Energy:  -309.06171009358519
    Total Energy =                       -309.0617100935853045
  Basis Set: 6-31G*
  Basis Set:
  Basis Set: 6-31G*
  Basis Set:
  @DF-RHF Final Energy:  -309.06171213312439
    Total Energy =                       -309.0617121331241037
  Basis Set: 6-31G*
  Basis Set:
  Charge       = 0
  Multiplicity = 1
  Basis Set: 6-31G*
  Basis Set:

    Orbital Energies (a.u.)
    -----------------------

    Doubly Occupied:

       1A    -20.547888     2A    -11.324841     3A    -11.232186
       4A    -11.229502     5A    -11.228468     6A    -11.219488
       7A    -11.211814     8A     -1.393171     9A     -1.089214
      10A     -1.028310    11A     -0.981269    12A     -0.889713
      13A     -0.806771    14A     -0.734755    15A     -0.660578
      16A     -0.639729    17A     -0.622335    18A     -0.608655
      19A     -0.583750    20A     -0.574188    21A     -0.551945
      22A     -0.531928    23A     -0.523507    24A     -0.496559
      25A     -0.475987    26A     -0.474741    27A     -0.462719
      28A     -0.396938

  @DF-RHF Final Energy:  -309.06171275320924

   => Energetics <=

    Nuclear Repulsion Energy =            305.2934232990367036
    One-Electron Energy =               -1023.6683742028783399
    Two-Electron Energy =                 409.3132381506321735
    DFT Exchange-Correlation Energy =       0.0000000000000000
    Empirical Dispersion Energy =           0.0000000000000000
    PCM Polarization Energy =               0.0000000000000000
    EFP Energy =                            0.0000000000000000
    Total Energy =                       -309.0617127532094628
    Molecular point group: c1
  Basis Set: 6-31G*
  Basis Set:

  -Total Gradient:
     Atom            X                  Y                   Z
    ------   -----------------  -----------------  -----------------
       1       -0.000020005158    -0.000002118195    -0.000004045306
       2       -0.000210025962     0.002662557179    -0.000249618747
       3       -0.000139023884    -0.003049703014    -0.000130828824
       4       -0.000017954605     0.000015650311     0.000045207227
       5        0.002122068733    -0.002223897750     0.002500883310
       6       -0.000007745621     0.000011139438     0.000007753602
       7       -0.000011744530     0.000013189465    -0.000026040339
       8        0.000010566541     0.000003750502     0.000005420362
       9       -0.001765289074     0.002569670741    -0.002121626949
      10        0.000018547204     0.000002499167     0.000009806430
      11       -0.000002390193    -0.000012203784    -0.000014229482
      12       -0.000005120637     0.000000862048     0.000011339363
      13        0.000001165048     0.000009730575    -0.000000908848
      14       -0.000007653890     0.000000559936     0.000001302627
      15        0.000004769182    -0.000002645860    -0.000009472063
      16        0.000004695921     0.000001663740     0.000001781166
      17        0.000017193519    -0.000008479364    -0.000004803789
      18       -0.000002859924     0.000004638409    -0.000012484572
      19        0.000010807329     0.000003136458    -0.000009435170

  **** Optimization is complete! (in 9 steps) ****
    Final optimized geometry and variables:
    Molecular point group: c1

    Geometry (in Angstrom), charge = 0, multiplicity = 1:

    O           -1.900992347285    -0.814291992011     0.077042991928
    C           -1.451874055236     0.268330066783     0.303993364968
    C           -0.137706098729     0.441977055259     1.041524624381
    C           -2.156654969284     1.528127666589    -0.151435953566
    C            1.055288947028     0.449212707990     0.053565350512
    H           -0.160424895958     1.372148485362     1.601020460069
    H           -0.035839395168    -0.370970235810     1.750192500479
    C            1.721531098868    -0.918987310642    -0.091519498174
    H            1.778113828343     1.198700655684     0.362350368726
    H            0.713947082375     0.777452951952    -0.926958294172
    C            2.848404732887    -0.923178957486    -1.122890738175
    H            2.112822914101    -1.227934329924     0.875073568654
    H            0.967443467681    -1.650868059316    -0.366500881499
    H            3.626336925894    -0.211849896635    -0.859222328143
    H            2.478975868209    -0.658641432997    -2.109633947206
    H            3.308001878585    -1.903718704855    -1.194976455575
    H           -2.968596446478     1.275582003563    -0.819071890673
    H           -1.468274196898     2.206672004610    -0.645590735755
    H           -2.555186890000     2.049831245780     0.714840394148

  Mulliken Charges: (a.u.)
   Center  Symbol    Alpha    Beta     Spin     Total
       1     O     4.26127  4.26127  0.00000 -0.52255
       2     C     2.73958  2.73958  0.00000  0.52084
       3     C     3.20369  3.20369  0.00000 -0.40738
       4     C     3.28922  3.28922  0.00000 -0.57843
       5     C     3.16179  3.16179  0.00000 -0.32358
       6     H     0.41396  0.41396  0.00000  0.17208
       7     H     0.39910  0.39910  0.00000  0.20179
       8     C     3.15419  3.15419  0.00000 -0.30838
       9     H     0.41538  0.41538  0.00000  0.16923
      10     H     0.41893  0.41893  0.00000  0.16215
      11     C     3.24139  3.24139  0.00000 -0.48278
      12     H     0.42135  0.42135  0.00000  0.15730
      13     H     0.40752  0.40752  0.00000  0.18497
      14     H     0.42236  0.42236  0.00000  0.15529
      15     H     0.42054  0.42054  0.00000  0.15892
      16     H     0.41670  0.41670  0.00000  0.16660
      17     H     0.39696  0.39696  0.00000  0.20607
      18     H     0.40982  0.40982  0.00000  0.18036
      19     H     0.40626  0.40626  0.00000  0.18748

   Total alpha = 28.00000, Total beta = 28.00000, Total charge =  0.00000
