  ==> Input File <==

--------------------------------------------------------------------------
set {
	reference rhf
	basis 6-31G*
}

set_num_threads( 1 )
memory 2 gb

molecule MOL {
0 1

O	 0.712767	 0.655984	 -0.980073
C	 1.122059	 0.121804	 -0.000188
C	 0.539830	 0.262701	 1.385110
O	 2.172624	 -0.688929	 0.000216
C	 -0.672836	 1.186576	 1.441998
H	 0.291211	 -0.735274	 1.735807
H	 1.334446	 0.615434	 2.036969
C	 -1.242486	 1.311823	 2.855921
H	 -1.438572	 0.814749	 0.768279
H	 -0.393936	 2.167331	 1.069388
C	 -2.457051	 2.236722	 2.922244
H	 -1.519557	 0.326294	 3.224757
H	 -0.470435	 1.682274	 3.527318
H	 -3.260242	 1.874263	 2.287294
H	 -2.841462	 2.307805	 3.934890
H	 -2.203478	 3.240059	 2.592614
C	 3.452279	 -0.082609	 0.000533
H	 3.583069	 0.529321	 -0.880332
H	 4.163299	 -0.894027	 0.001117
H	 3.582335	 0.529955	 0.881077

	symmetry c1
}
set optking {
	frozen_dihedral = ("
		9 5 8 12,
		1 2 3 6,
		9 5 3 6
	")
}

ee = energy('scf')
oeprop('DIPOLE', 'QUADRUPOLE', 'MULLIKEN_CHARGES')
f=open( 'psi4out.xyz', 'w' )
f.write( "20  " )
f.write( str(ee) + "\n" )
f.write( MOL.save_string_xyz() )
f.close()
--------------------------------------------------------------------------

    Molecular point group: c1

    Geometry (in Angstrom), charge = 0, multiplicity = 1:

       Center              X                  Y                   Z               Mass
    ------------   -----------------  -----------------  -----------------  -----------------
           O          0.231336314994     0.031668073367    -1.918530034811    15.994914619560
           C          0.640628314994    -0.502511926633    -0.938645034811    12.000000000000
           C          0.058399314994    -0.361614926633     0.446652965189    12.000000000000
           O          1.691193314994    -1.313244926633    -0.938241034811    15.994914619560
           C         -1.154266685006     0.562260073367     0.503540965189    12.000000000000
           H         -0.190219685006    -1.359589926633     0.797349965189     1.007825032070
           H          0.853015314994    -0.008881926633     1.098511965189     1.007825032070
           C         -1.723916685006     0.687507073367     1.917463965189    12.000000000000
           H         -1.920002685006     0.190433073367    -0.170178034811     1.007825032070
           H         -0.875366685006     1.543015073367     0.130930965189     1.007825032070
           C         -2.938481685006     1.612406073367     1.983786965189    12.000000000000
           H         -2.000987685006    -0.298021926633     2.286299965189     1.007825032070
           H         -0.951865685006     1.057958073367     2.588860965189     1.007825032070
           H         -3.741672685006     1.249947073367     1.348836965189     1.007825032070
           H         -3.322892685006     1.683489073367     2.996432965189     1.007825032070
           H         -2.684908685006     2.615743073367     1.654156965189     1.007825032070
           C          2.970848314994    -0.706924926633    -0.937924034811    12.000000000000
           H          3.101638314994    -0.094994926633    -1.818789034811     1.007825032070
           H          3.681868314994    -1.518342926633    -0.937340034811     1.007825032070
           H          3.100904314994    -0.094360926633    -0.057380034811     1.007825032070

  Charge       = 0
  Multiplicity = 1
  Basis Set: 6-31G*
  Basis Set:

    Orbital Energies (a.u.)
    -----------------------

    Doubly Occupied:

       1A    -20.587328     2A    -20.554513     3A    -11.373680
       4A    -11.294046     5A    -11.236971     6A    -11.221264
       7A    -11.219902     8A    -11.211432     9A     -1.464331
      10A     -1.366619    11A     -1.088810    12A     -1.020252
      13A     -0.975702    14A     -0.893920    15A     -0.806320
      16A     -0.768869    17A     -0.695457    18A     -0.681808
      19A     -0.675706    20A     -0.643526    21A     -0.614415
      22A     -0.590349    23A     -0.586680    24A     -0.551917
      25A     -0.536653    26A     -0.511476    27A     -0.497178
      28A     -0.485807    29A     -0.477887    30A     -0.471220
      31A     -0.452309    32A     -0.432330

  @DF-RHF Final Energy:  -383.92158600379361

   => Energetics <=

    Nuclear Repulsion Energy =            382.2791953388455681
    One-Electron Energy =               -1280.4242802244978066
    Two-Electron Energy =                 514.2234988818586316
    DFT Exchange-Correlation Energy =       0.0000000000000000
    Empirical Dispersion Energy =           0.0000000000000000
    PCM Polarization Energy =               0.0000000000000000
    EFP Energy =                            0.0000000000000000
    Total Energy =                       -383.9215860037936636

  Mulliken Charges: (a.u.)
   Center  Symbol    Alpha    Beta     Spin     Total
       1     O     4.26099  4.26099  0.00000 -0.52197
       2     C     2.61353  2.61353  0.00000  0.77295
       3     C     3.21122  3.21122  0.00000 -0.42244
       4     O     4.31102  4.31102  0.00000 -0.62205
       5     C     3.15208  3.15208  0.00000 -0.30415
       6     H     0.39867  0.39867  0.00000  0.20266
       7     H     0.40788  0.40788  0.00000  0.18424
       8     C     3.15393  3.15393  0.00000 -0.30785
       9     H     0.41073  0.41073  0.00000  0.17855
      10     H     0.41334  0.41334  0.00000  0.17332
      11     C     3.23928  3.23928  0.00000 -0.47857
      12     H     0.42265  0.42265  0.00000  0.15470
      13     H     0.42415  0.42415  0.00000  0.15170
      14     H     0.41954  0.41954  0.00000  0.16092
      15     H     0.41879  0.41879  0.00000  0.16243
      16     H     0.42024  0.42024  0.00000  0.15951
      17     C     3.09329  3.09329  0.00000 -0.18658
      18     H     0.40584  0.40584  0.00000  0.18832
      19     H     0.40192  0.40192  0.00000  0.19615
      20     H     0.42091  0.42091  0.00000  0.15818

   Total alpha = 32.00000, Total beta = 32.00000, Total charge =  0.00000
