  ==> Input File <==

--------------------------------------------------------------------------
set {
	reference rhf
	basis cc-pvtz
}

set_num_threads( 4 )
memory 2 gb

molecule MOL {
0 1

H	 -1.752232	 -2.214755	 -0.011938
C	 -1.343852	 -1.221619	 -0.018179
N	 -0.058800	 -1.097635	 -0.261688
C	 -2.148159	 -0.124236	 0.219734
C	 0.449026	 0.119242	 -0.273393
H	 -3.196988	 -0.237571	 0.417076
N	 -1.655094	 1.094230	 0.209506
C	 -0.370318	 1.215445	 -0.035100
C	 1.924033	 0.265863	 -0.538106
H	 0.033214	 2.210441	 -0.046812
C	 2.335892	 1.716931	 -0.791527
H	 2.461026	 -0.115500	 0.322106
H	 2.199541	 -0.348290	 -1.387297
H	 3.406406	 1.786223	 -0.943620
H	 2.070813	 2.340978	 0.051846
H	 1.844916	 2.113709	 -1.673035

	symmetry c1
}
set optking {
	frozen_dihedral = ("
		12 9 5 3
	")
}

ee = optimize('scf')
oeprop('DIPOLE', 'QUADRUPOLE', 'MULLIKEN_CHARGES')
f=open( 'psi4out.xyz', 'w' )
f.write( "16  " )
f.write( str(ee) + "\n" )
f.write( MOL.save_string_xyz() )
f.close()
--------------------------------------------------------------------------

    Molecular point group: c1
  Charge       = 0
  Multiplicity = 1
  Basis Set: CC-PVTZ
  Basis Set:
  @DF-RHF Final Energy:  -340.86837580566623
    Total Energy =                       -340.8683758056663464
    Molecular point group: c1
  Basis Set: CC-PVTZ
  Basis Set:
  Basis Set: CC-PVTZ
  Basis Set:
  @DF-RHF Final Energy:  -340.86953517010028
    Total Energy =                       -340.8695351701002210
  Basis Set: CC-PVTZ
  Basis Set:
  Basis Set: CC-PVTZ
  Basis Set:
  @DF-RHF Final Energy:  -340.87016074828807
    Total Energy =                       -340.8701607482880718
  Basis Set: CC-PVTZ
  Basis Set:
  Basis Set: CC-PVTZ
  Basis Set:
  @DF-RHF Final Energy:  -340.87020406903616
    Total Energy =                       -340.8702040690362765
  Basis Set: CC-PVTZ
  Basis Set:
  Basis Set: CC-PVTZ
  Basis Set:
  @DF-RHF Final Energy:  -340.87022466966954
    Total Energy =                       -340.8702246696694829
  Basis Set: CC-PVTZ
  Basis Set:
  Basis Set: CC-PVTZ
  Basis Set:
  @DF-RHF Final Energy:  -340.87022887936382
    Total Energy =                       -340.8702288793638786
  Basis Set: CC-PVTZ
  Basis Set:
  Charge       = 0
  Multiplicity = 1
  Basis Set: CC-PVTZ
  Basis Set:

    Orbital Energies (a.u.)
    -----------------------

    Doubly Occupied:

       1A    -15.579712     2A    -15.574645     3A    -11.279040
       4A    -11.272074     5A    -11.267176     6A    -11.266702
       7A    -11.232175     8A    -11.221560     9A     -1.315190
      10A     -1.222902    11A     -1.087044    12A     -1.016320
      13A     -0.910373    14A     -0.893362    15A     -0.831455
      16A     -0.716839    17A     -0.711336    18A     -0.652929
      19A     -0.631527    20A     -0.611326    21A     -0.572093
      22A     -0.565301    23A     -0.520325    24A     -0.512937
      25A     -0.508229    26A     -0.485901    27A     -0.431135
      28A     -0.396911    29A     -0.346464

  @DF-RHF Final Energy:  -340.87022938216120

   => Energetics <=

    Nuclear Repulsion Energy =            350.0041553053477514
    One-Electron Energy =               -1154.4828063706818284
    Two-Electron Energy =                 463.6084216831731624
    DFT Exchange-Correlation Energy =       0.0000000000000000
    Empirical Dispersion Energy =           0.0000000000000000
    PCM Polarization Energy =               0.0000000000000000
    EFP Energy =                            0.0000000000000000
    Total Energy =                       -340.8702293821609715
    Molecular point group: c1
  Basis Set: CC-PVTZ
  Basis Set:

  -Total Gradient:
     Atom            X                  Y                   Z
    ------   -----------------  -----------------  -----------------
       1        0.000020874862    -0.000003933764     0.000033567842
       2       -0.000149814940     0.000057541119    -0.000061403060
       3        0.000082285106     0.000126314737    -0.000318522605
       4        0.000020598029    -0.000167092942    -0.000039046462
       5        0.000095036721    -0.000147179738     0.000475913681
       6        0.000009702641     0.000000689626     0.000032088159
       7        0.000140305776     0.000118751674    -0.000048134530
       8       -0.000128900221     0.000086873698     0.000103570728
       9       -0.000007783804    -0.000417626068    -0.000317899596
      10       -0.000005508491     0.000002403591    -0.000025318970
      11       -0.000029372621     0.000022224832     0.000004411205
      12       -0.000027658511     0.000329365379     0.000171734429
      13       -0.000014664355    -0.000014286248    -0.000004009281
      14       -0.000017221724    -0.000016822890     0.000003417512
      15        0.000020952547     0.000006068654    -0.000000900706
      16       -0.000008831012     0.000016708345    -0.000009468348

  **** Optimization is complete! (in 7 steps) ****
    Final optimized geometry and variables:
    Molecular point group: c1

    Geometry (in Angstrom), charge = 0, multiplicity = 1:

    H           -1.640098905963    -2.513577211580     0.152015868086
    C           -1.261759273934    -1.508596647071     0.161316800498
    N            0.018171690080    -1.343002206802    -0.074094219730
    C           -2.099051970219    -0.438040945308     0.410538683345
    C            0.496130813968    -0.111985443764    -0.065469720189
    H           -3.145055418259    -0.583277373376     0.601945138684
    N           -1.639721788860     0.791582357178     0.418725446697
    C           -0.355869466609     0.955853728664     0.182876486076
    C            1.977259963503     0.032069370866    -0.322790102853
    H            0.006450692603     1.963923237340     0.189060659967
    C            2.480186845467     1.439939398960    -0.621078144174
    H            2.500015363693    -0.361884778965     0.543279212919
    H            2.222313403971    -0.629583026536    -1.144215207263
    H            3.539475470936     1.409946798493    -0.843067553396
    H            2.344697550599     2.107518359693     0.221544754746
    H            1.975067259838     1.872083509091    -1.477439862976

  Mulliken Charges: (a.u.)
   Center  Symbol    Alpha    Beta     Spin     Total
       1     H     0.41372  0.41372  0.00000  0.17256
       2     C     3.04252  3.04252  0.00000 -0.08504
       3     N     3.59426  3.59426  0.00000 -0.18852
       4     C     3.04871  3.04871  0.00000 -0.09741
       5     C     2.95457  2.95457  0.00000  0.09087
       6     H     0.41422  0.41422  0.00000  0.17157
       7     N     3.58848  3.58848  0.00000 -0.17697
       8     C     3.07547  3.07547  0.00000 -0.15094
       9     C     3.06062  3.06062  0.00000 -0.12124
      10     H     0.41218  0.41218  0.00000  0.17564
      11     C     3.16362  3.16362  0.00000 -0.32724
      12     H     0.44533  0.44533  0.00000  0.10934
      13     H     0.44320  0.44320  0.00000  0.11360
      14     H     0.44252  0.44252  0.00000  0.11495
      15     H     0.45255  0.45255  0.00000  0.09491
      16     H     0.44803  0.44803  0.00000  0.10393

   Total alpha = 29.00000, Total beta = 29.00000, Total charge = -0.00000
