  ==> Input File <==

--------------------------------------------------------------------------
set {
	reference rhf
	basis 6-31G*
}

set_num_threads( 1 )
memory 2 gb

molecule MOL {
0 1

H	 -3.892951	 0.981613	 -0.358725
C	 -3.196921	 0.361773	 0.172313
C	 -2.076860	 -0.007332	 -0.404944
H	 -3.439953	 0.057760	 1.173024
O	 -1.063245	 0.867923	 -0.635973
H	 -1.886990	 -1.021252	 -0.710084
C	 0.009338	 0.442705	 -1.404482
C	 -0.246533	 0.642591	 -2.881259
H	 0.244659	 -0.603064	 -1.241123
H	 0.866718	 1.040796	 -1.133058
F	 0.818206	 0.256890	 -3.569278
F	 -1.277007	 -0.072234	 -3.301948
F	 -0.485336	 1.903747	 -3.175961

	symmetry c1
}
set optking {
	frozen_dihedral = ("
		11 8 7 9,
		3 5 7 9,
		6 3 5 7
	")
}

ee = energy('scf')
oeprop('DIPOLE', 'QUADRUPOLE', 'MULLIKEN_CHARGES')
f=open( 'psi4out.xyz', 'w' )
f.write( "13  " )
f.write( str(ee) + "\n" )
f.write( MOL.save_string_xyz() )
f.close()
--------------------------------------------------------------------------

    Molecular point group: c1

    Geometry (in Angstrom), charge = 0, multiplicity = 1:

       Center              X                  Y                   Z               Mass
    ------------   -----------------  -----------------  -----------------  -----------------
           H         -3.026110268185     0.415911458937     1.684935796245     1.007825032070
           C         -2.330080268185    -0.203928541063     2.215973796245    12.000000000000
           C         -1.210019268185    -0.573033541063     1.638716796245    12.000000000000
           H         -2.573112268185    -0.507941541063     3.216684796245     1.007825032070
           O         -0.196404268185     0.302221458937     1.407687796245    15.994914619560
           H         -1.020149268185    -1.586953541063     1.333576796245     1.007825032070
           C          0.876178731815    -0.122996541063     0.639178796245    12.000000000000
           C          0.620307731815     0.076889458937    -0.837598203755    12.000000000000
           H          1.111499731815    -1.168765541063     0.802537796245     1.007825032070
           H          1.733558731815     0.475094458937     0.910602796245     1.007825032070
           F          1.685046731815    -0.308811541063    -1.525617203755    18.998403224000
           F         -0.410166268185    -0.637935541063    -1.258287203755    18.998403224000
           F          0.381504731815     1.338045458937    -1.132300203755    18.998403224000

  Charge       = 0
  Multiplicity = 1
  Basis Set: 6-31G*
  Basis Set:

    Orbital Energies (a.u.)
    -----------------------

    Doubly Occupied:

       1A    -26.351877     2A    -26.349328     3A    -26.346172
       4A    -20.629197     5A    -11.509737     6A    -11.327762
       7A    -11.323203     8A    -11.190597     9A     -1.747890
      10A     -1.646327    11A     -1.643984    12A     -1.453824
      13A     -1.090383    14A     -1.018813    15A     -0.931119
      16A     -0.842798    17A     -0.837257    18A     -0.826687
      19A     -0.798537    20A     -0.727825    21A     -0.716693
      22A     -0.700845    23A     -0.679013    24A     -0.665482
      25A     -0.659708    26A     -0.649081    27A     -0.644309
      28A     -0.585571    29A     -0.580154    30A     -0.533100
      31A     -0.508653    32A     -0.288373

  @DF-RHF Final Energy:  -527.43353687665160

   => Energetics <=

    Nuclear Repulsion Energy =            413.5281861147393556
    One-Electron Energy =               -1550.3150194379841196
    Two-Electron Energy =                 609.3532964465935038
    DFT Exchange-Correlation Energy =       0.0000000000000000
    Empirical Dispersion Energy =           0.0000000000000000
    PCM Polarization Energy =               0.0000000000000000
    EFP Energy =                            0.0000000000000000
    Total Energy =                       -527.4335368766512602

  Mulliken Charges: (a.u.)
   Center  Symbol    Alpha    Beta     Spin     Total
       1     H     0.40296  0.40296  0.00000  0.19409
       2     C     3.28831  3.28831  0.00000 -0.57662
       3     C     2.87710  2.87710  0.00000  0.24581
       4     H     0.40072  0.40072  0.00000  0.19857
       5     O     4.27295  4.27295  0.00000 -0.54591
       6     H     0.40621  0.40621  0.00000  0.18757
       7     C     3.07029  3.07029  0.00000 -0.14058
       8     C     2.45617  2.45617  0.00000  1.08766
       9     H     0.40286  0.40286  0.00000  0.19428
      10     H     0.38694  0.38694  0.00000  0.22611
      11     F     4.68199  4.68199  0.00000 -0.36398
      12     F     4.67992  4.67992  0.00000 -0.35983
      13     F     4.67358  4.67358  0.00000 -0.34717

   Total alpha = 32.00000, Total beta = 32.00000, Total charge =  0.00000
