  ==> Input File <==

--------------------------------------------------------------------------
set {
	reference rhf
	basis cc-pvtz
}

set_num_threads( 4 )
memory 2 gb

molecule MOL {
0 1

O	 3.219313	 0.959291	 -0.614106
C	 2.698710	 0.058177	 -0.050237
C	 1.246364	 -0.005813	 0.348416
O	 3.344101	 -1.038700	 0.312317
C	 0.453207	 1.232821	 -0.049003
H	 0.839270	 -0.907818	 -0.092281
H	 1.216683	 -0.160521	 1.422434
C	 -0.998367	 1.217982	 0.432195
H	 0.481498	 1.345443	 -1.127236
H	 0.951413	 2.105557	 0.354893
C	 -1.882951	 0.151251	 -0.211235
H	 -1.429490	 2.193659	 0.228843
H	 -1.019755	 1.099323	 1.513279
C	 -3.342450	 0.243269	 0.226009
H	 -1.826223	 0.246578	 -1.293162
H	 -1.508033	 -0.839650	 0.027695
C	 -4.234517	 -0.821434	 -0.405970
H	 -3.730149	 1.228245	 -0.022691
H	 -3.398860	 0.159952	 1.308941
C	 -5.053988	 -1.601480	 0.616660
H	 -4.904582	 -0.350206	 -1.119888
H	 -3.619800	 -1.512397	 -0.976539
H	 -5.675150	 -2.348260	 0.135556
H	 -5.706037	 -0.942510	 1.180309
H	 -4.411088	 -2.113015	 1.325335
C	 4.720529	 -1.114346	 0.001449
H	 4.874321	 -1.055557	 -1.065852
H	 5.057824	 -2.067950	 0.373977
H	 5.264321	 -0.313596	 0.480350

	symmetry c1
}
set optking {
	frozen_dihedral = ("
		21 17 14 11
	")
}

ee = optimize('scf')
oeprop('DIPOLE', 'QUADRUPOLE', 'MULLIKEN_CHARGES')
f=open( 'psi4out.xyz', 'w' )
f.write( "29  " )
f.write( str(ee) + "\n" )
f.write( MOL.save_string_xyz() )
f.close()
--------------------------------------------------------------------------

    Molecular point group: c1
  Charge       = 0
  Multiplicity = 1
  Basis Set: CC-PVTZ
  Basis Set:
  @DF-RHF Final Energy:  -501.21934571524685
    Total Energy =                       -501.2193457152468454
    Molecular point group: c1
  Basis Set: CC-PVTZ
  Basis Set:
  Basis Set: CC-PVTZ
  Basis Set:
  @DF-RHF Final Energy:  -501.21958713172558
    Total Energy =                       -501.2195871317258025
  Basis Set: CC-PVTZ
  Basis Set:
  Basis Set: CC-PVTZ
  Basis Set:
  @DF-RHF Final Energy:  -501.21964386546699
    Total Energy =                       -501.2196438654661961
  Basis Set: CC-PVTZ
  Basis Set:
  Basis Set: CC-PVTZ
  Basis Set:
  @DF-RHF Final Energy:  -501.21942128780188
    Total Energy =                       -501.2194212878018789
  Basis Set: CC-PVTZ
  Basis Set:
  Basis Set: CC-PVTZ
  Basis Set:
  @DF-RHF Final Energy:  -501.21965308379458
    Total Energy =                       -501.2196530837946966
  Basis Set: CC-PVTZ
  Basis Set:
  Charge       = 0
  Multiplicity = 1
  Basis Set: CC-PVTZ
  Basis Set:

    Orbital Energies (a.u.)
    -----------------------

    Doubly Occupied:

       1A    -20.596039     2A    -20.533885     3A    -11.364304
       4A    -11.278285     5A    -11.233024     6A    -11.217114
       7A    -11.215398     8A    -11.214195     9A    -11.213715
      10A    -11.212102    11A    -11.207654    12A     -1.471934
      13A     -1.365522    14A     -1.098743    15A     -1.066360
      16A     -1.020187    17A     -0.978115    18A     -0.928867
      19A     -0.862707    20A     -0.800949    21A     -0.790559
      22A     -0.765827    23A     -0.703026    24A     -0.685541
      25A     -0.676009    26A     -0.647766    27A     -0.626045
      28A     -0.609646    29A     -0.596738    30A     -0.585475
      31A     -0.564465    32A     -0.552604    33A     -0.533525
      34A     -0.531291    35A     -0.518437    36A     -0.506398
      37A     -0.502468    38A     -0.476614    39A     -0.472033
      40A     -0.462226    41A     -0.458902    42A     -0.455566
      43A     -0.443209    44A     -0.436625

  @DF-RHF Final Energy:  -501.21965325452936

   => Energetics <=

    Nuclear Repulsion Energy =            612.6105965963457720
    One-Electron Energy =               -1896.7003048487790693
    Two-Electron Energy =                 782.8700549979037078
    DFT Exchange-Correlation Energy =       0.0000000000000000
    Empirical Dispersion Energy =           0.0000000000000000
    PCM Polarization Energy =               0.0000000000000000
    EFP Energy =                            0.0000000000000000
    Total Energy =                       -501.2196532545297032
    Molecular point group: c1
  Basis Set: CC-PVTZ
  Basis Set:

  -Total Gradient:
     Atom            X                  Y                   Z
    ------   -----------------  -----------------  -----------------
       1        0.000002581851     0.000005386367     0.000011884345
       2       -0.000007736832    -0.000014473772    -0.000028689293
       3        0.000010808231     0.000003064077     0.000007855056
       4        0.000001397127     0.000004226700     0.000008207077
       5       -0.000001014046     0.000008553210    -0.000012402284
       6        0.000020006733     0.000009132791     0.000004274364
       7       -0.000000473345     0.000000568053     0.000001328236
       8       -0.000009793905    -0.000001608426    -0.000005783797
       9        0.000004971296    -0.000001974515    -0.000002253879
      10        0.000006797815    -0.000001604983    -0.000006452102
      11        0.000268151142    -0.000908658160     0.001128227573
      12       -0.000002090327     0.000002765630     0.000011823026
      13        0.000001836545    -0.000009568423    -0.000003203068
      14       -0.000695648531     0.001313288349    -0.001212320345
      15        0.000008574503    -0.000005332551     0.000004219331
      16       -0.000026816851     0.000008540543     0.000000895421
      17        0.001739052970    -0.000674849153    -0.001337627773
      18        0.000000894311    -0.000007697811    -0.000001778170
      19        0.000000651144    -0.000004517354    -0.000000965600
      20        0.000011032718     0.000011393265    -0.000017157825
      21       -0.001337692331     0.000260958621     0.001444460830
      22        0.000004248359     0.000004757155     0.000005443840
      23       -0.000003503155    -0.000001574359    -0.000001741987
      24        0.000004937230    -0.000003799454     0.000000470501
      25       -0.000000402951     0.000002570499     0.000000939163
      26       -0.000000091774     0.000000129427    -0.000000531425
      27       -0.000000227426     0.000000134855     0.000000561870
      28       -0.000000277978     0.000000323714     0.000000314210
      29       -0.000000172517    -0.000000134288     0.000000002705

  **** Optimization is complete! (in 6 steps) ****
    Final optimized geometry and variables:
    Molecular point group: c1

    Geometry (in Angstrom), charge = 0, multiplicity = 1:

    O            3.161674941437     1.041401922630    -0.677585141393
    C            2.643186423622     0.143602504284    -0.106532905822
    C            1.191561915037     0.080466333939     0.295034452978
    O            3.290701227737    -0.949886460747     0.262416683138
    C            0.396218416795     1.315620209280    -0.108905365590
    H            0.784862095047    -0.824839804384    -0.139252035276
    H            1.163847328998    -0.067484297258     1.370049964545
    C           -1.054677182539     1.302152325568     0.374765154431
    H            0.422649624989     1.421548952643    -1.187853623347
    H            0.894114873856     2.191421815142     0.288688563991
    C           -1.940162968959     0.233611123524    -0.263157247057
    H           -1.486347058928     2.277074814958     0.168813163713
    H           -1.074419990949     1.187384564157     1.456387205368
    C           -3.399202151032     0.323043062349     0.179994981207
    H           -1.886410085876     0.325116514767    -1.345823399673
    H           -1.566623025771    -0.757494425189    -0.022614651208
    C           -4.308227992699    -0.743807499507    -0.462460041785
    H           -3.780116755543     1.315193947781    -0.039941304430
    H           -3.435518638604     0.224029584410     1.261330232432
    C           -5.142477400775    -1.519961116737     0.553462200454
    H           -4.982730020434    -0.272348875950    -1.169187329957
    H           -3.707009247107    -1.443954484263    -1.033143727402
    H           -5.777429284493    -2.251025901984     0.065628730768
    H           -5.781771313473    -0.853967289873     1.123582903920
    H           -4.507851601411    -2.048316890903     1.257534660994
    C            4.666686182516    -1.025815314611    -0.050406660238
    H            4.818474354384    -0.974095619166    -1.118362144637
    H            5.006012381037    -1.976386322182     0.327999127517
    H            5.210241318786    -0.221065171248     0.422020994590

  Mulliken Charges: (a.u.)
   Center  Symbol    Alpha    Beta     Spin     Total
       1     O     4.19696  4.19696  0.00000 -0.39393
       2     C     2.80481  2.80481  0.00000  0.39038
       3     C     3.10165  3.10165  0.00000 -0.20330
       4     O     4.14722  4.14722  0.00000 -0.29443
       5     C     3.09249  3.09249  0.00000 -0.18498
       6     H     0.43916  0.43916  0.00000  0.12168
       7     H     0.43996  0.43996  0.00000  0.12008
       8     C     3.10462  3.10462  0.00000 -0.20924
       9     H     0.44623  0.44623  0.00000  0.10753
      10     H     0.43962  0.43962  0.00000  0.12077
      11     C     3.09371  3.09371  0.00000 -0.18741
      12     H     0.44531  0.44531  0.00000  0.10938
      13     H     0.45336  0.45336  0.00000  0.09329
      14     C     3.09281  3.09281  0.00000 -0.18562
      15     H     0.45173  0.45173  0.00000  0.09655
      16     H     0.45349  0.45349  0.00000  0.09301
      17     C     3.08823  3.08823  0.00000 -0.17647
      18     H     0.44951  0.44951  0.00000  0.10099
      19     H     0.45482  0.45482  0.00000  0.09036
      20     C     3.14739  3.14739  0.00000 -0.29479
      21     H     0.45050  0.45050  0.00000  0.09899
      22     H     0.45430  0.45430  0.00000  0.09141
      23     H     0.44963  0.44963  0.00000  0.10075
      24     H     0.45433  0.45433  0.00000  0.09133
      25     H     0.45621  0.45621  0.00000  0.08759
      26     C     3.03812  3.03812  0.00000 -0.07623
      27     H     0.45435  0.45435  0.00000  0.09131
      28     H     0.44528  0.44528  0.00000  0.10945
      29     H     0.45423  0.45423  0.00000  0.09155

   Total alpha = 44.00000, Total beta = 44.00000, Total charge = -0.00000
