                              Psi4 1.0.54 Driver

  ==> Input File <==

--------------------------------------------------------------------------
set {
	reference rhf
	basis cc-pvtz
}

set_num_threads( 4 )
memory 2 gb

molecule MOL {
0 1

H	 -2.498963	 -0.741158	 -0.729149
O	 -2.346257	 -0.289210	 0.080372
C	 -1.183935	 0.486039	 -0.009831
C	 0.062853	 -0.375310	 0.027457
H	 -1.178881	 1.094526	 -0.908634
H	 -1.184406	 1.155156	 0.838676
O	 1.172093	 0.457955	 -0.054438
H	 0.052476	 -1.081302	 -0.804627
H	 0.076323	 -0.955658	 0.947560
C	 2.030748	 0.388357	 1.036015
H	 2.435896	 -0.613579	 1.159523
H	 2.846381	 1.074108	 0.859455
H	 1.526976	 0.671852	 1.957083

	symmetry c1
}
set optking {
	frozen_dihedral = ("
		10 7 4 8
	")
}

ee,wfn = optimize('scf', return_wfn=True)
oeprop( wfn, 'DIPOLE', 'QUADRUPOLE', 'MULLIKEN_CHARGES')
f=open( 'psi4out.xyz', 'w' )
f.write( "13  " )
f.write( str(ee) + "\n" )
f.write( MOL.save_string_xyz() )
f.close()
--------------------------------------------------------------------------

    Molecular point group: c1
  Charge       = 0
  Multiplicity = 1
  Basis Set: CC-PVTZ
  Basis Set:
  @DF-RHF Final Energy:  -268.05861435203076
    Total Energy =                       -268.0586143520308724
    Molecular point group: c1
  Basis Set: CC-PVTZ
  Basis Set:
  Basis Set: CC-PVTZ
  Basis Set:
  @DF-RHF Final Energy:  -268.05895293377091
    Total Energy =                       -268.0589529337709109
  Basis Set: CC-PVTZ
  Basis Set:
  Basis Set: CC-PVTZ
  Basis Set:
  @DF-RHF Final Energy:  -268.05903136715006
    Total Energy =                       -268.0590313671500553
  Basis Set: CC-PVTZ
  Basis Set:
  Charge       = 0
  Multiplicity = 1
  Basis Set: CC-PVTZ
  Basis Set:

    Orbital Energies (a.u.)
    -----------------------

    Doubly Occupied:

       1A    -20.553105     2A    -20.552919     3A    -11.268890
       4A    -11.267930     5A    -11.267230     6A     -1.387363
       7A     -1.368857     8A     -1.017568     9A     -0.918868
      10A     -0.840428    11A     -0.710634    12A     -0.675926
      13A     -0.658896    14A     -0.637046    15A     -0.601283
      16A     -0.577424    17A     -0.532540    18A     -0.500885
      19A     -0.480059    20A     -0.455827    21A     -0.409784

  @DF-RHF Final Energy:  -268.05903261293616

   => Energetics <=

    Nuclear Repulsion Energy =            190.8772142854556364
    One-Electron Energy =                -744.5055700950445043
    Two-Electron Energy =                 285.5693231966528174
    DFT Exchange-Correlation Energy =       0.0000000000000000
    Empirical Dispersion Energy =           0.0000000000000000
    PCM Polarization Energy =               0.0000000000000000
    EFP Energy =                            0.0000000000000000
    Total Energy =                       -268.0590326129359937
    Molecular point group: c1
  Basis Set: CC-PVTZ
  Basis Set:

  -Total Gradient:
     Atom            X                  Y                   Z
    ------   -----------------  -----------------  -----------------
       1       -0.000014122827     0.000002785492     0.000007018974
       2       -0.000026252187    -0.000029692715     0.000010548035
       3       -0.000044625202    -0.000047152175    -0.000069873028
       4        0.000199571034    -0.000127880022     0.000311520094
       5        0.000035126670     0.000022512507     0.000004589146
       6        0.000043534683    -0.000025809164    -0.000002823686
       7        0.000178693534    -0.000279475633    -0.000183830343
       8       -0.000236879650     0.000256559521    -0.000180693587
       9       -0.000008421232    -0.000021701247     0.000013110362
      10       -0.000078860454     0.000251312948     0.000130426307
      11       -0.000027045280     0.000000445583    -0.000010939835
      12        0.000008743798     0.000007867587     0.000006018754
      13       -0.000029462883    -0.000009772680    -0.000035071192

  **** Optimization is complete! (in 4 steps) ****
    Final optimized geometry and variables:
    Molecular point group: c1

    Geometry (in Angstrom), charge = 0, multiplicity = 1:

    H           -2.421748336500    -0.852803679901    -0.977756894170
    O           -2.288245844162    -0.410922087228    -0.159200250889
    C           -1.126043891170     0.368227995871    -0.214059038225
    C            0.126179506493    -0.489592786098    -0.171344474897
    H           -1.105220926040     0.993281175977    -1.101264175247
    H           -1.147408019265     1.024119079724     0.645667252046
    O            1.257566464857     0.323846183609    -0.260350258515
    H            0.123606248312    -1.183119300751    -1.008632657593
    H            0.128082706399    -1.079364714114     0.739494139215
    C            2.142757777067     0.264449283593     0.811761266261
    H            2.573157878709    -0.727758799989     0.920411980278
    H            2.939264587220     0.967951731751     0.617163819479
    H            1.659659729422     0.535969737363     1.746918855945

  Mulliken Charges: (a.u.)
   Center  Symbol    Alpha    Beta     Spin     Total
       1     H     0.39318  0.39318  0.00000  0.21363
       2     O     4.20311  4.20311  0.00000 -0.40621
       3     C     2.96963  2.96963  0.00000  0.06074
       4     C     2.97709  2.97709  0.00000  0.04582
       5     H     0.46669  0.46669  0.00000  0.06663
       6     H     0.45784  0.45784  0.00000  0.08432
       7     O     4.18255  4.18255  0.00000 -0.36510
       8     H     0.46473  0.46473  0.00000  0.07054
       9     H     0.46777  0.46777  0.00000  0.06447
      10     C     3.02930  3.02930  0.00000 -0.05861
      11     H     0.46800  0.46800  0.00000  0.06399
      12     H     0.44902  0.44902  0.00000  0.10196
      13     H     0.47109  0.47109  0.00000  0.05782

   Total alpha = 21.00000, Total beta = 21.00000, Total charge = -0.00000

*** Psi4 exiting successfully. Buy a developer a beer!
