  ==> Input File <==

--------------------------------------------------------------------------
set {
	reference rhf
	basis 6-31G*
}

set_num_threads( 1 )
memory 2 gb

molecule MOL {
0 1

O	 2.862325	 1.357334	 0.000267
C	 2.843464	 0.164689	 -0.000222
C	 1.546494	 -0.624492	 -0.000609
C	 4.124123	 -0.644674	 -0.000428
C	 0.291004	 0.242674	 0.000989
H	 1.557904	 -1.283758	 -0.867573
H	 1.558622	 -1.285963	 0.864672
C	 -0.750021	 -0.231030	 -1.014705
H	 0.568732	 1.271090	 -0.207234
H	 -0.139259	 0.243891	 0.997493
C	 -2.012886	 0.632009	 -1.022916
H	 -0.310858	 -0.233126	 -2.011289
H	 -1.022840	 -1.263501	 -0.801071
C	 -3.058979	 0.164600	 -2.036440
H	 -1.741436	 1.664224	 -1.237077
H	 -2.453235	 0.634137	 -0.027384
C	 -4.317430	 1.031768	 -2.038871
H	 -2.620321	 0.163194	 -3.032131
H	 -3.332239	 -0.866614	 -1.822467
H	 -4.081854	 2.063725	 -2.283249
H	 -5.039415	 0.676022	 -2.767488
H	 -4.799476	 1.025707	 -1.065352
H	 4.165367	 -1.288615	 -0.874074
H	 4.976217	 0.020734	 -0.001915
H	 4.166763	 -1.286207	 0.874930

	symmetry c1
}
set optking {
	frozen_dihedral = ("
		9 5 8 12,
		15 11 8 12,
		15 11 14 18,
		1 2 3 6
	")
}

ee = energy('scf')
oeprop('DIPOLE', 'QUADRUPOLE', 'MULLIKEN_CHARGES')
f=open( 'psi4out.xyz', 'w' )
f.write( "25  " )
f.write( str(ee) + "\n" )
f.write( MOL.save_string_xyz() )
f.close()
--------------------------------------------------------------------------

    Molecular point group: c1

    Geometry (in Angstrom), charge = 0, multiplicity = 1:

       Center              X                  Y                   Z               Mass
    ------------   -----------------  -----------------  -----------------  -----------------
           O          2.697185741026     1.116982168268     0.684991304882    15.994914619560
           C          2.678324741026    -0.075662831732     0.684502304882    12.000000000000
           C          1.381354741026    -0.864843831732     0.684115304882    12.000000000000
           C          3.958983741026    -0.885025831732     0.684296304882    12.000000000000
           C          0.125864741026     0.002322168268     0.685713304882    12.000000000000
           H          1.392764741026    -1.524109831732    -0.182848695118     1.007825032070
           H          1.393482741026    -1.526314831732     1.549396304882     1.007825032070
           C         -0.915160258974    -0.471381831732    -0.329980695118    12.000000000000
           H          0.403592741026     1.030738168268     0.477490304882     1.007825032070
           H         -0.304398258974     0.003539168268     1.682217304882     1.007825032070
           C         -2.178025258974     0.391657168268    -0.338191695118    12.000000000000
           H         -0.475997258974    -0.473477831732    -1.326564695118     1.007825032070
           H         -1.187979258974    -1.503852831732    -0.116346695118     1.007825032070
           C         -3.224118258974    -0.075751831732    -1.351715695118    12.000000000000
           H         -1.906575258974     1.423872168268    -0.552352695118     1.007825032070
           H         -2.618374258974     0.393785168268     0.657340304882     1.007825032070
           C         -4.482569258974     0.791416168268    -1.354146695118    12.000000000000
           H         -2.785460258974    -0.077157831732    -2.347406695118     1.007825032070
           H         -3.497378258974    -1.106965831732    -1.137742695118     1.007825032070
           H         -4.246993258974     1.823373168268    -1.598524695118     1.007825032070
           H         -5.204554258974     0.435670168268    -2.082763695118     1.007825032070
           H         -4.964615258974     0.785355168268    -0.380627695118     1.007825032070
           H          4.000227741026    -1.528966831732    -0.189349695118     1.007825032070
           H          4.811077741026    -0.219617831732     0.682809304882     1.007825032070
           H          4.001623741026    -1.526558831732     1.559654304882     1.007825032070

  Charge       = 0
  Multiplicity = 1
  Basis Set: 6-31G*
  Basis Set:

    Orbital Energies (a.u.)
    -----------------------

    Doubly Occupied:

       1A    -20.551291     2A    -11.327153     3A    -11.230576
       4A    -11.228995     5A    -11.215549     6A    -11.214262
       7A    -11.212495     8A    -11.211925     9A    -11.207441
      10A     -1.397060    11A     -1.092298    12A     -1.055527
      13A     -1.014356    14A     -0.968552    15A     -0.889583
      16A     -0.814043    17A     -0.790027    18A     -0.729879
      19A     -0.666612    20A     -0.645530    21A     -0.632138
      22A     -0.623562    23A     -0.594358    24A     -0.583128
      25A     -0.571856    26A     -0.558761    27A     -0.535576
      28A     -0.525317    29A     -0.513384    30A     -0.494211
      31A     -0.483494    32A     -0.470658    33A     -0.463360
      34A     -0.459499    35A     -0.445816    36A     -0.401620

  @DF-RHF Final Energy:  -387.13217600759970

   => Energetics <=

    Nuclear Repulsion Energy =            440.4181422994612376
    One-Electron Energy =               -1397.4605012830545547
    Two-Electron Energy =                 569.9101829759974862
    DFT Exchange-Correlation Energy =       0.0000000000000000
    Empirical Dispersion Energy =           0.0000000000000000
    PCM Polarization Energy =               0.0000000000000000
    EFP Energy =                            0.0000000000000000
    Total Energy =                       -387.1321760075958309

  Mulliken Charges: (a.u.)
   Center  Symbol    Alpha    Beta     Spin     Total
       1     O     4.25999  4.25999  0.00000 -0.51998
       2     C     2.73874  2.73874  0.00000  0.52252
       3     C     3.21422  3.21422  0.00000 -0.42843
       4     C     3.28689  3.28689  0.00000 -0.57379
       5     C     3.15667  3.15667  0.00000 -0.31333
       6     H     0.40757  0.40757  0.00000  0.18486
       7     H     0.40713  0.40713  0.00000  0.18573
       8     C     3.15604  3.15604  0.00000 -0.31208
       9     H     0.39383  0.39383  0.00000  0.21235
      10     H     0.41977  0.41977  0.00000  0.16047
      11     C     3.15142  3.15142  0.00000 -0.30283
      12     H     0.42329  0.42329  0.00000  0.15343
      13     H     0.42551  0.42551  0.00000  0.14898
      14     C     3.15146  3.15146  0.00000 -0.30292
      15     H     0.42113  0.42113  0.00000  0.15773
      16     H     0.42387  0.42387  0.00000  0.15225
      17     C     3.23928  3.23928  0.00000 -0.47856
      18     H     0.42323  0.42323  0.00000  0.15353
      19     H     0.42396  0.42396  0.00000  0.15209
      20     H     0.42110  0.42110  0.00000  0.15781
      21     H     0.41971  0.41971  0.00000  0.16059
      22     H     0.42188  0.42188  0.00000  0.15623
      23     H     0.40850  0.40850  0.00000  0.18300
      24     H     0.39637  0.39637  0.00000  0.20725
      25     H     0.40845  0.40845  0.00000  0.18310

   Total alpha = 36.00000, Total beta = 36.00000, Total charge =  0.00000
