  ==> Input File <==

--------------------------------------------------------------------------
set {
	reference rhf
	basis 6-31G*
}

set_num_threads( 1 )
memory 2 gb

molecule MOL {
0 1

O	 2.776200	 1.491645	 0.752453
C	 2.710373	 0.372247	 1.159111
C	 1.414795	 -0.419105	 1.145718
C	 3.926449	 -0.336397	 1.719593
C	 0.225250	 0.345219	 0.572109
H	 1.590181	 -1.335924	 0.584407
H	 1.210064	 -0.740552	 2.166090
C	 -1.060502	 -0.483392	 0.574792
H	 0.459365	 0.660286	 -0.439846
H	 0.078624	 1.256217	 1.143713
C	 -2.259874	 0.272531	 0.000494
H	 -0.905346	 -1.397046	 0.002768
H	 -1.288525	 -0.797411	 1.592370
C	 -3.549786	 -0.549746	 -0.000374
H	 -2.033317	 0.586313	 -1.016970
H	 -2.416454	 1.185633	 0.572092
C	 -4.809590	 0.315458	 -0.000369
H	 -3.560515	 -1.202009	 -0.871156
H	 -3.561123	 -1.202955	 0.869711
H	 -4.844746	 0.956611	 -0.876632
H	 -5.706986	 -0.295590	 -0.001609
H	 -4.845960	 0.954827	 0.877144
H	 4.132995	 -1.239973	 1.153459
H	 4.783869	 0.320701	 1.676140
H	 3.750040	 -0.634469	 2.748994

	symmetry c1
}
set optking {
	frozen_dihedral = ("
		9 5 8 12,
		15 11 8 12,
		1 2 3 6,
		9 5 3 6
	")
}

ee = energy('scf')
oeprop('DIPOLE', 'QUADRUPOLE', 'MULLIKEN_CHARGES')
f=open( 'psi4out.xyz', 'w' )
f.write( "25  " )
f.write( str(ee) + "\n" )
f.write( MOL.save_string_xyz() )
f.close()
--------------------------------------------------------------------------

    Molecular point group: c1

    Geometry (in Angstrom), charge = 0, multiplicity = 1:

       Center              X                  Y                   Z               Mass
    ------------   -----------------  -----------------  -----------------  -----------------
           O          2.851834747098     1.373690980720     0.094096983763    15.994914619560
           C          2.786007747098     0.254292980720     0.500754983763    12.000000000000
           C          1.490429747098    -0.537059019280     0.487361983763    12.000000000000
           C          4.002083747098    -0.454351019280     1.061236983763    12.000000000000
           C          0.300884747098     0.227264980720    -0.086247016237    12.000000000000
           H          1.665815747098    -1.453878019280    -0.073949016237     1.007825032070
           H          1.285698747098    -0.858506019280     1.507733983763     1.007825032070
           C         -0.984867252902    -0.601346019280    -0.083564016237    12.000000000000
           H          0.534999747098     0.542331980720    -1.098202016237     1.007825032070
           H          0.154258747098     1.138262980720     0.485356983763     1.007825032070
           C         -2.184239252902     0.154576980720    -0.657862016237    12.000000000000
           H         -0.829711252902    -1.515000019280    -0.655588016237     1.007825032070
           H         -1.212890252902    -0.915365019280     0.934013983763     1.007825032070
           C         -3.474151252902    -0.667700019280    -0.658730016237    12.000000000000
           H         -1.957682252902     0.468358980720    -1.675326016237     1.007825032070
           H         -2.340819252902     1.067678980720    -0.086264016237     1.007825032070
           C         -4.733955252902     0.197503980720    -0.658725016237    12.000000000000
           H         -3.484880252902    -1.319963019280    -1.529512016237     1.007825032070
           H         -3.485488252902    -1.320909019280     0.211354983763     1.007825032070
           H         -4.769111252902     0.838656980720    -1.534988016237     1.007825032070
           H         -5.631351252902    -0.413544019280    -0.659965016237     1.007825032070
           H         -4.770325252902     0.836872980720     0.218787983763     1.007825032070
           H          4.208629747098    -1.357927019280     0.495102983763     1.007825032070
           H          4.859503747098     0.202746980720     1.017783983763     1.007825032070
           H          3.825674747098    -0.752423019280     2.090637983763     1.007825032070

  Charge       = 0
  Multiplicity = 1
  Basis Set: 6-31G*
  Basis Set:

    Orbital Energies (a.u.)
    -----------------------

    Doubly Occupied:

       1A    -20.550485     2A    -11.326286     3A    -11.231882
       4A    -11.228331     5A    -11.217155     6A    -11.216469
       7A    -11.214793     8A    -11.212936     9A    -11.208429
      10A     -1.395767    11A     -1.093625    12A     -1.056293
      13A     -1.014438    14A     -0.969108    15A     -0.890792
      16A     -0.814439    17A     -0.790683    18A     -0.729892
      19A     -0.660887    20A     -0.652094    21A     -0.630809
      22A     -0.623996    23A     -0.596841    24A     -0.584931
      25A     -0.567696    26A     -0.559231    27A     -0.538794
      28A     -0.526966    29A     -0.513378    30A     -0.490098
      31A     -0.486950    32A     -0.474375    33A     -0.463544
      34A     -0.460153    35A     -0.450198    36A     -0.399377

  @DF-RHF Final Energy:  -387.13451992169166

   => Energetics <=

    Nuclear Repulsion Energy =            438.5957191170358556
    One-Electron Energy =               -1393.7759612682114039
    Two-Electron Energy =                 568.0457222294801340
    DFT Exchange-Correlation Energy =       0.0000000000000000
    Empirical Dispersion Energy =           0.0000000000000000
    PCM Polarization Energy =               0.0000000000000000
    EFP Energy =                            0.0000000000000000
    Total Energy =                       -387.1345199216954143

  Mulliken Charges: (a.u.)
   Center  Symbol    Alpha    Beta     Spin     Total
       1     O     4.26114  4.26114  0.00000 -0.52229
       2     C     2.73570  2.73570  0.00000  0.52861
       3     C     3.21087  3.21087  0.00000 -0.42173
       4     C     3.28663  3.28663  0.00000 -0.57327
       5     C     3.14826  3.14826  0.00000 -0.29651
       6     H     0.40998  0.40998  0.00000  0.18004
       7     H     0.41006  0.41006  0.00000  0.17987
       8     C     3.15485  3.15485  0.00000 -0.30969
       9     H     0.41217  0.41217  0.00000  0.17566
      10     H     0.41212  0.41212  0.00000  0.17576
      11     C     3.15184  3.15184  0.00000 -0.30368
      12     H     0.42474  0.42474  0.00000  0.15051
      13     H     0.42463  0.42463  0.00000  0.15074
      14     C     3.15231  3.15231  0.00000 -0.30463
      15     H     0.42105  0.42105  0.00000  0.15790
      16     H     0.42203  0.42203  0.00000  0.15594
      17     C     3.23975  3.23975  0.00000 -0.47950
      18     H     0.42196  0.42196  0.00000  0.15608
      19     H     0.42333  0.42333  0.00000  0.15335
      20     H     0.42117  0.42117  0.00000  0.15767
      21     H     0.42001  0.42001  0.00000  0.15998
      22     H     0.42148  0.42148  0.00000  0.15704
      23     H     0.40874  0.40874  0.00000  0.18252
      24     H     0.39647  0.39647  0.00000  0.20707
      25     H     0.40870  0.40870  0.00000  0.18259

   Total alpha = 36.00000, Total beta = 36.00000, Total charge =  0.00000
