  ==> Input File <==

--------------------------------------------------------------------------
set {
	reference rhf
	basis 6-31G*
}

set_num_threads( 4 )
memory 2 gb

molecule MOL {
0 1

H	 1.136379	 0.211822	 1.465562
C	 1.135357	 0.094285	 0.374742
C	 0.065331	 0.871482	 -0.349150
O	 1.941633	 -0.601957	 -0.151457
C	 -0.271109	 0.267589	 -1.720136
H	 0.392039	 1.901106	 -0.438866
H	 -0.824766	 0.855356	 0.278248
C	 0.877852	 0.369797	 -2.724060
H	 -1.143908	 0.777133	 -2.115860
H	 -0.558878	 -0.774171	 -1.595375
H	 1.157852	 1.405505	 -2.889698
H	 0.593628	 -0.056079	 -3.680702
H	 1.762539	 -0.156929	 -2.378692

	symmetry c1
}
set optking {
	frozen_dihedral = ("
		6 3 2 4
	")
}

ee = optimize('scf')
oeprop('DIPOLE', 'QUADRUPOLE', 'MULLIKEN_CHARGES')
f=open( 'psi4out.xyz', 'w' )
f.write( "13  " )
f.write( str(ee) + "\n" )
f.write( MOL.save_string_xyz() )
f.close()
--------------------------------------------------------------------------

    Molecular point group: c1
  Charge       = 0
  Multiplicity = 1
  Basis Set: 6-31G*
  Basis Set:
  @DF-RHF Final Energy:  -230.98215116668320
    Total Energy =                       -230.9821511666829679
    Molecular point group: c1
  Basis Set: 6-31G*
  Basis Set:
  Basis Set: 6-31G*
  Basis Set:
  @DF-RHF Final Energy:  -230.98398713390444
    Total Energy =                       -230.9839871339044350
  Basis Set: 6-31G*
  Basis Set:
  Basis Set: 6-31G*
  Basis Set:
  @DF-RHF Final Energy:  -230.98258747405714
    Total Energy =                       -230.9825874740570839
  Basis Set: 6-31G*
  Basis Set:
  Basis Set: 6-31G*
  Basis Set:
  @DF-RHF Final Energy:  -230.98440236552014
    Total Energy =                       -230.9844023655199976
  Basis Set: 6-31G*
  Basis Set:
  Basis Set: 6-31G*
  Basis Set:
  @DF-RHF Final Energy:  -230.98445260608483
    Total Energy =                       -230.9844526060846590
  Basis Set: 6-31G*
  Basis Set:
  Basis Set: 6-31G*
  Basis Set:
  @DF-RHF Final Energy:  -230.98445680930459
    Total Energy =                       -230.9844568093047315
  Basis Set: 6-31G*
  Basis Set:
  Basis Set: 6-31G*
  Basis Set:
  @DF-RHF Final Energy:  -230.98445836527745
    Total Energy =                       -230.9844583652773622
  Basis Set: 6-31G*
  Basis Set:
  Charge       = 0
  Multiplicity = 1
  Basis Set: 6-31G*
  Basis Set:

    Orbital Energies (a.u.)
    -----------------------

    Doubly Occupied:

       1A    -20.565116     2A    -11.329964     3A    -11.238252
       4A    -11.226701     5A    -11.207020     6A     -1.405407
       7A     -1.076560     8A     -0.971710     9A     -0.847071
      10A     -0.769464    11A     -0.684952    12A     -0.644685
      13A     -0.612068    14A     -0.582438    15A     -0.568440
      16A     -0.520299    17A     -0.495512    18A     -0.483523
      19A     -0.481012    20A     -0.409924

  @DF-RHF Final Energy:  -230.98445840615014

   => Energetics <=

    Nuclear Repulsion Energy =            176.2197841151321711
    One-Electron Energy =                -662.1682523566609007
    Two-Electron Energy =                 254.9640098353787039
    DFT Exchange-Correlation Energy =       0.0000000000000000
    Empirical Dispersion Energy =           0.0000000000000000
    PCM Polarization Energy =               0.0000000000000000
    EFP Energy =                            0.0000000000000000
    Total Energy =                       -230.9844584061500541
    Molecular point group: c1
  Basis Set: 6-31G*
  Basis Set:

  -Total Gradient:
     Atom            X                  Y                   Z
    ------   -----------------  -----------------  -----------------
       1       -0.000000370235     0.000003241519     0.000004824308
       2       -0.002569770845    -0.003203169467     0.000029310915
       3       -0.000545542010     0.001934653936     0.002531276997
       4        0.001928459159     0.002088237328    -0.000338375451
       5       -0.000003604491     0.000009291528     0.000002967819
       6        0.001184752639    -0.000822083476    -0.002229305463
       7        0.000003603449    -0.000001790937     0.000006019087
       8       -0.000005357174     0.000003280181    -0.000006436575
       9       -0.000001226380    -0.000003396124    -0.000001810109
      10        0.000002105474     0.000001179509    -0.000000383209
      11       -0.000001844935    -0.000004413045     0.000004157457
      12        0.000004085491    -0.000001611726    -0.000004684672
      13        0.000004709851    -0.000003419224     0.000002438897

  **** Optimization is complete! (in 8 steps) ****
    Final optimized geometry and variables:
    Molecular point group: c1

    Geometry (in Angstrom), charge = 0, multiplicity = 1:

    H            0.338174492315     0.122381583935     2.421999501495
    C            0.341685671862    -0.103362736080     1.349391378499
    C           -0.652458203603     0.684919655248     0.530336780560
    O            1.117965102113    -0.890881578373     0.913406968957
    C           -0.991975226437     0.077572250546    -0.835844881908
    H           -0.221930456535     1.677560730788     0.393898466462
    H           -1.547537727946     0.820263030918     1.132118447348
    C            0.100516155883     0.265811274821    -1.888916992368
    H           -1.910016073976     0.538219189774    -1.189804930451
    H           -1.203139513410    -0.980243671448    -0.713371884820
    H            0.301738705240     1.321346469592    -2.053808964730
    H           -0.208158346478    -0.160789008854    -2.838230285738
    H            1.022717189609    -0.212908594796    -1.587560110996

  Mulliken Charges: (a.u.)
   Center  Symbol    Alpha    Beta     Spin     Total
       1     H     0.42768  0.42768  0.00000  0.14463
       2     C     2.83752  2.83752  0.00000  0.32496
       3     C     3.21177  3.21177  0.00000 -0.42354
       4     O     4.23689  4.23689  0.00000 -0.47378
       5     C     3.15114  3.15114  0.00000 -0.30227
       6     H     0.40384  0.40384  0.00000  0.19232
       7     H     0.40953  0.40953  0.00000  0.18094
       8     C     3.24504  3.24504  0.00000 -0.49008
       9     H     0.41845  0.41845  0.00000  0.16311
      10     H     0.41263  0.41263  0.00000  0.17474
      11     H     0.42580  0.42580  0.00000  0.14840
      12     H     0.41934  0.41934  0.00000  0.16132
      13     H     0.40038  0.40038  0.00000  0.19924

   Total alpha = 20.00000, Total beta = 20.00000, Total charge = -0.00000
