  ==> Input File <==

--------------------------------------------------------------------------
set {
	reference rhf
	basis 6-31G*
}

set_num_threads( 4 )
memory 2 gb

molecule MOL {
0 1

H	 -2.455504	 -1.062989	 3.255514
C	 -2.425350	 -0.963885	 2.187839
C	 -1.271134	 -0.975404	 1.562018
H	 -3.351856	 -0.856911	 1.655811
O	 -1.180634	 -0.819263	 0.215062
H	 -0.332713	 -1.088641	 2.075572
C	 0.051604	 -1.018856	 -0.387932
C	 1.043764	 0.054862	 -0.001873
H	 -0.017620	 -1.041351	 -1.469781
H	 0.437898	 -1.966374	 -0.042284
F	 2.212596	 -0.199467	 -0.571921
F	 0.652529	 1.252447	 -0.405055
F	 1.230877	 0.110694	 1.300533

	symmetry c1
}
set optking {
	frozen_dihedral = ("
		3 5 7 9
	")
}

ee = optimize('scf')
oeprop('DIPOLE', 'QUADRUPOLE', 'MULLIKEN_CHARGES')
f=open( 'psi4out.xyz', 'w' )
f.write( "13  " )
f.write( str(ee) + "\n" )
f.write( MOL.save_string_xyz() )
f.close()
--------------------------------------------------------------------------

    Molecular point group: c1
  Charge       = 0
  Multiplicity = 1
  Basis Set: 6-31G*
  Basis Set:
  @DF-RHF Final Energy:  -527.53027730868757
    Total Energy =                       -527.5302773086875732
    Molecular point group: c1
  Basis Set: 6-31G*
  Basis Set:
  Basis Set: 6-31G*
  Basis Set:
  @DF-RHF Final Energy:  -527.53425912909029
    Total Energy =                       -527.5342591290905148
  Basis Set: 6-31G*
  Basis Set:
  Basis Set: 6-31G*
  Basis Set:
  @DF-RHF Final Energy:  -527.53494928751900
    Total Energy =                       -527.5349492875185433
  Basis Set: 6-31G*
  Basis Set:
  Basis Set: 6-31G*
  Basis Set:
  @DF-RHF Final Energy:  -527.53515138062880
    Total Energy =                       -527.5351513806284629
  Basis Set: 6-31G*
  Basis Set:
  @DF-RHF Final Energy:  -527.53524111155662
    Total Energy =                       -527.5352411115567293
  Basis Set: 6-31G*
  Basis Set:
  @DF-RHF Final Energy:  -527.53526790839157
    Total Energy =                       -527.5352679083919156
  Basis Set: 6-31G*
  Basis Set:
  Basis Set: 6-31G*
  Basis Set:
  @DF-RHF Final Energy:  -527.53527727783785
    Total Energy =                       -527.5352772778378494
  Basis Set: 6-31G*
  Basis Set:
  Basis Set: 6-31G*
  Basis Set:
  @DF-RHF Final Energy:  -527.53527964848217
    Total Energy =                       -527.5352796484821738
  Basis Set: 6-31G*
  Basis Set:
  Charge       = 0
  Multiplicity = 1
  Basis Set: 6-31G*
  Basis Set:

    Orbital Energies (a.u.)
    -----------------------

    Doubly Occupied:

       1A    -26.344916     2A    -26.344641     3A    -26.341230
       4A    -20.607478     5A    -11.503854     6A    -11.318642
       7A    -11.297886     8A    -11.216365     9A     -1.742478
      10A     -1.640342    11A     -1.639029    12A     -1.436895
      13A     -1.083003    14A     -1.017131    15A     -0.925841
      16A     -0.836608    17A     -0.831168    18A     -0.824641
      19A     -0.786960    20A     -0.720655    21A     -0.711419
      22A     -0.694851    23A     -0.676295    24A     -0.661473
      25A     -0.655403    26A     -0.643738    27A     -0.636561
      28A     -0.587412    29A     -0.563209    30A     -0.522039
      31A     -0.508322    32A     -0.353031

  @DF-RHF Final Energy:  -527.53527982951971

   => Energetics <=

    Nuclear Repulsion Energy =            415.3934845493416788
    One-Electron Energy =               -1554.5104901255476761
    Two-Electron Energy =                 611.5817257466862884
    DFT Exchange-Correlation Energy =       0.0000000000000000
    Empirical Dispersion Energy =           0.0000000000000000
    PCM Polarization Energy =               0.0000000000000000
    EFP Energy =                            0.0000000000000000
    Total Energy =                       -527.5352798295195953
    Molecular point group: c1
  Basis Set: 6-31G*
  Basis Set:

  -Total Gradient:
     Atom            X                  Y                   Z
    ------   -----------------  -----------------  -----------------
       1       -0.000001248141     0.000001854089     0.000001441084
       2        0.000011411778    -0.000009765238    -0.000013878637
       3        0.000212805564     0.002205131501     0.000318598923
       4        0.000002524981     0.000001024135     0.000002765272
       5       -0.000351164592    -0.002636430272    -0.000439840737
       6       -0.000002755857     0.000000902636    -0.000001163077
       7        0.000025601262    -0.002162314414     0.000212273092
       8        0.000010621328    -0.000030057269     0.000061132087
       9        0.000105147296     0.002605678290    -0.000066268576
      10       -0.000002595848     0.000005345365    -0.000002308352
      11        0.000009053672     0.000001323476    -0.000007424653
      12       -0.000011870158     0.000016391419    -0.000011706477
      13       -0.000007531277     0.000000916285    -0.000053619951

  **** Optimization is complete! (in 9 steps) ****
    Final optimized geometry and variables:
    Molecular point group: c1

    Geometry (in Angstrom), charge = 0, multiplicity = 1:

    H           -2.612899168102    -0.760642050336     2.794750440387
    C           -2.507053330257    -0.573482372904     1.743748077674
    C           -1.424294919018    -0.966075618550     1.113842491035
    H           -3.302527641309    -0.067255346955     1.229854070004
    O           -1.273427916539    -0.800257460434    -0.228024223412
    H           -0.612327524210    -1.469458868848     1.608411410756
    C            0.006408374708    -0.861488086896    -0.757592574874
    C            0.838302139013     0.362743360572    -0.437101537004
    H           -0.098112247389    -0.887260173668    -1.831834657457
    H            0.549968178431    -1.738911284774    -0.423691638778
    F            2.001570016507     0.272068712073    -1.065201088327
    F            0.249460819470     1.473828071502    -0.828565207186
    F            1.093011575336     0.476486663904     0.856234464313

  Mulliken Charges: (a.u.)
   Center  Symbol    Alpha    Beta     Spin     Total
       1     H     0.40694  0.40694  0.00000  0.18612
       2     C     3.23270  3.23270  0.00000 -0.46539
       3     C     2.89897  2.89897  0.00000  0.20206
       4     H     0.40180  0.40180  0.00000  0.19640
       5     O     4.30153  4.30153  0.00000 -0.60305
       6     H     0.40637  0.40637  0.00000  0.18726
       7     C     3.06085  3.06085  0.00000 -0.12170
       8     C     2.45984  2.45984  0.00000  1.08032
       9     H     0.38930  0.38930  0.00000  0.22139
      10     H     0.40549  0.40549  0.00000  0.18902
      11     F     4.68268  4.68268  0.00000 -0.36537
      12     F     4.67418  4.67418  0.00000 -0.34836
      13     F     4.67935  4.67935  0.00000 -0.35871

   Total alpha = 32.00000, Total beta = 32.00000, Total charge = -0.00000
