  ==> Input File <==

--------------------------------------------------------------------------
set {
	reference rhf
	basis 6-31G*
}

set_num_threads( 4 )
memory 2 gb

molecule MOL {
0 1

O	 2.120584	 1.753525	 -0.577226
C	 0.973153	 1.417650	 -0.453570
C	 -0.141779	 2.425294	 -0.662534
N	 0.623947	 0.147590	 -0.102813
H	 -0.748301	 2.537670	 0.229422
H	 0.319352	 3.372179	 -0.898785
H	 -0.794298	 2.134664	 -1.478827
C	 1.665360	 -0.855771	 0.000151
C	 -0.727177	 -0.365778	 -0.159024
H	 2.465253	 -0.618490	 -0.692587
H	 1.257730	 -1.821716	 -0.242189
H	 2.081488	 -0.891645	 1.004627
H	 -0.856523	 -1.108818	 0.618922
H	 -1.454827	 0.412198	 0.008943
H	 -0.942163	 -0.840089	 -1.114861

	symmetry c1
}
set optking {
	frozen_dihedral = ("
		2 4 8 10
	")
}

ee = optimize('scf')
oeprop('DIPOLE', 'QUADRUPOLE', 'MULLIKEN_CHARGES')
f=open( 'psi4out.xyz', 'w' )
f.write( "15  " )
f.write( str(ee) + "\n" )
f.write( MOL.save_string_xyz() )
f.close()
--------------------------------------------------------------------------

    Molecular point group: c1
  Charge       = 0
  Multiplicity = 1
  Basis Set: 6-31G*
  Basis Set:
  @DF-RHF Final Energy:  -286.02796661973099
    Total Energy =                       -286.0279666197311599
    Molecular point group: c1
  Basis Set: 6-31G*
  Basis Set:
  Basis Set: 6-31G*
  Basis Set:
  @DF-RHF Final Energy:  -286.02850202507022
    Total Energy =                       -286.0285020250704520
  Basis Set: 6-31G*
  Basis Set:
  Basis Set: 6-31G*
  Basis Set:
  @DF-RHF Final Energy:  -286.02868940386367
    Total Energy =                       -286.0286894038637797
  Basis Set: 6-31G*
  Basis Set:
  Basis Set: 6-31G*
  Basis Set:
  @DF-RHF Final Energy:  -286.02887632496549
    Total Energy =                       -286.0288763249653812
  Basis Set: 6-31G*
  Basis Set:
  @DF-RHF Final Energy:  -286.02912489699281
    Total Energy =                       -286.0291248969926983
  @DF-RHF Final Energy:  -286.02920981423830
    Total Energy =                       -286.0292098142381292
  @DF-RHF Final Energy:  -286.02931988801220
    Total Energy =                       -286.0293198880121963
  @DF-RHF Final Energy:  -286.02944703883264
    Total Energy =                       -286.0294470388326431
  @DF-RHF Final Energy:  -286.02956127288701
    Total Energy =                       -286.0295612728870083
  @DF-RHF Final Energy:  -286.02968489729494
    Total Energy =                       -286.0296848972947146
  @DF-RHF Final Energy:  -286.02975096943214
    Total Energy =                       -286.0297509694319160
  Basis Set: 6-31G*
  Basis Set:
  @DF-RHF Final Energy:  -286.02978404179612
    Total Energy =                       -286.0297840417962334
  Basis Set: 6-31G*
  Basis Set:
  Basis Set: 6-31G*
  Basis Set:
  @DF-RHF Final Energy:  -286.02979092506791
    Total Energy =                       -286.0297909250679140
  Basis Set: 6-31G*
  Basis Set:
  Basis Set: 6-31G*
  Basis Set:
  @DF-RHF Final Energy:  -286.02979240283270
    Total Energy =                       -286.0297924028328680
  Basis Set: 6-31G*
  Basis Set:
  Charge       = 0
  Multiplicity = 1
  Basis Set: 6-31G*
  Basis Set:

    Orbital Energies (a.u.)
    -----------------------

    Doubly Occupied:

       1A    -20.514897     2A    -15.583663     3A    -11.341324
       4A    -11.266373     5A    -11.247867     6A    -11.228374
       7A     -1.384699     8A     -1.243397     9A     -1.014150
      10A     -0.972650    11A     -0.918707    12A     -0.737683
      13A     -0.680872    14A     -0.659010    15A     -0.651332
      16A     -0.589095    17A     -0.576330    18A     -0.568037
      19A     -0.561954    20A     -0.546483    21A     -0.529567
      22A     -0.502902    23A     -0.410669    24A     -0.367020

  @DF-RHF Final Energy:  -286.02979296344654

   => Energetics <=

    Nuclear Repulsion Energy =            252.4566616780776087
    One-Electron Energy =                -888.7787957527076514
    Two-Electron Energy =                 350.2923411111835890
    DFT Exchange-Correlation Energy =       0.0000000000000000
    Empirical Dispersion Energy =           0.0000000000000000
    PCM Polarization Energy =               0.0000000000000000
    EFP Energy =                            0.0000000000000000
    Total Energy =                       -286.0297929634464822
    Molecular point group: c1
  Basis Set: 6-31G*
  Basis Set:

  -Total Gradient:
     Atom            X                  Y                   Z
    ------   -----------------  -----------------  -----------------
       1       -0.000021404467    -0.000020914588    -0.000005160272
       2       -0.000003184106     0.000024516749     0.000160075040
       3       -0.000003911966    -0.000001620569     0.000032205243
       4        0.000020543174    -0.000049296539    -0.000290166151
       5       -0.000000997643     0.000004189901    -0.000009392046
       6       -0.000002224266     0.000003659027    -0.000004795089
       7        0.000004085729    -0.000013399596    -0.000003897174
       8        0.000061952026     0.000137140115     0.000302049319
       9       -0.000002011903     0.000000547621     0.000015664865
      10       -0.000058386908    -0.000093155411    -0.000167617349
      11        0.000006129453    -0.000014962524    -0.000012624578
      12        0.000000177631     0.000001296679    -0.000006308928
      13       -0.000007296660    -0.000001694642    -0.000002568471
      14       -0.000006465489     0.000012367524    -0.000007271411
      15        0.000012995397     0.000011326251    -0.000000192997

  **** Optimization is complete! (in 15 steps) ****
    Final optimized geometry and variables:
    Molecular point group: c1

    Geometry (in Angstrom), charge = 0, multiplicity = 1:

    O            1.373336099219     1.023951418029    -0.109019315641
    C            0.223764041731     0.673859698964    -0.113342841003
    C           -0.886006942985     1.699294458188    -0.248686721317
    N           -0.130655610014    -0.640235179450    -0.026329929047
    H           -1.523976179276     1.712685145027     0.628591775200
    H           -0.420291314949     2.666622267237    -0.360608725286
    H           -1.508370470678     1.500603341243    -1.114211156216
    C            0.916602103654    -1.614065994607     0.215818471723
    C           -1.478151312495    -1.091571317832     0.246178547485
    H            1.840843223082    -1.262372045362    -0.209478314454
    H            0.643222998978    -2.554025837418    -0.249370089917
    H            1.064732688418    -1.786503976888     1.279569339819
    H           -1.667814455345    -1.190889222177     1.313572342975
    H           -2.211850728465    -0.420159825473    -0.171145812725
    H           -1.625478452405    -2.062340105946    -0.211161833197

  Mulliken Charges: (a.u.)
   Center  Symbol    Alpha    Beta     Spin     Total
       1     O     4.30386  4.30386  0.00000 -0.60771
       2     C     2.62433  2.62433  0.00000  0.75133
       3     C     3.29851  3.29851  0.00000 -0.59703
       4     N     3.82303  3.82303  0.00000 -0.64607
       5     H     0.40767  0.40767  0.00000  0.18467
       6     H     0.39055  0.39055  0.00000  0.21890
       7     H     0.40651  0.40651  0.00000  0.18698
       8     C     3.14335  3.14335  0.00000 -0.28669
       9     C     3.14223  3.14223  0.00000 -0.28446
      10     H     0.38719  0.38719  0.00000  0.22561
      11     H     0.41905  0.41905  0.00000  0.16191
      12     H     0.41918  0.41918  0.00000  0.16164
      13     H     0.41697  0.41697  0.00000  0.16606
      14     H     0.40726  0.40726  0.00000  0.18548
      15     H     0.41031  0.41031  0.00000  0.17938

   Total alpha = 24.00000, Total beta = 24.00000, Total charge =  0.00000
