                              Psi4 1.0.54 Driver

  ==> Input File <==

--------------------------------------------------------------------------
set {
	reference rhf
	basis cc-pvtz
}

set_num_threads( 4 )
memory 2 gb

molecule MOL {
0 1

H	 -0.185259	 2.322275	 -0.895349
C	 0.354178	 2.051345	 0.021852
C	 0.692262	 0.592428	 0.156232
O	 0.622909	 2.883458	 0.817469
C	 -0.554654	 -0.292621	 0.086567
H	 1.226439	 0.448390	 1.086149
H	 1.362353	 0.336915	 -0.662040
C	 -1.846385	 0.513195	 -0.016346
H	 -0.473986	 -0.956115	 -0.769708
H	 -0.597929	 -0.929215	 0.966651
C	 -3.089953	 -0.365049	 -0.098564
H	 -1.798267	 1.154820	 -0.891143
H	 -1.925398	 1.173265	 0.842889
H	 -3.055079	 -1.012299	 -0.968245
H	 -3.988403	 0.236438	 -0.170014
H	 -3.183055	 -0.995885	 0.779079

	symmetry c1
}
set optking {
	frozen_dihedral = ("
		6 3 5 9
	")
}

ee,wfn = optimize('scf', return_wfn=True)
oeprop( wfn, 'DIPOLE', 'QUADRUPOLE', 'MULLIKEN_CHARGES')
f=open( 'psi4out.xyz', 'w' )
f.write( "16  " )
f.write( str(ee) + "\n" )
f.write( MOL.save_string_xyz() )
f.close()
--------------------------------------------------------------------------

    Molecular point group: c1
  Charge       = 0
  Multiplicity = 1
  Basis Set: CC-PVTZ
  Basis Set:
  @DF-RHF Final Energy:  -270.10651691060690
    Total Energy =                       -270.1065169106070698
    Molecular point group: c1
  Basis Set: CC-PVTZ
  Basis Set:
  Basis Set: CC-PVTZ
  Basis Set:
  @DF-RHF Final Energy:  -270.10997045308176
    Total Energy =                       -270.1099704530818144
  Basis Set: CC-PVTZ
  Basis Set:
  Basis Set: CC-PVTZ
  Basis Set:
  @DF-RHF Final Energy:  -270.10927352463403
    Total Energy =                       -270.1092735246338634
  Basis Set: CC-PVTZ
  Basis Set:
  Basis Set: CC-PVTZ
  Basis Set:
  @DF-RHF Final Energy:  -270.11024787868064
    Total Energy =                       -270.1102478786805250
  Basis Set: CC-PVTZ
  Basis Set:
  @DF-RHF Final Energy:  -270.11043623401019
    Total Energy =                       -270.1104362340103648
  @DF-RHF Final Energy:  -270.11044410943788
    Total Energy =                       -270.1104441094378785
  Basis Set: CC-PVTZ
  Basis Set:
  @DF-RHF Final Energy:  -270.11045048631320
    Total Energy =                       -270.1104504863131410
  Basis Set: CC-PVTZ
  Basis Set:
  Basis Set: CC-PVTZ
  Basis Set:
  @DF-RHF Final Energy:  -270.11045216938936
    Total Energy =                       -270.1104521693893048
  Basis Set: CC-PVTZ
  Basis Set:
  Basis Set: CC-PVTZ
  Basis Set:
  @DF-RHF Final Energy:  -270.11045359328608
    Total Energy =                       -270.1104535932861381
  Basis Set: CC-PVTZ
  Basis Set:
  Charge       = 0
  Multiplicity = 1
  Basis Set: CC-PVTZ
  Basis Set:

    Orbital Energies (a.u.)
    -----------------------

    Doubly Occupied:

       1A    -20.550611     2A    -11.320634     3A    -11.234265
       4A    -11.233632     5A    -11.227475     6A    -11.216506
       7A     -1.405525     8A     -1.093328     9A     -1.016668
      10A     -0.906627    11A     -0.833497    12A     -0.774404
      13A     -0.677262    14A     -0.646293    15A     -0.629557
      16A     -0.604520    17A     -0.583597    18A     -0.561921
      19A     -0.524777    20A     -0.512551    21A     -0.494317
      22A     -0.475741    23A     -0.469597    24A     -0.410590

  @DF-RHF Final Energy:  -270.11045375467546

   => Energetics <=

    Nuclear Repulsion Energy =            234.1696910485646299
    One-Electron Energy =                -829.7525003359605762
    Two-Electron Energy =                 325.4723555327200870
    DFT Exchange-Correlation Energy =       0.0000000000000000
    Empirical Dispersion Energy =           0.0000000000000000
    PCM Polarization Energy =               0.0000000000000000
    EFP Energy =                            0.0000000000000000
    Total Energy =                       -270.1104537546759161
    Molecular point group: c1
  Basis Set: CC-PVTZ
  Basis Set:

  -Total Gradient:
     Atom            X                  Y                   Z
    ------   -----------------  -----------------  -----------------
       1        0.000001287691     0.000001715055    -0.000007929107
       2       -0.000005225964    -0.000012799024    -0.000003637281
       3       -0.000924622246     0.001330176902     0.001112962626
       4       -0.000007144242     0.000006429868     0.000010870859
       5       -0.000669769046     0.001136125980    -0.001382645873
       6        0.000881896526    -0.001288475880    -0.000711570857
       7       -0.000005791038    -0.000001287839    -0.000002249526
       8        0.000005421834     0.000008373029     0.000005833474
       9        0.000720708550    -0.001180248657     0.000978420293
      10       -0.000001633564     0.000002574030     0.000001557945
      11        0.000007944932     0.000001173514    -0.000005194488
      12        0.000001106211    -0.000002033179     0.000000375854
      13        0.000003687429     0.000005310904     0.000003495055
      14       -0.000004282778    -0.000005199050    -0.000002123010
      15       -0.000001067684     0.000000673985     0.000000471738
      16       -0.000002516615    -0.000002509637     0.000001362297

  **** Optimization is complete! (in 10 steps) ****
    Final optimized geometry and variables:
    Molecular point group: c1

    Geometry (in Angstrom), charge = 0, multiplicity = 1:

    H            0.724789362559     1.496131881723    -1.171339178014
    C            1.132896765180     1.171820511782    -0.207534607537
    C            1.317080063994    -0.312600255793    -0.040159345613
    O            1.419759339665     1.976717447353     0.610363875059
    C            0.018371937953    -1.162244163103    -0.112214546626
    H            1.832925573541    -0.476520865445     0.895207894332
    H            1.991949650980    -0.623482100917    -0.833186269896
    C           -1.301394468544    -0.390983221000    -0.166449503437
    H            0.073307693359    -1.834607839221    -0.960621114315
    H           -0.002240971668    -1.801702459873     0.762706993293
    C           -2.510057699556    -1.319209940203    -0.116810659616
    H           -1.351940165876     0.203774063015    -1.072942612922
    H           -1.350832298957     0.307554719953     0.663446242452
    H           -2.503691621339    -2.015333584735    -0.948882481025
    H           -3.435203127429    -0.757183359154    -0.162634893775
    H           -2.519573009745    -1.899540077815     0.799426875568

  Mulliken Charges: (a.u.)
   Center  Symbol    Alpha    Beta     Spin     Total
       1     H     0.46178  0.46178  0.00000  0.07644
       2     C     2.90527  2.90527  0.00000  0.18945
       3     C     3.08513  3.08513  0.00000 -0.17026
       4     O     4.16799  4.16799  0.00000 -0.33598
       5     C     3.10071  3.10071  0.00000 -0.20141
       6     H     0.44148  0.44148  0.00000  0.11704
       7     H     0.44788  0.44788  0.00000  0.10424
       8     C     3.09619  3.09619  0.00000 -0.19238
       9     H     0.44765  0.44765  0.00000  0.10469
      10     H     0.44655  0.44655  0.00000  0.10690
      11     C     3.15076  3.15076  0.00000 -0.30151
      12     H     0.45160  0.45160  0.00000  0.09681
      13     H     0.44325  0.44325  0.00000  0.11350
      14     H     0.45474  0.45474  0.00000  0.09053
      15     H     0.44574  0.44574  0.00000  0.10852
      16     H     0.45329  0.45329  0.00000  0.09342

   Total alpha = 24.00000, Total beta = 24.00000, Total charge =  0.00000

*** Psi4 exiting successfully. Buy a developer a beer!
