  ==> Input File <==

--------------------------------------------------------------------------
set {
	reference rhf
	basis 6-31G*
}

set_num_threads( 4 )
memory 2 gb

molecule MOL {
0 1

H	 -2.595242	 0.949696	 1.051696
C	 -1.997998	 1.775142	 1.433899
O	 -0.636520	 1.525248	 1.295087
H	 -2.225916	 2.665346	 0.864047
H	 -2.270173	 1.944892	 2.474829
C	 -0.189637	 0.401748	 1.985952
C	 1.270121	 0.170869	 1.672892
H	 -0.307144	 0.547151	 3.060543
H	 -0.760981	 -0.479769	 1.702228
O	 1.392611	 -0.295398	 0.366430
H	 1.816716	 1.102530	 1.804228
H	 1.676098	 -0.558985	 2.374454
C	 2.706965	 -0.449871	 -0.062409
H	 2.756559	 -0.644779	 -1.131878
H	 3.305899	 0.433456	 0.155466
H	 3.125548	 -1.294566	 0.467107

	symmetry c1
}
set optking {
	frozen_dihedral = ("
		7 10 13 14
	")
}

ee = optimize('scf')
oeprop('DIPOLE', 'QUADRUPOLE', 'MULLIKEN_CHARGES')
f=open( 'psi4out.xyz', 'w' )
f.write( "16  " )
f.write( str(ee) + "\n" )
f.write( MOL.save_string_xyz() )
f.close()
--------------------------------------------------------------------------

    Molecular point group: c1
  Charge       = 0
  Multiplicity = 1
  Basis Set: 6-31G*
  Basis Set:
  @DF-RHF Final Energy:  -306.97622246707795
    Total Energy =                       -306.9762224670780029
    Molecular point group: c1
  Basis Set: 6-31G*
  Basis Set:
  Basis Set: 6-31G*
  Basis Set:
  @DF-RHF Final Energy:  -306.97718259132330
    Total Energy =                       -306.9771825913230714
  Basis Set: 6-31G*
  Basis Set:
  Basis Set: 6-31G*
  Basis Set:
  @DF-RHF Final Energy:  -306.97745441663187
    Total Energy =                       -306.9774544166317582
  Basis Set: 6-31G*
  Basis Set:
  Basis Set: 6-31G*
  Basis Set:
  @DF-RHF Final Energy:  -306.97745543907320
    Total Energy =                       -306.9774554390730259
  Basis Set: 6-31G*
  Basis Set:
  Charge       = 0
  Multiplicity = 1
  Basis Set: 6-31G*
  Basis Set:

    Orbital Energies (a.u.)
    -----------------------

    Doubly Occupied:

       1A    -20.553544     2A    -20.553342     3A    -11.269084
       4A    -11.268419     5A    -11.263530     6A    -11.263485
       7A     -1.388096     8A     -1.370441     9A     -1.030831
      10A     -0.936100    11A     -0.891952    12A     -0.823998
      13A     -0.683953    14A     -0.680413    15A     -0.656825
      16A     -0.635983    17A     -0.629472    18A     -0.597185
      19A     -0.551208    20A     -0.535050    21A     -0.508994
      22A     -0.477251    23A     -0.462542    24A     -0.419720
      25A     -0.410346

  @DF-RHF Final Energy:  -306.97745578548506

   => Energetics <=

    Nuclear Repulsion Energy =            258.8146014529115746
    One-Electron Energy =                -931.8605866450629946
    Two-Electron Energy =                 366.0685294066662436
    DFT Exchange-Correlation Energy =       0.0000000000000000
    Empirical Dispersion Energy =           0.0000000000000000
    PCM Polarization Energy =               0.0000000000000000
    EFP Energy =                            0.0000000000000000
    Total Energy =                       -306.9774557854851764
    Molecular point group: c1
  Basis Set: 6-31G*
  Basis Set:

  -Total Gradient:
     Atom            X                  Y                   Z
    ------   -----------------  -----------------  -----------------
       1       -0.000000842305     0.000000230207     0.000000112358
       2        0.000000653322    -0.000000556588    -0.000001580492
       3       -0.000006512869    -0.000001773188    -0.000003449250
       4       -0.000000253281     0.000000150089     0.000000033182
       5        0.000000502625    -0.000000164944     0.000000254322
       6        0.000005088510     0.000008625647     0.000008221165
       7        0.000009762518     0.001174119062    -0.000400221006
       8       -0.000003314015    -0.000000525808     0.000003752980
       9        0.000003973933     0.000004764413    -0.000002782320
      10        0.000008437513    -0.001309974664     0.000512099312
      11       -0.000004516820    -0.000002367655    -0.000004146240
      12        0.000003190469    -0.000002237716    -0.000006345491
      13       -0.000088575311    -0.001387402292     0.000148219025
      14        0.000091804400     0.001513711046    -0.000260844350
      15       -0.000011301672     0.000001399915     0.000003459223
      16       -0.000008097016     0.000002002477     0.000003217580

  **** Optimization is complete! (in 5 steps) ****
    Final optimized geometry and variables:
    Molecular point group: c1

    Geometry (in Angstrom), charge = 0, multiplicity = 1:

    H           -3.016995529459     0.432004238110    -0.070760723169
    C           -2.419792698472     1.255621370556     0.315444702676
    O           -1.058125390868     1.002707584758     0.183648299379
    H           -2.642738356219     2.147015173162    -0.254497360024
    H           -2.696701947094     1.424596563747     1.355190498656
    C           -0.617476070720    -0.122501955218     0.875838990065
    C            0.843436621137    -0.356672006840     0.570364989848
    H           -0.740487537361     0.022034702683     1.949929481919
    H           -1.189602609278    -1.002169847431     0.588213716029
    O            0.971912659971    -0.817508159390    -0.737484751116
    H            1.392008371695     0.572764207668     0.706977652651
    H            1.242829071116    -1.089329215635     1.273008114724
    C            2.286870676137    -0.977247247684    -1.163876004753
    H            2.265082416649    -1.161918507598    -2.229082963029
    H            2.875110586974    -0.079647623162    -0.983395642372
    H            2.771960320496    -1.813709683146    -0.663373243908

  Mulliken Charges: (a.u.)
   Center  Symbol    Alpha    Beta     Spin     Total
       1     H     0.42808  0.42808  0.00000  0.14385
       2     C     3.07949  3.07949  0.00000 -0.15899
       3     O     4.30089  4.30089  0.00000 -0.60177
       4     H     0.41129  0.41129  0.00000  0.17742
       5     H     0.43189  0.43189  0.00000  0.13623
       6     C     2.99340  2.99340  0.00000  0.01319
       7     C     2.99325  2.99325  0.00000  0.01350
       8     H     0.43227  0.43227  0.00000  0.13547
       9     H     0.42276  0.42276  0.00000  0.15449
      10     O     4.30126  4.30126  0.00000 -0.60251
      11     H     0.42247  0.42247  0.00000  0.15506
      12     H     0.43255  0.43255  0.00000  0.13490
      13     C     3.07910  3.07910  0.00000 -0.15819
      14     H     0.41127  0.41127  0.00000  0.17747
      15     H     0.42944  0.42944  0.00000  0.14113
      16     H     0.43061  0.43061  0.00000  0.13878

   Total alpha = 25.00000, Total beta = 25.00000, Total charge = -0.00000
