  ==> Input File <==

--------------------------------------------------------------------------
set {
	reference rhf
	basis 6-31G*
}

set_num_threads( 1 )
memory 2 gb

molecule MOL {
0 1

H	 3.276176	 0.174363	 -0.109463
N	 2.434251	 -0.367735	 -0.081097
C	 1.267428	 0.496480	 0.024474
H	 2.501951	 -0.965776	 0.720575
C	 -0.016086	 -0.325158	 -0.029487
H	 1.288818	 1.183521	 -0.816092
H	 1.267576	 1.109062	 0.929528
C	 -1.282277	 0.529072	 0.046735
H	 -0.012495	 -0.908639	 -0.945788
H	 -0.015903	 -1.041248	 0.791956
C	 -2.219119	 0.310562	 -1.140818
H	 -1.005345	 1.580148	 0.097096
H	 -1.814722	 0.309440	 0.969893
H	 -1.727007	 0.555467	 -2.077604
H	 -3.106920	 0.930223	 -1.061127
H	 -2.542496	 -0.724920	 -1.199350

	symmetry c1
}
set optking {
	frozen_dihedral = ("
		6 3 5 9,
		1 2 3 6
	")
}

ee = energy('scf')
oeprop('DIPOLE', 'QUADRUPOLE', 'MULLIKEN_CHARGES')
f=open( 'psi4out.xyz', 'w' )
f.write( "16  " )
f.write( str(ee) + "\n" )
f.write( MOL.save_string_xyz() )
f.close()
--------------------------------------------------------------------------

    Molecular point group: c1

    Geometry (in Angstrom), charge = 0, multiplicity = 1:

       Center              X                  Y                   Z               Mass
    ------------   -----------------  -----------------  -----------------  -----------------
           H          3.205287369302     0.048476728602     0.123762669900     1.007825032070
           N          2.363362369302    -0.493621271398     0.152128669900    14.003074004780
           C          1.196539369302     0.370593728602     0.257699669900    12.000000000000
           H          2.431062369302    -1.091662271398     0.953800669900     1.007825032070
           C         -0.086974630698    -0.451044271398     0.203738669900    12.000000000000
           H          1.217929369302     1.057634728602    -0.582866330100     1.007825032070
           H          1.196687369302     0.983175728602     1.162753669900     1.007825032070
           C         -1.353165630698     0.403185728602     0.279960669900    12.000000000000
           H         -0.083383630698    -1.034525271398    -0.712562330100     1.007825032070
           H         -0.086791630698    -1.167134271398     1.025181669900     1.007825032070
           C         -2.290007630698     0.184675728602    -0.907592330100    12.000000000000
           H         -1.076233630698     1.454261728602     0.330321669900     1.007825032070
           H         -1.885610630698     0.183553728602     1.203118669900     1.007825032070
           H         -1.797895630698     0.429580728602    -1.844378330100     1.007825032070
           H         -3.177808630698     0.804336728602    -0.827901330100     1.007825032070
           H         -2.613384630698    -0.850806271398    -0.966124330100     1.007825032070

  Charge       = 0
  Multiplicity = 1
  Basis Set: 6-31G*
  Basis Set:

    Orbital Energies (a.u.)
    -----------------------

    Doubly Occupied:

       1A    -15.532418     2A    -11.240471     3A    -11.213540
       4A    -11.208013     5A    -11.207377     6A     -1.176712
       7A     -1.059368     8A     -0.957211     9A     -0.846705
      10A     -0.790008    11A     -0.662706    12A     -0.625978
      13A     -0.618741    14A     -0.581072    15A     -0.554941
      16A     -0.527743    17A     -0.502630    18A     -0.471342
      19A     -0.461926    20A     -0.455295    21A     -0.381280

  @DF-RHF Final Energy:  -212.31155776842945

   => Energetics <=

    Nuclear Repulsion Energy =            187.0548824859187107
    One-Electron Energy =                -656.5820713648222409
    Two-Electron Energy =                 257.2156311104739075
    DFT Exchange-Correlation Energy =       0.0000000000000000
    Empirical Dispersion Energy =           0.0000000000000000
    PCM Polarization Energy =               0.0000000000000000
    EFP Energy =                            0.0000000000000000
    Total Energy =                       -212.3115577684296227

  Mulliken Charges: (a.u.)
   Center  Symbol    Alpha    Beta     Spin     Total
       1     H     0.33260  0.33260  0.00000  0.33480
       2     N     3.92189  3.92189  0.00000 -0.84378
       3     C     3.06361  3.06361  0.00000 -0.12721
       4     H     0.33530  0.33530  0.00000  0.32941
       5     C     3.15365  3.15365  0.00000 -0.30731
       6     H     0.42074  0.42074  0.00000  0.15852
       7     H     0.43407  0.43407  0.00000  0.13187
       8     C     3.15829  3.15829  0.00000 -0.31658
       9     H     0.41023  0.41023  0.00000  0.17953
      10     H     0.42537  0.42537  0.00000  0.14926
      11     C     3.23972  3.23972  0.00000 -0.47944
      12     H     0.42139  0.42139  0.00000  0.15723
      13     H     0.42047  0.42047  0.00000  0.15906
      14     H     0.42079  0.42079  0.00000  0.15842
      15     H     0.42118  0.42118  0.00000  0.15765
      16     H     0.42071  0.42071  0.00000  0.15859

   Total alpha = 21.00000, Total beta = 21.00000, Total charge =  0.00000
