  ==> Input File <==

--------------------------------------------------------------------------
set {
	reference rhf
	basis 6-31G*
}

set_num_threads( 4 )
memory 2 gb

molecule MOL {
0 1

O	 -2.439739	 -0.935931	 -0.423848
C	 -1.921153	 0.064240	 -0.045697
C	 -2.624470	 1.379923	 0.150949
O	 -0.632575	 0.154573	 0.251549
H	 -2.168117	 2.136577	 -0.476876
H	 -3.669540	 1.273223	 -0.098610
H	 -2.519365	 1.700893	 1.180846
C	 0.160891	 -1.019931	 0.106212
C	 1.589627	 -0.672828	 0.480843
H	 0.089836	 -1.367806	 -0.916050
H	 -0.238459	 -1.792301	 0.749618
C	 2.246377	 0.346236	 -0.452210
H	 2.163194	 -1.597435	 0.473358
H	 1.604769	 -0.303424	 1.502885
C	 1.257910	 0.951427	 -1.448040
H	 2.692937	 1.140736	 0.142309
H	 3.058558	 -0.131229	 -0.990492
H	 1.747521	 1.669402	 -2.098291
H	 0.448985	 1.465977	 -0.937005
H	 0.815760	 0.183903	 -2.076921

	symmetry c1
}
set optking {
	frozen_dihedral = ("
		16 12 9 8
	")
}

ee = optimize('scf')
oeprop('DIPOLE', 'QUADRUPOLE', 'MULLIKEN_CHARGES')
f=open( 'psi4out.xyz', 'w' )
f.write( "20  " )
f.write( str(ee) + "\n" )
f.write( MOL.save_string_xyz() )
f.close()
--------------------------------------------------------------------------

    Molecular point group: c1
  Charge       = 0
  Multiplicity = 1
  Basis Set: 6-31G*
  Basis Set:
  @DF-RHF Final Energy:  -383.92660002825767
    Total Energy =                       -383.9266000282575533
    Molecular point group: c1
  Basis Set: 6-31G*
  Basis Set:
  Basis Set: 6-31G*
  Basis Set:
  @DF-RHF Final Energy:  -383.93296434052968
    Total Energy =                       -383.9329643405297929
  Basis Set: 6-31G*
  Basis Set:
  Basis Set: 6-31G*
  Basis Set:
  @DF-RHF Final Energy:  -383.93479341826423
    Total Energy =                       -383.9347934182642348
  Basis Set: 6-31G*
  Basis Set:
  Basis Set: 6-31G*
  Basis Set:
  @DF-RHF Final Energy:  -383.93542344214001
    Total Energy =                       -383.9354234421405181
  Basis Set: 6-31G*
  Basis Set:
  @DF-RHF Final Energy:  -383.93458842522665
    Total Energy =                       -383.9345884252263659
  @DF-RHF Final Energy:  -383.93565638337554
    Total Energy =                       -383.9356563833757718
  Basis Set: 6-31G*
  Basis Set:
  @DF-RHF Final Energy:  -383.93575486876409
    Total Energy =                       -383.9357548687642065
  Basis Set: 6-31G*
  Basis Set:
  Basis Set: 6-31G*
  Basis Set:
  @DF-RHF Final Energy:  -383.93576331160324
    Total Energy =                       -383.9357633116032957
  Basis Set: 6-31G*
  Basis Set:
  Basis Set: 6-31G*
  Basis Set:
  @DF-RHF Final Energy:  -383.93576510750688
    Total Energy =                       -383.9357651075071090
  Basis Set: 6-31G*
  Basis Set:
  Charge       = 0
  Multiplicity = 1
  Basis Set: 6-31G*
  Basis Set:

    Orbital Energies (a.u.)
    -----------------------

    Doubly Occupied:

       1A    -20.601627     2A    -20.544089     3A    -11.374456
       4A    -11.282312     5A    -11.233533     6A    -11.226287
       7A    -11.222749     8A    -11.210444     9A     -1.467861
      10A     -1.362087    11A     -1.081010    12A     -1.025858
      13A     -0.979783    14A     -0.892569    15A     -0.799222
      16A     -0.774824    17A     -0.689385    18A     -0.687825
      19A     -0.663314    20A     -0.626921    21A     -0.611317
      22A     -0.580611    23A     -0.569844    24A     -0.555855
      25A     -0.546884    26A     -0.526332    27A     -0.520435
      28A     -0.478176    29A     -0.474337    30A     -0.466114
      31A     -0.446331    32A     -0.437469

  @DF-RHF Final Energy:  -383.93576516867944

   => Energetics <=

    Nuclear Repulsion Energy =            394.2411655946147562
    One-Electron Energy =               -1304.4341458537171548
    Two-Electron Energy =                 526.2572150904231876
    DFT Exchange-Correlation Energy =       0.0000000000000000
    Empirical Dispersion Energy =           0.0000000000000000
    PCM Polarization Energy =               0.0000000000000000
    EFP Energy =                            0.0000000000000000
    Total Energy =                       -383.9357651686791542
    Molecular point group: c1
  Basis Set: 6-31G*
  Basis Set:

  -Total Gradient:
     Atom            X                  Y                   Z
    ------   -----------------  -----------------  -----------------
       1       -0.000016217523    -0.000008323005    -0.000001444585
       2        0.000016901540     0.000006606904     0.000010947156
       3        0.000003380318    -0.000000256912    -0.000013727435
       4       -0.000010165317     0.000018144042     0.000017063587
       5        0.000000392312     0.000001229476     0.000004086030
       6        0.000000930796    -0.000002259624    -0.000000037846
       7       -0.000000805659    -0.000002882251     0.000002945716
       8       -0.000217387960     0.000519876966     0.000322845036
       9        0.000171275234    -0.000680181177    -0.000533070739
      10        0.000005719967    -0.000005353741     0.000005681980
      11       -0.000001603287     0.000002057462     0.000000845240
      12        0.000784315708    -0.000344419794     0.000304863842
      13       -0.000007431119    -0.000000116653     0.000000442402
      14        0.000001900350     0.000003553433    -0.000000755253
      15        0.000000787186     0.000002091645    -0.000001311696
      16       -0.000731134310     0.000489873208    -0.000119644868
      17        0.000000157689    -0.000003719085     0.000003706067
      18        0.000000252375     0.000000990716    -0.000000828581
      19       -0.000000140882     0.000001497379    -0.000004051236
      20       -0.000001127419     0.000001591009     0.000001445181

  **** Optimization is complete! (in 10 steps) ****
    Final optimized geometry and variables:
    Molecular point group: c1

    Geometry (in Angstrom), charge = 0, multiplicity = 1:

    O           -2.180413017918    -1.011564661829    -0.195093218466
    C           -1.687292706848    -0.005722059769     0.201966896508
    C           -2.434391644393     1.272330247381     0.472458664535
    O           -0.394078050090     0.123945539776     0.462129345708
    H           -2.046629207136     2.062999497085    -0.159811192231
    H           -3.485901411675     1.125742826349     0.275718987799
    H           -2.286562299717     1.573515480897     1.502974842318
    C            0.436317577160    -1.014955685698     0.249516969464
    C            1.861983030281    -0.653420591853     0.630979419343
    H            0.344869009855    -1.333490577280    -0.778879846404
    H            0.076916029442    -1.820889069638     0.875096630932
    C            2.652929327024     0.299129272282    -0.308081850812
    H            2.404015571565    -1.590815122864     0.718668012119
    H            1.827039711007    -0.235128772908     1.631580237217
    C            1.886515603273     0.950476079911    -1.463379832761
    H            3.084856250634     1.092022277212     0.294074204029
    H            3.493112445427    -0.246319026840    -0.727383832530
    H            2.561062927606     1.576362260018    -2.039469141759
    H            1.075544786122     1.573513519225    -1.107905086300
    H            1.471042456239     0.214593271731    -2.144419425223

  Mulliken Charges: (a.u.)
   Center  Symbol    Alpha    Beta     Spin     Total
       1     O     4.28340  4.28340  0.00000 -0.56681
       2     C     2.61898  2.61898  0.00000  0.76204
       3     C     3.28196  3.28196  0.00000 -0.56393
       4     O     4.30831  4.30831  0.00000 -0.61663
       5     H     0.40077  0.40077  0.00000  0.19845
       6     H     0.39679  0.39679  0.00000  0.20642
       7     H     0.40065  0.40065  0.00000  0.19870
       8     C     3.00636  3.00636  0.00000 -0.01272
       9     C     3.16839  3.16839  0.00000 -0.33679
      10     H     0.40854  0.40854  0.00000  0.18291
      11     H     0.40810  0.40810  0.00000  0.18380
      12     C     3.15596  3.15596  0.00000 -0.31193
      13     H     0.41555  0.41555  0.00000  0.16891
      14     H     0.41114  0.41114  0.00000  0.17773
      15     C     3.24493  3.24493  0.00000 -0.48986
      16     H     0.41735  0.41735  0.00000  0.16531
      17     H     0.41941  0.41941  0.00000  0.16117
      18     H     0.41924  0.41924  0.00000  0.16151
      19     H     0.41234  0.41234  0.00000  0.17532
      20     H     0.42180  0.42180  0.00000  0.15640

   Total alpha = 32.00000, Total beta = 32.00000, Total charge =  0.00000
