  ==> Input File <==

--------------------------------------------------------------------------
set {
	reference rhf
	basis 6-31G*
}

set_num_threads( 4 )
memory 2 gb

molecule MOL {
0 1

H	 2.591676	 2.013956	 0.335017
O	 3.341076	 1.666752	 -0.126416
C	 3.569581	 0.339145	 0.272707
C	 2.539767	 -0.640285	 -0.279495
H	 4.553106	 0.084646	 -0.100901
H	 3.608576	 0.269204	 1.359154
C	 1.115811	 -0.397273	 0.226630
H	 2.556196	 -0.582511	 -1.364741
H	 2.852081	 -1.648031	 -0.010655
C	 0.819708	 -1.134361	 1.535768
H	 0.407634	 -0.711668	 -0.534951
H	 0.962062	 0.671567	 0.375900
C	 -0.565345	 -0.857217	 2.131720
H	 0.935836	 -2.205082	 1.377914
H	 1.572540	 -0.853161	 2.269165
C	 -1.740745	 -1.377906	 1.299977
H	 -0.610170	 -1.313148	 3.118601
H	 -0.681177	 0.214104	 2.288854
C	 -3.093387	 -1.171675	 1.985007
H	 -1.597812	 -2.439166	 1.101467
H	 -1.759823	 -0.886426	 0.330242
C	 -4.268931	 -1.684752	 1.154036
H	 -3.088124	 -1.673289	 2.950327
H	 -3.233684	 -0.112913	 2.192916
H	 -4.174620	 -2.748873	 0.956612
H	 -5.212580	 -1.526156	 1.666880
H	 -4.324036	 -1.175678	 0.195824

	symmetry c1
}
set optking {
	frozen_dihedral = ("
		10 7 4 8
	")
}

ee = optimize('scf')
oeprop('DIPOLE', 'QUADRUPOLE', 'MULLIKEN_CHARGES')
f=open( 'psi4out.xyz', 'w' )
f.write( "27  " )
f.write( str(ee) + "\n" )
f.write( MOL.save_string_xyz() )
f.close()
--------------------------------------------------------------------------

    Molecular point group: c1
  Charge       = 0
  Multiplicity = 1
  Basis Set: 6-31G*
  Basis Set:
  @DF-RHF Final Energy:  -388.27819887628738
    Total Energy =                       -388.2781988762868650
    Molecular point group: c1
  Basis Set: 6-31G*
  Basis Set:
  Basis Set: 6-31G*
  Basis Set:
  @DF-RHF Final Energy:  -388.27845467521837
    Total Energy =                       -388.2784546752183132
  Basis Set: 6-31G*
  Basis Set:
  Basis Set: 6-31G*
  Basis Set:
  @DF-RHF Final Energy:  -388.27864110762442
    Total Energy =                       -388.2786411076249351
  Basis Set: 6-31G*
  Basis Set:
  Basis Set: 6-31G*
  Basis Set:
  @DF-RHF Final Energy:  -388.27865255134816
    Total Energy =                       -388.2786525513481592
  Basis Set: 6-31G*
  Basis Set:
  Basis Set: 6-31G*
  Basis Set:
  @DF-RHF Final Energy:  -388.27865528942965
    Total Energy =                       -388.2786552894297074
  Basis Set: 6-31G*
  Basis Set:
  Charge       = 0
  Multiplicity = 1
  Basis Set: 6-31G*
  Basis Set:

    Orbital Energies (a.u.)
    -----------------------

    Doubly Occupied:

       1A    -20.551677     2A    -11.267050     3A    -11.220683
       4A    -11.219012     5A    -11.217149     6A    -11.216688
       7A    -11.215476     8A    -11.214998     9A    -11.209791
      10A     -1.358626    11A     -1.096000    12A     -1.061306
      13A     -1.011003    14A     -0.947623    15A     -0.891516
      16A     -0.824860    17A     -0.800332    18A     -0.776090
      19A     -0.696606    20A     -0.647371    21A     -0.638353
      22A     -0.609679    23A     -0.607023    24A     -0.586157
      25A     -0.573698    26A     -0.560946    27A     -0.542535
      28A     -0.525747    29A     -0.511131    30A     -0.495400
      31A     -0.488018    32A     -0.473727    33A     -0.468826
      34A     -0.461569    35A     -0.448985    36A     -0.439791
      37A     -0.425350

  @DF-RHF Final Energy:  -388.27865588280423

   => Energetics <=

    Nuclear Repulsion Energy =            460.5129905855195034
    One-Electron Energy =               -1438.9817047253873170
    Two-Electron Energy =                 590.1900582570631286
    DFT Exchange-Correlation Energy =       0.0000000000000000
    Empirical Dispersion Energy =           0.0000000000000000
    PCM Polarization Energy =               0.0000000000000000
    EFP Energy =                            0.0000000000000000
    Total Energy =                       -388.2786558828047419
    Molecular point group: c1
  Basis Set: 6-31G*
  Basis Set:

  -Total Gradient:
     Atom            X                  Y                   Z
    ------   -----------------  -----------------  -----------------
       1        0.000011689423     0.000011914600     0.000011099323
       2       -0.000038534971     0.000013313314    -0.000010751117
       3        0.000001558320    -0.000028011928     0.000001933278
       4        0.000297639924     0.002922239926    -0.000234887248
       5        0.000008556250     0.000000244506     0.000002241208
       6        0.000001100608    -0.000006818785    -0.000005482085
       7        0.000745477691     0.001685839679     0.001484354047
       8       -0.000434239009    -0.002886194446    -0.000152835857
       9       -0.000004382946    -0.000003938771     0.000019348646
      10       -0.000602212362    -0.001694390835    -0.001105378441
      11       -0.000019535733    -0.000013090454    -0.000009469012
      12        0.000017454800     0.000001126781     0.000008643608
      13        0.000002621073    -0.000015214083    -0.000002149164
      14       -0.000008960933     0.000005558925    -0.000004598326
      15        0.000000035394     0.000001623140     0.000009230281
      16        0.000003704183    -0.000010474053     0.000000009526
      17        0.000004928372     0.000007841988     0.000011888432
      18        0.000007870246    -0.000003759260    -0.000017866283
      19        0.000002020889    -0.000001613823     0.000007050501
      20        0.000005928004     0.000002443284    -0.000006448061
      21       -0.000002241487     0.000008581035    -0.000005541105
      22        0.000001508566     0.000001473118    -0.000001963727
      23       -0.000001832595    -0.000000945046    -0.000002193650
      24       -0.000000520661     0.000002016812     0.000003697476
      25        0.000000099664    -0.000000162800     0.000000268034
      26        0.000000473895     0.000000945026     0.000000080578
      27       -0.000000206609    -0.000000547851    -0.000000280863

  **** Optimization is complete! (in 6 steps) ****
    Final optimized geometry and variables:
    Molecular point group: c1

    Geometry (in Angstrom), charge = 0, multiplicity = 1:

    H            2.360739189094     2.596447400264    -0.674089159668
    O            3.135944074435     2.228575826104    -1.072260981152
    C            3.336399663326     0.918914940275    -0.605181497820
    C            2.326201211780    -0.077702778067    -1.164166214756
    H            4.332335330996     0.643554637561    -0.927283105401
    H            3.333881076767     0.898420258735     0.483520721891
    C            0.883072467996     0.113762591167    -0.666599624490
    H            2.356472728840    -0.028070931486    -2.248233515002
    H            2.658673158888    -1.080956241983    -0.902117636922
    C            0.592233003373    -0.620812197863     0.646657840392
    H            0.200920307629    -0.242358340287    -1.431758436790
    H            0.660849798779     1.173790913835    -0.551187913243
    C           -0.788854700446    -0.339107655131     1.249356030727
    H            0.701442718611    -1.691023199442     0.481380469337
    H            1.347084238050    -0.352098961440     1.383217170832
    C           -1.970281995966    -0.829122993495     0.407607204275
    H           -0.838741308410    -0.812529209413     2.227730029424
    H           -0.892374357898     0.730491078605     1.426279931224
    C           -3.319754561700    -0.626331513214     1.099890480612
    H           -1.837667880659    -1.886902807748     0.184294119275
    H           -1.985665229736    -0.314622115313    -0.550017539089
    C           -4.501337010090    -1.108213650053     0.258905729646
    H           -3.317902327935    -1.150682116025     2.053083734969
    H           -3.449630777459     0.428526900773     1.332902114319
    H           -4.417700437988    -2.168300043915     0.036459040390
    H           -5.442639092028    -0.952592346919     0.776910506594
    H           -4.552647899226    -0.576172475307    -0.686898204153

  Mulliken Charges: (a.u.)
   Center  Symbol    Alpha    Beta     Spin     Total
       1     H     0.28006  0.28006  0.00000  0.43988
       2     O     4.37119  4.37119  0.00000 -0.74237
       3     C     2.99749  2.99749  0.00000  0.00502
       4     C     3.16573  3.16573  0.00000 -0.33145
       5     H     0.41431  0.41431  0.00000  0.17138
       6     H     0.43125  0.43125  0.00000  0.13750
       7     C     3.16074  3.16074  0.00000 -0.32148
       8     H     0.41202  0.41202  0.00000  0.17596
       9     H     0.42325  0.42325  0.00000  0.15350
      10     C     3.15490  3.15490  0.00000 -0.30980
      11     H     0.41439  0.41439  0.00000  0.17122
      12     H     0.43274  0.43274  0.00000  0.13451
      13     C     3.15310  3.15310  0.00000 -0.30620
      14     H     0.42174  0.42174  0.00000  0.15652
      15     H     0.42255  0.42255  0.00000  0.15489
      16     C     3.15297  3.15297  0.00000 -0.30593
      17     H     0.42120  0.42120  0.00000  0.15760
      18     H     0.42508  0.42508  0.00000  0.14984
      19     C     3.15122  3.15122  0.00000 -0.30243
      20     H     0.42420  0.42420  0.00000  0.15159
      21     H     0.42183  0.42183  0.00000  0.15635
      22     C     3.23925  3.23925  0.00000 -0.47850
      23     H     0.42298  0.42298  0.00000  0.15404
      24     H     0.42319  0.42319  0.00000  0.15361
      25     H     0.42170  0.42170  0.00000  0.15661
      26     H     0.41915  0.41915  0.00000  0.16170
      27     H     0.42178  0.42178  0.00000  0.15645

   Total alpha = 37.00000, Total beta = 37.00000, Total charge = -0.00000
