  ==> Input File <==

--------------------------------------------------------------------------
set {
	reference rhf
	basis 6-31G*
}

set_num_threads( 1 )
memory 2 gb

molecule MOL {
0 1

H	 -0.000158	 1.970498	 0.756846
O	 -0.000074	 1.880206	 -0.189275
C	 -0.000015	 0.544847	 -0.545111
C	 -1.278788	 -0.123820	 -0.051541
C	 1.278802	 -0.123718	 -0.051505
H	 -0.000001	 0.490777	 -1.623619
F	 -0.986361	 -0.999285	 0.886325
F	 -2.132533	 0.742396	 0.451597
F	 -1.880593	 -0.772324	 -1.035852
F	 2.323327	 0.466644	 -0.591854
F	 1.326242	 -1.401483	 -0.363667
F	 1.388946	 -0.015632	 1.262939

	symmetry c1
}
set optking {
	frozen_dihedral = ("
		6 3 2 1
	")
}

ee = energy('scf')
oeprop('DIPOLE', 'QUADRUPOLE', 'MULLIKEN_CHARGES')
f=open( 'psi4out.xyz', 'w' )
f.write( "12  " )
f.write( str(ee) + "\n" )
f.write( MOL.save_string_xyz() )
f.close()
--------------------------------------------------------------------------

    Molecular point group: c1

    Geometry (in Angstrom), charge = 0, multiplicity = 1:

       Center              X                  Y                   Z               Mass
    ------------   -----------------  -----------------  -----------------  -----------------
           H         -0.004563413560     1.979360197467     0.757438723951     1.007825032070
           O         -0.004479413560     1.889068197467    -0.188682276049    15.994914619560
           C         -0.004420413560     0.553709197467    -0.544518276049    12.000000000000
           C         -1.283193413560    -0.114957802533    -0.050948276049    12.000000000000
           C          1.274396586440    -0.114855802533    -0.050912276049    12.000000000000
           H         -0.004406413560     0.499639197467    -1.623026276049     1.007825032070
           F         -0.990766413560    -0.990422802533     0.886917723951    18.998403224000
           F         -2.136938413560     0.751258197467     0.452189723951    18.998403224000
           F         -1.884998413560    -0.763461802533    -1.035259276049    18.998403224000
           F          2.318921586440     0.475506197467    -0.591261276049    18.998403224000
           F          1.321836586440    -1.392620802533    -0.363074276049    18.998403224000
           F          1.384540586440    -0.006769802533     1.263531723951    18.998403224000

  Charge       = 0
  Multiplicity = 1
  Basis Set: 6-31G*
  Basis Set:

    Orbital Energies (a.u.)
    -----------------------

    Doubly Occupied:

       1A    -26.362897     2A    -26.361439     3A    -26.361066
       4A    -26.359914     5A    -26.358232     6A    -26.357893
       7A    -20.614239     8A    -11.525579     9A    -11.525449
      10A    -11.347147    11A     -1.765188    12A     -1.757914
      13A     -1.661301    14A     -1.658809    15A     -1.656735
      16A     -1.654021    17A     -1.433797    18A     -1.101229
      19A     -0.997202    20A     -0.936849    21A     -0.866368
      22A     -0.860576    23A     -0.850474    24A     -0.845778
      25A     -0.835399    26A     -0.811538    27A     -0.733142
      28A     -0.731043    29A     -0.727949    30A     -0.723311
      31A     -0.687562    32A     -0.685244    33A     -0.682995
      34A     -0.677123    35A     -0.666567    36A     -0.662568
      37A     -0.655676    38A     -0.650044    39A     -0.617793
      40A     -0.547314    41A     -0.506438

  @DF-RHF Final Energy:  -786.27045996539630

   => Energetics <=

    Nuclear Repulsion Energy =            671.7974054035870495
    One-Electron Energy =               -2430.4920079040175551
    Two-Electron Energy =                 972.4241425350346617
    DFT Exchange-Correlation Energy =       0.0000000000000000
    Empirical Dispersion Energy =           0.0000000000000000
    PCM Polarization Energy =               0.0000000000000000
    EFP Energy =                            0.0000000000000000
    Total Energy =                       -786.2704599653957303

  Mulliken Charges: (a.u.)
   Center  Symbol    Alpha    Beta     Spin     Total
       1     H     0.26781  0.26781  0.00000  0.46438
       2     O     4.36002  4.36002  0.00000 -0.72003
       3     C     3.07333  3.07333  0.00000 -0.14665
       4     C     2.42930  2.42930  0.00000  1.14139
       5     C     2.43369  2.43369  0.00000  1.13262
       6     H     0.37136  0.37136  0.00000  0.25728
       7     F     4.67696  4.67696  0.00000 -0.35391
       8     F     4.67370  4.67370  0.00000 -0.34740
       9     F     4.67946  4.67946  0.00000 -0.35892
      10     F     4.67492  4.67492  0.00000 -0.34985
      11     F     4.67606  4.67606  0.00000 -0.35213
      12     F     4.68338  4.68338  0.00000 -0.36677

   Total alpha = 41.00000, Total beta = 41.00000, Total charge =  0.00000
