  ==> Input File <==

--------------------------------------------------------------------------
set {
	reference rhf
	basis 6-31G*
}

set_num_threads( 1 )
memory 2 gb

molecule MOL {
0 1

H	 0.297609	 7.022896	 0.683831
C	 -0.699156	 6.613740	 0.551269
C	 -0.645110	 5.121000	 0.228806
H	 -1.255251	 6.794445	 1.466390
H	 -1.182577	 7.171878	 -0.245967
C	 -2.035200	 4.513186	 0.028744
H	 -0.134281	 4.599269	 1.031584
H	 -0.053025	 4.969098	 -0.672334
C	 -2.012233	 3.023308	 -0.313312
H	 -2.628610	 4.659890	 0.924280
H	 -2.541155	 5.040957	 -0.776557
C	 -1.609178	 2.120768	 0.843499
H	 -3.005026	 2.702577	 -0.625185
H	 -1.360628	 2.829482	 -1.162440
C	 -1.181045	 0.701995	 0.511084
O	 -1.643348	 2.501082	 1.975134
C	 -2.285934	 -0.139295	 -0.145128
H	 -0.861141	 0.242167	 1.438410
H	 -0.320159	 0.747191	 -0.153383
C	 -3.651768	 0.085446	 0.506485
H	 -2.346596	 0.110469	 -1.202272
H	 -2.034737	 -1.195320	 -0.088721
C	 -4.759797	 -0.746382	 -0.137905
H	 -3.908762	 1.140117	 0.445781
H	 -3.588286	 -0.154158	 1.565709
H	 -4.868882	 -0.505166	 -1.191300
H	 -4.548009	 -1.809175	 -0.062213
H	 -5.715422	 -0.564821	 0.343442

	symmetry c1
}
set optking {
	frozen_dihedral = ("
		10 6 3 2,
		16 12 15 17
	")
}

ee = energy('scf')
oeprop('DIPOLE', 'QUADRUPOLE', 'MULLIKEN_CHARGES')
f=open( 'psi4out.xyz', 'w' )
f.write( "28  " )
f.write( str(ee) + "\n" )
f.write( MOL.save_string_xyz() )
f.close()
--------------------------------------------------------------------------

    Molecular point group: c1

    Geometry (in Angstrom), charge = 0, multiplicity = 1:

       Center              X                  Y                   Z               Mass
    ------------   -----------------  -----------------  -----------------  -----------------
           H          2.360472148614     4.633108102249     0.274313309135     1.007825032070
           C          1.363707148614     4.223952102249     0.141751309135    12.000000000000
           C          1.417753148614     2.731212102249    -0.180711690865    12.000000000000
           H          0.807612148614     4.404657102249     1.056872309135     1.007825032070
           H          0.880286148614     4.782090102249    -0.655484690865     1.007825032070
           C          0.027663148614     2.123398102249    -0.380773690865    12.000000000000
           H          1.928582148614     2.209481102249     0.622066309135     1.007825032070
           H          2.009838148614     2.579310102249    -1.081851690865     1.007825032070
           C          0.050630148614     0.633520102249    -0.722829690865    12.000000000000
           H         -0.565746851386     2.270102102249     0.514762309135     1.007825032070
           H         -0.478291851386     2.651169102249    -1.186074690865     1.007825032070
           C          0.453685148614    -0.269019897751     0.433981309135    12.000000000000
           H         -0.942162851386     0.312789102249    -1.034702690865     1.007825032070
           H          0.702235148614     0.439694102249    -1.571957690865     1.007825032070
           C          0.881818148614    -1.687792897751     0.101566309135    12.000000000000
           O          0.419515148614     0.111294102249     1.565616309135    15.994914619560
           C         -0.223070851386    -2.529082897751    -0.554645690865    12.000000000000
           H          1.201722148614    -2.147620897751     1.028892309135     1.007825032070
           H          1.742704148614    -1.642596897751    -0.562900690865     1.007825032070
           C         -1.588904851386    -2.304341897751     0.096967309135    12.000000000000
           H         -0.283732851386    -2.279318897751    -1.611789690865     1.007825032070
           H          0.028126148614    -3.585107897751    -0.498238690865     1.007825032070
           C         -2.696933851386    -3.136169897751    -0.547422690865    12.000000000000
           H         -1.845898851386    -1.249670897751     0.036263309135     1.007825032070
           H         -1.525422851386    -2.543945897751     1.156191309135     1.007825032070
           H         -2.806018851386    -2.894953897751    -1.600817690865     1.007825032070
           H         -2.485145851386    -4.198962897751    -0.471730690865     1.007825032070
           H         -3.652558851386    -2.954608897751    -0.066075690865     1.007825032070

  Charge       = 0
  Multiplicity = 1
  Basis Set: 6-31G*
  Basis Set:

    Orbital Energies (a.u.)
    -----------------------

    Doubly Occupied:

       1A    -20.548663     2A    -11.322332     3A    -11.231579
       4A    -11.229934     5A    -11.228262     6A    -11.223378
       7A    -11.216856     8A    -11.215277     9A    -11.212552
      10A    -11.205898    11A     -1.393829    12A     -1.097119
      13A     -1.076832    14A     -1.019509    15A     -0.991735
      16A     -0.905881    17A     -0.875769    18A     -0.814614
      19A     -0.796695    20A     -0.719710    21A     -0.661972
      22A     -0.657208    23A     -0.631447    24A     -0.616635
      25A     -0.608958    26A     -0.583859    27A     -0.583784
      28A     -0.574304    29A     -0.550973    30A     -0.533972
      31A     -0.515694    32A     -0.507724    33A     -0.501120
      34A     -0.488444    35A     -0.477062    36A     -0.470242
      37A     -0.467164    38A     -0.462516    39A     -0.455533
      40A     -0.393735

  @DF-RHF Final Energy:  -426.16476735310789

   => Energetics <=

    Nuclear Repulsion Energy =            546.3243976383882909
    One-Electron Energy =               -1660.8409909026049718
    Two-Electron Energy =                 688.3518259111108364
    DFT Exchange-Correlation Energy =       0.0000000000000000
    Empirical Dispersion Energy =           0.0000000000000000
    PCM Polarization Energy =               0.0000000000000000
    EFP Energy =                            0.0000000000000000
    Total Energy =                       -426.1647673531058444

  Mulliken Charges: (a.u.)
   Center  Symbol    Alpha    Beta     Spin     Total
       1     H     0.41930  0.41930  0.00000  0.16141
       2     C     3.24014  3.24014  0.00000 -0.48028
       3     C     3.15635  3.15635  0.00000 -0.31270
       4     H     0.41831  0.41831  0.00000  0.16338
       5     H     0.42361  0.42361  0.00000  0.15279
       6     C     3.14898  3.14898  0.00000 -0.29795
       7     H     0.41046  0.41046  0.00000  0.17908
       8     H     0.42758  0.42758  0.00000  0.14483
       9     C     3.21253  3.21253  0.00000 -0.42505
      10     H     0.40670  0.40670  0.00000  0.18661
      11     H     0.42193  0.42193  0.00000  0.15614
      12     C     2.73503  2.73503  0.00000  0.52994
      13     H     0.40182  0.40182  0.00000  0.19636
      14     H     0.41286  0.41286  0.00000  0.17428
      15     C     3.19985  3.19985  0.00000 -0.39970
      16     O     4.26734  4.26734  0.00000 -0.53468
      17     C     3.16105  3.16105  0.00000 -0.32210
      18     H     0.40024  0.40024  0.00000  0.19952
      19     H     0.41076  0.41076  0.00000  0.17849
      20     C     3.16084  3.16084  0.00000 -0.32168
      21     H     0.42024  0.42024  0.00000  0.15952
      22     H     0.41261  0.41261  0.00000  0.17478
      23     C     3.23944  3.23944  0.00000 -0.47889
      24     H     0.42052  0.42052  0.00000  0.15896
      25     H     0.41286  0.41286  0.00000  0.17429
      26     H     0.42210  0.42210  0.00000  0.15579
      27     H     0.42036  0.42036  0.00000  0.15928
      28     H     0.41621  0.41621  0.00000  0.16758

   Total alpha = 40.00000, Total beta = 40.00000, Total charge =  0.00000
