  ==> Input File <==

--------------------------------------------------------------------------
set {
	reference rhf
	basis 6-31G*
}

set_num_threads( 1 )
memory 2 gb

molecule MOL {
0 1

H	 -4.032636	 0.833330	 -0.952450
O	 -3.395279	 0.150681	 -0.798597
C	 -2.173731	 0.724094	 -0.409226
C	 -1.177863	 -0.397191	 -0.171080
H	 -1.801871	 1.395202	 -1.182299
H	 -2.298508	 1.311141	 0.499700
C	 0.198102	 0.111031	 0.262842
H	 -1.091350	 -0.977554	 -1.085641
H	 -1.586905	 -1.063169	 0.583661
C	 1.331804	 -0.827780	 -0.158768
H	 0.361943	 1.100838	 -0.156218
H	 0.217265	 0.229072	 1.345532
C	 2.723619	 -0.410569	 0.329459
H	 1.342964	 -0.912588	 -1.244120
H	 1.116806	 -1.824343	 0.220779
C	 3.243875	 0.895854	 -0.272975
H	 3.424222	 -1.207124	 0.091250
H	 2.714788	 -0.329854	 1.414619
H	 3.251977	 0.848779	 -1.358681
H	 2.637085	 1.747371	 0.016682
H	 4.259473	 1.094070	 0.055697

	symmetry c1
}
set optking {
	frozen_dihedral = ("
		2 3 4 8,
		4 7 10 14,
		16 13 10 14,
		1 2 3 5
	")
}

ee = energy('scf')
oeprop('DIPOLE', 'QUADRUPOLE', 'MULLIKEN_CHARGES')
f=open( 'psi4out.xyz', 'w' )
f.write( "21  " )
f.write( str(ee) + "\n" )
f.write( MOL.save_string_xyz() )
f.close()
--------------------------------------------------------------------------

    Molecular point group: c1

    Geometry (in Angstrom), charge = 0, multiplicity = 1:

       Center              X                  Y                   Z               Mass
    ------------   -----------------  -----------------  -----------------  -----------------
           H         -4.072050137379     0.776347797890    -0.760728107379     1.007825032070
           O         -3.434693137379     0.093698797890    -0.606875107379    15.994914619560
           C         -2.213145137379     0.667111797890    -0.217504107379    12.000000000000
           C         -1.217277137379    -0.454173202110     0.020641892621    12.000000000000
           H         -1.841285137379     1.338219797890    -0.990577107379     1.007825032070
           H         -2.337922137379     1.254158797890     0.691421892621     1.007825032070
           C          0.158687862621     0.054048797890     0.454563892621    12.000000000000
           H         -1.130764137379    -1.034536202110    -0.893919107379     1.007825032070
           H         -1.626319137379    -1.120151202110     0.775382892621     1.007825032070
           C          1.292389862621    -0.884762202110     0.032953892621    12.000000000000
           H          0.322528862621     1.043855797890     0.035503892621     1.007825032070
           H          0.177850862621     0.172089797890     1.537253892621     1.007825032070
           C          2.684204862621    -0.467551202110     0.521180892621    12.000000000000
           H          1.303549862621    -0.969570202110    -1.052398107379     1.007825032070
           H          1.077391862621    -1.881325202110     0.412500892621     1.007825032070
           C          3.204460862621     0.838871797890    -0.081253107379    12.000000000000
           H          3.384807862621    -1.264106202110     0.282971892621     1.007825032070
           H          2.675373862621    -0.386836202110     1.606340892621     1.007825032070
           H          3.212562862621     0.791796797890    -1.166959107379     1.007825032070
           H          2.597670862621     1.690388797890     0.208403892621     1.007825032070
           H          4.220058862621     1.037087797890     0.247418892621     1.007825032070

  Charge       = 0
  Multiplicity = 1
  Basis Set: 6-31G*
  Basis Set:

    Orbital Energies (a.u.)
    -----------------------

    Doubly Occupied:

       1A    -20.551761     2A    -11.267302     3A    -11.215140
       4A    -11.214947     5A    -11.213745     6A    -11.209920
       7A    -11.208352     8A     -1.358635     9A     -1.086334
      10A     -1.033117    11A     -0.954261    12A     -0.875772
      13A     -0.807768    14A     -0.779241    15A     -0.692822
      16A     -0.657362    17A     -0.626089    18A     -0.607107
      19A     -0.581791    20A     -0.575566    21A     -0.530108
      22A     -0.524807    23A     -0.511706    24A     -0.483755
      25A     -0.480828    26A     -0.460466    27A     -0.455257
      28A     -0.443337    29A     -0.433198

  @DF-RHF Final Energy:  -310.21048909867045

   => Energetics <=

    Nuclear Repulsion Energy =            313.0405750019582456
    One-Electron Energy =               -1040.8211529657846768
    Two-Electron Energy =                 417.5700888651553555
    DFT Exchange-Correlation Energy =       0.0000000000000000
    Empirical Dispersion Energy =           0.0000000000000000
    PCM Polarization Energy =               0.0000000000000000
    EFP Energy =                            0.0000000000000000
    Total Energy =                       -310.2104890986710757

  Mulliken Charges: (a.u.)
   Center  Symbol    Alpha    Beta     Spin     Total
       1     H     0.28123  0.28123  0.00000  0.43754
       2     O     4.37171  4.37171  0.00000 -0.74341
       3     C     2.99206  2.99206  0.00000  0.01588
       4     C     3.15930  3.15930  0.00000 -0.31860
       5     H     0.43256  0.43256  0.00000  0.13487
       6     H     0.43275  0.43275  0.00000  0.13450
       7     C     3.16265  3.16265  0.00000 -0.32530
       8     H     0.41388  0.41388  0.00000  0.17223
       9     H     0.41334  0.41334  0.00000  0.17331
      10     C     3.15336  3.15336  0.00000 -0.30671
      11     H     0.42236  0.42236  0.00000  0.15529
      12     H     0.42116  0.42116  0.00000  0.15768
      13     C     3.15290  3.15290  0.00000 -0.30579
      14     H     0.42308  0.42308  0.00000  0.15384
      15     H     0.42043  0.42043  0.00000  0.15914
      16     C     3.24114  3.24114  0.00000 -0.48229
      17     H     0.42070  0.42070  0.00000  0.15860
      18     H     0.42339  0.42339  0.00000  0.15322
      19     H     0.42221  0.42221  0.00000  0.15558
      20     H     0.42064  0.42064  0.00000  0.15872
      21     H     0.41915  0.41915  0.00000  0.16170

   Total alpha = 29.00000, Total beta = 29.00000, Total charge =  0.00000
