                              Psi4 1.0.54 Driver

  ==> Input File <==

--------------------------------------------------------------------------
set {
	reference rhf
	basis cc-pvtz
}

set_num_threads( 4 )
memory 2 gb

molecule MOL {
0 1

H	 -3.316854	 1.666361	 -0.409452
C	 -2.578467	 1.104270	 0.124539
C	 -2.105997	 -0.000418	 -0.398703
H	 -2.242763	 1.463783	 1.077352
O	 -1.189946	 -0.765863	 0.237511
H	 -2.429134	 -0.365362	 -1.356578
C	 0.026572	 -0.995256	 -0.379403
C	 1.057223	 0.049888	 -0.004615
H	 -0.054361	 -1.010670	 -1.459674
H	 0.397526	 -1.952058	 -0.044198
F	 2.203233	 -0.234060	 -0.590375
F	 0.698147	 1.254887	 -0.392621
F	 1.266440	 0.094219	 1.288722

	symmetry c1
}
set optking {
	frozen_dihedral = ("
		6 3 5 7
	")
}

ee,wfn = optimize('scf', return_wfn=True)
oeprop( wfn, 'DIPOLE', 'QUADRUPOLE', 'MULLIKEN_CHARGES')
f=open( 'psi4out.xyz', 'w' )
f.write( "13  " )
f.write( str(ee) + "\n" )
f.write( MOL.save_string_xyz() )
f.close()
--------------------------------------------------------------------------

    Molecular point group: c1
  Charge       = 0
  Multiplicity = 1
  Basis Set: CC-PVTZ
  Basis Set:
  @DF-RHF Final Energy:  -527.73888522179391
    Total Energy =                       -527.7388852217943622
    Molecular point group: c1
  Basis Set: CC-PVTZ
  Basis Set:
  Basis Set: CC-PVTZ
  Basis Set:
  @DF-RHF Final Energy:  -527.73931976758035
    Total Energy =                       -527.7393197675801275
  Basis Set: CC-PVTZ
  Basis Set:
  Basis Set: CC-PVTZ
  Basis Set:
  @DF-RHF Final Energy:  -527.73943447076442
    Total Energy =                       -527.7394344707645359
  Basis Set: CC-PVTZ
  Basis Set:
  Basis Set: CC-PVTZ
  Basis Set:
  @DF-RHF Final Energy:  -527.73946404170238
    Total Energy =                       -527.7394640417026039
  Basis Set: CC-PVTZ
  Basis Set:
  Basis Set: CC-PVTZ
  Basis Set:
  @DF-RHF Final Energy:  -527.73948323534376
    Total Energy =                       -527.7394832353434140
  Basis Set: CC-PVTZ
  Basis Set:
  Basis Set: CC-PVTZ
  Basis Set:
  @DF-RHF Final Energy:  -527.73948788753944
    Total Energy =                       -527.7394878875395534
  Basis Set: CC-PVTZ
  Basis Set:
  Basis Set: CC-PVTZ
  Basis Set:
  @DF-RHF Final Energy:  -527.73948979395584
    Total Energy =                       -527.7394897939561815
  Basis Set: CC-PVTZ
  Basis Set:
  Charge       = 0
  Multiplicity = 1
  Basis Set: CC-PVTZ
  Basis Set:

    Orbital Energies (a.u.)
    -----------------------

    Doubly Occupied:

       1A    -26.337822     2A    -26.335634     3A    -26.334591
       4A    -20.596869     5A    -11.494141     6A    -11.316291
       7A    -11.294765     8A    -11.221843     9A     -1.746484
      10A     -1.642666    11A     -1.641386    12A     -1.436081
      13A     -1.083590    14A     -1.021558    15A     -0.929122
      16A     -0.840577    17A     -0.835604    18A     -0.819083
      19A     -0.796085    20A     -0.719152    21A     -0.718195
      22A     -0.693788    23A     -0.679410    24A     -0.669438
      25A     -0.657771    26A     -0.650757    27A     -0.646845
      28A     -0.586240    29A     -0.568650    30A     -0.531421
      31A     -0.484593    32A     -0.372179

  @DF-RHF Final Energy:  -527.73949050604620

   => Energetics <=

    Nuclear Repulsion Energy =            416.2822287024914090
    One-Electron Energy =               -1556.6381726942038313
    Two-Electron Energy =                 612.6164534856659429
    DFT Exchange-Correlation Energy =       0.0000000000000000
    Empirical Dispersion Energy =           0.0000000000000000
    PCM Polarization Energy =               0.0000000000000000
    EFP Energy =                            0.0000000000000000
    Total Energy =                       -527.7394905060464225
    Molecular point group: c1
  Basis Set: CC-PVTZ
  Basis Set:

  -Total Gradient:
     Atom            X                  Y                   Z
    ------   -----------------  -----------------  -----------------
       1        0.000002070574     0.000006415877     0.000008340280
       2       -0.000042826099    -0.000001547023    -0.000040398717
       3        0.003477166892     0.002849894866    -0.001296998493
       4        0.000005879503     0.000008709765     0.000022095618
       5       -0.002062890024    -0.003388004257    -0.001099358549
       6       -0.002224102530    -0.001484406630     0.001375861556
       7        0.000789216879     0.002018008774     0.001046586734
       8        0.000047899759    -0.000075726042     0.000098832768
       9        0.000005122093    -0.000006179933    -0.000021481594
      10        0.000016767472    -0.000003209337     0.000002049799
      11        0.000020326496    -0.000004119109    -0.000040205484
      12       -0.000010122086     0.000064432914    -0.000026052158
      13       -0.000024508927     0.000015730136    -0.000029271764

  **** Optimization is complete! (in 8 steps) ****
    Final optimized geometry and variables:
    Molecular point group: c1

    Geometry (in Angstrom), charge = 0, multiplicity = 1:

    H           -3.514273003142     1.517775235781    -0.413140641652
    C           -2.733032114161     1.009189517264     0.115138981669
    C           -2.192546845801    -0.065853870630    -0.399456722128
    H           -2.418903779866     1.393406234474     1.065871809941
    O           -1.267109506984    -0.812915378915     0.261138954291
    H           -2.513858988524    -0.480923136996    -1.339642067673
    C           -0.061007655496    -1.054917060376    -0.378536717942
    C            0.997315759249    -0.037964938182    -0.003093779201
    H           -0.157759053083    -1.050756629295    -1.458047341305
    H            0.301215449326    -2.022172641345    -0.062566862853
    F            2.136966065929    -0.364162498202    -0.581925158788
    F            0.687536119992     1.177878038212    -0.392586995076
    F            1.202526449092    -0.000764684207     1.292395849697

  Mulliken Charges: (a.u.)
   Center  Symbol    Alpha    Beta     Spin     Total
       1     H     0.42488  0.42488  0.00000  0.15025
       2     C     3.17144  3.17144  0.00000 -0.34287
       3     C     2.97737  2.97737  0.00000  0.04527
       4     H     0.42142  0.42142  0.00000  0.15716
       5     O     4.15737  4.15737  0.00000 -0.31474
       6     H     0.43371  0.43371  0.00000  0.13258
       7     C     3.00799  3.00799  0.00000 -0.01598
       8     C     2.67623  2.67623  0.00000  0.64754
       9     H     0.45954  0.45954  0.00000  0.08093
      10     H     0.43981  0.43981  0.00000  0.12037
      11     F     4.61338  4.61338  0.00000 -0.22676
      12     F     4.60849  4.60849  0.00000 -0.21698
      13     F     4.60838  4.60838  0.00000 -0.21676

   Total alpha = 32.00000, Total beta = 32.00000, Total charge = -0.00000

*** Psi4 exiting successfully. Buy a developer a beer!
