  ==> Input File <==

--------------------------------------------------------------------------
set {
	reference rhf
	basis 6-31G*
}

set_num_threads( 4 )
memory 2 gb

molecule MOL {
0 1

O	 0.184715	 0.737275	 -1.664699
C	 0.252356	 -0.155748	 -0.882601
C	 1.406237	 -1.122045	 -0.759747
O	 -0.698257	 -0.426125	 0.001050
C	 2.523596	 -0.848466	 -1.758562
H	 1.005226	 -2.124042	 -0.879911
H	 1.768006	 -1.068045	 0.262736
H	 2.161965	 -0.919709	 -2.777145
H	 3.325252	 -1.567784	 -1.629161
H	 2.931903	 0.145765	 -1.623975
C	 -1.853104	 0.406779	 0.000512
C	 -3.066105	 -0.499277	 -0.000959
H	 -1.828410	 1.043074	 -0.873618
H	 -1.829857	 1.042383	 0.875188
H	 -3.071820	 -1.133106	 -0.880383
H	 -3.972708	 0.097145	 -0.001528
H	 -3.073405	 -1.133813	 0.877999

	symmetry c1
}
set optking {
	frozen_dihedral = ("
		2 4 11 13
	")
}

ee = optimize('scf')
oeprop('DIPOLE', 'QUADRUPOLE', 'MULLIKEN_CHARGES')
f=open( 'psi4out.xyz', 'w' )
f.write( "17  " )
f.write( str(ee) + "\n" )
f.write( MOL.save_string_xyz() )
f.close()
--------------------------------------------------------------------------

    Molecular point group: c1
  Charge       = 0
  Multiplicity = 1
  Basis Set: 6-31G*
  Basis Set:
  @DF-RHF Final Energy:  -344.90930369800384
    Total Energy =                       -344.9093036980040097
    Molecular point group: c1
  Basis Set: 6-31G*
  Basis Set:
  Basis Set: 6-31G*
  Basis Set:
  @DF-RHF Final Energy:  -344.90958234756482
    Total Energy =                       -344.9095823475646512
  Basis Set: 6-31G*
  Basis Set:
  Basis Set: 6-31G*
  Basis Set:
  @DF-RHF Final Energy:  -344.91004628028543
    Total Energy =                       -344.9100462802852007
  Basis Set: 6-31G*
  Basis Set:
  Basis Set: 6-31G*
  Basis Set:
  @DF-RHF Final Energy:  -344.90972781061987
    Total Energy =                       -344.9097278106197564
  Basis Set: 6-31G*
  Basis Set:
  Basis Set: 6-31G*
  Basis Set:
  @DF-RHF Final Energy:  -344.91006652142562
    Total Energy =                       -344.9100665214258470
  Basis Set: 6-31G*
  Basis Set:
  Charge       = 0
  Multiplicity = 1
  Basis Set: 6-31G*
  Basis Set:

    Orbital Energies (a.u.)
    -----------------------

    Doubly Occupied:

       1A    -20.600055     2A    -20.543853     3A    -11.372804
       4A    -11.283417     5A    -11.237015     6A    -11.222143
       7A    -11.215324     8A     -1.465093     9A     -1.362494
      10A     -1.069565    11A     -1.030965    12A     -0.912626
      13A     -0.849482    14A     -0.769274    15A     -0.700662
      16A     -0.682770    17A     -0.661257    18A     -0.627667
      19A     -0.592928    20A     -0.568961    21A     -0.556083
      22A     -0.529379    23A     -0.520095    24A     -0.514403
      25A     -0.497968    26A     -0.493798    27A     -0.448358
      28A     -0.436114

  @DF-RHF Final Energy:  -344.91006707609296

   => Energetics <=

    Nuclear Repulsion Energy =            315.0220989970641199
    One-Electron Energy =               -1094.3352280629242159
    Two-Electron Energy =                 434.4030619897670817
    DFT Exchange-Correlation Energy =       0.0000000000000000
    Empirical Dispersion Energy =           0.0000000000000000
    PCM Polarization Energy =               0.0000000000000000
    EFP Energy =                            0.0000000000000000
    Total Energy =                       -344.9100670760929574
    Molecular point group: c1
  Basis Set: 6-31G*
  Basis Set:

  -Total Gradient:
     Atom            X                  Y                   Z
    ------   -----------------  -----------------  -----------------
       1        0.000003721843    -0.000025295216     0.000010994515
       2       -0.000253904645    -0.000317241555    -0.000407469905
       3       -0.000014060449     0.000002175557     0.000015026058
       4        0.000437655114     0.000630760332     0.000689605449
       5       -0.000000832046     0.000000134053    -0.000006840484
       6       -0.000005142569     0.000002988482    -0.000004811212
       7       -0.000006730924     0.000003684400    -0.000003905883
       8        0.000000701377     0.000000436128    -0.000000390662
       9        0.000001445891     0.000000684890    -0.000000546884
      10        0.000000651793     0.000001078994     0.000000705757
      11       -0.000482957345    -0.000791526558    -0.000631283067
      12       -0.000009939805     0.000012219103     0.000005119213
      13        0.000322051473     0.000481273468     0.000336507847
      14        0.000005913694    -0.000000493209    -0.000002473873
      15        0.000006305961     0.000004813267     0.000000708034
      16       -0.000006501419    -0.000006773094     0.000000448774
      17        0.000001622054     0.000001080961    -0.000001393680

  **** Optimization is complete! (in 6 steps) ****
    Final optimized geometry and variables:
    Molecular point group: c1

    Geometry (in Angstrom), charge = 0, multiplicity = 1:

    O            0.419668034597     1.020301276676    -0.955870572468
    C            0.453490262895     0.127702423692    -0.171562883788
    C            1.590399745262    -0.856261520964    -0.028067900078
    O           -0.510714347059    -0.136787353682     0.700994437750
    C            2.728949007944    -0.602446342025    -1.007962329844
    H            1.175891886009    -1.852146067477    -0.152531175939
    H            1.935268152970    -0.805167994032     1.000336069275
    H            2.384120987695    -0.670729701597    -2.032549227783
    H            3.516948659296    -1.333821409849    -0.862957314905
    H            3.150265147601     0.385655700276    -0.868519417982
    C           -1.689202885131     0.665087035680     0.719375915994
    C           -2.896662034308    -0.250194513484     0.756886069969
    H           -1.697440904055     1.310459592256    -0.143407945546
    H           -1.640592501550     1.281113305935     1.608538658401
    H           -2.945783304840    -0.857276560694    -0.140345010012
    H           -3.806275219664     0.338573876925     0.822103720746
    H           -2.853700391249    -0.910668291063     1.615406626212

  Mulliken Charges: (a.u.)
   Center  Symbol    Alpha    Beta     Spin     Total
       1     O     4.28567  4.28567  0.00000 -0.57134
       2     C     2.60595  2.60595  0.00000  0.78810
       3     C     3.20569  3.20569  0.00000 -0.41139
       4     O     4.31445  4.31445  0.00000 -0.62891
       5     C     3.23875  3.23875  0.00000 -0.47749
       6     H     0.40103  0.40103  0.00000  0.19793
       7     H     0.40060  0.40060  0.00000  0.19880
       8     H     0.41020  0.41020  0.00000  0.17959
       9     H     0.41839  0.41839  0.00000  0.16321
      10     H     0.40996  0.40996  0.00000  0.18008
      11     C     3.01087  3.01087  0.00000 -0.02174
      12     C     3.24684  3.24684  0.00000 -0.49368
      13     H     0.39445  0.39445  0.00000  0.21109
      14     H     0.41476  0.41476  0.00000  0.17048
      15     H     0.41333  0.41333  0.00000  0.17334
      16     H     0.41723  0.41723  0.00000  0.16554
      17     H     0.41182  0.41182  0.00000  0.17637

   Total alpha = 28.00000, Total beta = 28.00000, Total charge =  0.00000
