  ==> Input File <==

--------------------------------------------------------------------------
set {
	reference rhf
	basis 6-31G*
}

set_num_threads( 4 )
memory 2 gb

molecule MOL {
0 1

O	 -2.042549	 -1.228399	 -0.269030
C	 -1.653912	 -0.146171	 0.050137
C	 -0.332303	 0.024011	 0.778412
C	 -2.438579	 1.106236	 -0.272369
C	 0.845713	 -0.001731	 -0.208243
H	 -0.323783	 0.953829	 1.340327
H	 -0.235459	 -0.796807	 1.480410
C	 2.200309	 0.136118	 0.488247
H	 0.733710	 0.800019	 -0.936072
H	 0.811185	 -0.933796	 -0.764304
C	 2.452595	 1.547768	 1.016265
H	 2.258005	 -0.573703	 1.310592
H	 2.989908	 -0.136379	 -0.208062
H	 1.697283	 1.836652	 1.741595
H	 2.433269	 2.276262	 0.211053
H	 3.420757	 1.616656	 1.502006
H	 -3.277823	 0.863061	 -0.908988
H	 -1.806773	 1.843019	 -0.759671
H	 -2.802853	 1.554979	 0.648059

	symmetry c1
}
set optking {
	frozen_dihedral = ("
		11 8 5 9
	")
}

ee = optimize('scf')
oeprop('DIPOLE', 'QUADRUPOLE', 'MULLIKEN_CHARGES')
f=open( 'psi4out.xyz', 'w' )
f.write( "19  " )
f.write( str(ee) + "\n" )
f.write( MOL.save_string_xyz() )
f.close()
--------------------------------------------------------------------------

    Molecular point group: c1
  Charge       = 0
  Multiplicity = 1
  Basis Set: 6-31G*
  Basis Set:
  @DF-RHF Final Energy:  -309.06317248102607
    Total Energy =                       -309.0631724810260721
    Molecular point group: c1
  Basis Set: 6-31G*
  Basis Set:
  Basis Set: 6-31G*
  Basis Set:
  @DF-RHF Final Energy:  -309.06336913493539
    Total Energy =                       -309.0633691349351011
  Basis Set: 6-31G*
  Basis Set:
  Basis Set: 6-31G*
  Basis Set:
  @DF-RHF Final Energy:  -309.06333876059364
    Total Energy =                       -309.0633387605937514
  Basis Set: 6-31G*
  Basis Set:
  Basis Set: 6-31G*
  Basis Set:
  @DF-RHF Final Energy:  -309.06349958694511
    Total Energy =                       -309.0634995869449426
  Basis Set: 6-31G*
  Basis Set:
  Basis Set: 6-31G*
  Basis Set:
  @DF-RHF Final Energy:  -309.06332569469009
    Total Energy =                       -309.0633256946902065
  Basis Set: 6-31G*
  Basis Set:
  Basis Set: 6-31G*
  Basis Set:
  @DF-RHF Final Energy:  -309.06347111353523
    Total Energy =                       -309.0634711135351722
  Basis Set: 6-31G*
  Basis Set:
  Basis Set: 6-31G*
  Basis Set:
  @DF-RHF Final Energy:  -309.06351323102569
    Total Energy =                       -309.0635132310257518
  Basis Set: 6-31G*
  Basis Set:
  Charge       = 0
  Multiplicity = 1
  Basis Set: 6-31G*
  Basis Set:

    Orbital Energies (a.u.)
    -----------------------

    Doubly Occupied:

       1A    -20.547474     2A    -11.324558     3A    -11.230761
       4A    -11.228991     5A    -11.228246     6A    -11.225098
       7A    -11.216898     8A     -1.393227     9A     -1.091140
      10A     -1.028006    11A     -0.982385    12A     -0.898475
      13A     -0.800203    14A     -0.735181    15A     -0.658881
      16A     -0.649474    17A     -0.618499    18A     -0.606198
      19A     -0.598663    20A     -0.569766    21A     -0.552485
      22A     -0.538218    23A     -0.522268    24A     -0.497507
      25A     -0.480824    26A     -0.473275    27A     -0.464579
      28A     -0.397219

  @DF-RHF Final Energy:  -309.06351330268575

   => Energetics <=

    Nuclear Repulsion Energy =            304.2497301375620395
    One-Electron Energy =               -1021.5094879652249347
    Two-Electron Energy =                 408.1962445249773168
    DFT Exchange-Correlation Energy =       0.0000000000000000
    Empirical Dispersion Energy =           0.0000000000000000
    PCM Polarization Energy =               0.0000000000000000
    EFP Energy =                            0.0000000000000000
    Total Energy =                       -309.0635133026856352
    Molecular point group: c1
  Basis Set: 6-31G*
  Basis Set:

  -Total Gradient:
     Atom            X                  Y                   Z
    ------   -----------------  -----------------  -----------------
       1       -0.000007711187     0.000002099715    -0.000001488140
       2        0.000005752229    -0.000013211636     0.000012802274
       3        0.000005192829    -0.000001347188     0.000002125826
       4        0.000006632706     0.000005526358     0.000002302221
       5        0.000762267243    -0.000763703746    -0.001378188576
       6       -0.000006533413     0.000005512434     0.000005181320
       7       -0.000005754356     0.000000900506    -0.000005894279
       8       -0.000637378965    -0.000155138028     0.001303907402
       9       -0.000487221249     0.000707156463     0.000855960154
      10        0.000013874358    -0.000004052918    -0.000000473819
      11        0.000361366045     0.000224735597    -0.000787601961
      12       -0.000006912658     0.000001108463    -0.000001449100
      13       -0.000000953348    -0.000004052833    -0.000002879198
      14        0.000001049363     0.000003034655     0.000004541400
      15       -0.000003422520    -0.000000994318    -0.000000276130
      16       -0.000000497722    -0.000005685346    -0.000004722463
      17        0.000002517890    -0.000002283078    -0.000000294900
      18       -0.000001833504     0.000001303734    -0.000001273537
      19       -0.000000433743    -0.000000908832    -0.000002278493

  **** Optimization is complete! (in 8 steps) ****
    Final optimized geometry and variables:
    Molecular point group: c1

    Geometry (in Angstrom), charge = 0, multiplicity = 1:

    O           -1.895396463406    -1.458359893917    -0.497848683868
    C           -1.525134766380    -0.368620001754    -0.182357250147
    C           -0.214247184353    -0.174700368459     0.559497783646
    C           -2.323415331871     0.870381609265    -0.522973936120
    C            0.972125197559    -0.200657025248    -0.420402708743
    H           -0.230937773263     0.757802684440     1.114312657796
    H           -0.114165706303    -0.989951984517     1.267698251596
    C            2.337629378919    -0.071577358567     0.264198833754
    H            0.859578850773     0.602628461171    -1.146452843558
    H            0.930583335835    -1.133988268115    -0.971896752227
    C            2.642317135719     1.326365418157     0.804761581693
    H            2.408802287561    -0.800989646262     1.067503128552
    H            3.106228174901    -0.338225211894    -0.456530295563
    H            1.944125741461     1.625993361175     1.580013946128
    H            2.596373573710     2.068066011200     0.012149798375
    H            3.638396055338     1.364388346361     1.234171386454
    H           -3.150580917103     0.611251735157    -1.169036920128
    H           -1.695915545757     1.613405998393    -1.006342104303
    H           -2.706437717223     1.319228556517     0.389777475894

  Mulliken Charges: (a.u.)
   Center  Symbol    Alpha    Beta     Spin     Total
       1     O     4.26214  4.26214  0.00000 -0.52428
       2     C     2.73702  2.73702  0.00000  0.52596
       3     C     3.20148  3.20148  0.00000 -0.40297
       4     C     3.28953  3.28953  0.00000 -0.57906
       5     C     3.16303  3.16303  0.00000 -0.32605
       6     H     0.41548  0.41548  0.00000  0.16905
       7     H     0.40138  0.40138  0.00000  0.19724
       8     C     3.15387  3.15387  0.00000 -0.30774
       9     H     0.42115  0.42115  0.00000  0.15770
      10     H     0.40414  0.40414  0.00000  0.19172
      11     C     3.24202  3.24202  0.00000 -0.48403
      12     H     0.41938  0.41938  0.00000  0.16124
      13     H     0.41699  0.41699  0.00000  0.16602
      14     H     0.42112  0.42112  0.00000  0.15777
      15     H     0.42130  0.42130  0.00000  0.15741
      16     H     0.41632  0.41632  0.00000  0.16735
      17     H     0.39702  0.39702  0.00000  0.20595
      18     H     0.40983  0.40983  0.00000  0.18033
      19     H     0.40681  0.40681  0.00000  0.18639

   Total alpha = 28.00000, Total beta = 28.00000, Total charge =  0.00000
