  ==> Input File <==

--------------------------------------------------------------------------
set {
	reference rhf
	basis cc-pvtz
}

set_num_threads( 4 )
memory 2 gb

molecule MOL {
0 1

O	 0.887420	 1.823864	 0.485294
C	 0.164818	 1.636164	 1.403813
C	 -1.104136	 0.823819	 1.367559
O	 0.385614	 2.129036	 2.611581
C	 -1.413045	 0.229353	 0.001137
H	 -1.010433	 0.048833	 2.121281
H	 -1.907970	 1.469286	 1.706214
C	 -2.702562	 -0.586401	 0.000228
H	 -0.583855	 -0.394117	 -0.313935
H	 -1.482891	 1.027588	 -0.729265
C	 -3.953810	 0.284959	 -0.000782
H	 -2.717793	 -1.238567	 -0.869075
H	 -2.719108	 -1.238472	 0.869576
H	 -3.983727	 0.924403	 -0.876454
H	 -4.852989	 -0.320147	 -0.001515
H	 -3.985140	 0.924399	 0.874841
C	 1.546810	 2.914713	 2.789500
H	 2.433892	 2.339361	 2.569767
H	 1.546067	 3.216851	 3.824188
H	 1.521920	 3.782807	 2.147615

	symmetry c1
}
set optking {
	frozen_dihedral = ("
		9 5 8 12
	")
}

ee = optimize('scf')
oeprop('DIPOLE', 'QUADRUPOLE', 'MULLIKEN_CHARGES')
f=open( 'psi4out.xyz', 'w' )
f.write( "20  " )
f.write( str(ee) + "\n" )
f.write( MOL.save_string_xyz() )
f.close()
--------------------------------------------------------------------------

    Molecular point group: c1
  Charge       = 0
  Multiplicity = 1
  Basis Set: CC-PVTZ
  Basis Set:
  @DF-RHF Final Energy:  -384.08098098087612
    Total Energy =                       -384.0809809808761202
    Molecular point group: c1
  Basis Set: CC-PVTZ
  Basis Set:
  Basis Set: CC-PVTZ
  Basis Set:
  @DF-RHF Final Energy:  -384.08122921220706
    Total Energy =                       -384.0812292122068357
  Basis Set: CC-PVTZ
  Basis Set:
  Basis Set: CC-PVTZ
  Basis Set:
  @DF-RHF Final Energy:  -384.08104754622741
    Total Energy =                       -384.0810475462277509
  Basis Set: CC-PVTZ
  Basis Set:
  Basis Set: CC-PVTZ
  Basis Set:
  @DF-RHF Final Energy:  -384.08126409424153
    Total Energy =                       -384.0812640942414191
  Basis Set: CC-PVTZ
  Basis Set:
  Charge       = 0
  Multiplicity = 1
  Basis Set: CC-PVTZ
  Basis Set:

    Orbital Energies (a.u.)
    -----------------------

    Doubly Occupied:

       1A    -20.596365     2A    -20.534207     3A    -11.364696
       4A    -11.278524     5A    -11.233751     6A    -11.218550
       7A    -11.217357     8A    -11.210669     9A     -1.472272
      10A     -1.365860    11A     -1.089674    12A     -1.023963
      13A     -0.968914    14A     -0.894114    15A     -0.801452
      16A     -0.767203    17A     -0.703568    18A     -0.685925
      19A     -0.676299    20A     -0.633251    21A     -0.612897
      22A     -0.596305    23A     -0.571696    24A     -0.549361
      25A     -0.532812    26A     -0.524622    27A     -0.511405
      28A     -0.475368    29A     -0.473300    30A     -0.467913
      31A     -0.459033    32A     -0.440707

  @DF-RHF Final Energy:  -384.08126574496760

   => Energetics <=

    Nuclear Repulsion Energy =            384.9698011005402805
    One-Electron Energy =               -1286.1980746811000245
    Two-Electron Energy =                 517.1470078355920350
    DFT Exchange-Correlation Energy =       0.0000000000000000
    Empirical Dispersion Energy =           0.0000000000000000
    PCM Polarization Energy =               0.0000000000000000
    EFP Energy =                            0.0000000000000000
    Total Energy =                       -384.0812657449677090
    Molecular point group: c1
  Basis Set: CC-PVTZ
  Basis Set:

  -Total Gradient:
     Atom            X                  Y                   Z
    ------   -----------------  -----------------  -----------------
       1        0.000021955483     0.000010741240    -0.000024358300
       2       -0.000028646870    -0.000007822678     0.000021535815
       3        0.000009373481    -0.000001021243     0.000035214431
       4        0.000000276958    -0.000004679106    -0.000017419478
       5        0.000504219831    -0.000854403684     0.002301917469
       6       -0.000012167096    -0.000009318140    -0.000009150588
       7        0.000002004651    -0.000005834426    -0.000008645728
       8       -0.001040670453     0.001655198558    -0.001551444818
       9       -0.000281108279     0.000489007513    -0.001710007929
      10       -0.000000246544    -0.000011168586     0.000009400028
      11       -0.000006476661     0.000038143640    -0.000005078277
      12        0.000787615986    -0.001278416098     0.000964334201
      13        0.000000735222     0.000010649559    -0.000006399211
      14        0.000020557581    -0.000002894691    -0.000004476679
      15        0.000008389771    -0.000017765508     0.000002207511
      16        0.000006273459    -0.000014657763    -0.000005538302
      17        0.000011612717     0.000001060108     0.000008342075
      18       -0.000001606602     0.000002806384     0.000000185012
      19        0.000000374970     0.000001812606     0.000000240835
      20       -0.000002467597    -0.000001437682    -0.000000858065

  **** Optimization is complete! (in 5 steps) ****
    Final optimized geometry and variables:
    Molecular point group: c1

    Geometry (in Angstrom), charge = 0, multiplicity = 1:

    O            1.644946218136     0.628534774591    -0.612127011612
    C            0.920588117930     0.455587515693     0.307869721718
    C           -0.358122874686    -0.341976436593     0.278832587418
    O            1.147945993931     0.954111363375     1.512229563548
    C           -0.667164070744    -0.947625342972    -1.083746955546
    H           -0.271720527746    -1.112893886302     1.037642773715
    H           -1.149382818116     0.317691632697     0.615864101396
    C           -1.961903527788    -1.763619178536    -1.109128332334
    H            0.161728265907    -1.573051277979    -1.391605598454
    H           -0.722101253016    -0.155410499769    -1.822491841381
    C           -3.236938912555    -0.924943716913    -1.114982122299
    H           -1.949903962845    -2.401874283262    -1.986188417946
    H           -1.978918792390    -2.439066603928    -0.257198814089
    H           -3.264107545531    -0.267149543795    -1.977128996275
    H           -4.115847495451    -1.557959826671    -1.154077746535
    H           -3.321057630466    -0.308649401196    -0.226995283120
    C            2.318775332980     1.726584599187     1.684364869791
    H            3.198621920729     1.138880893829     1.468248161726
    H            2.322252589014     2.035797438212     2.716965507099
    H            2.304307739796     2.590518381339     1.036569130756

  Mulliken Charges: (a.u.)
   Center  Symbol    Alpha    Beta     Spin     Total
       1     O     4.19683  4.19683  0.00000 -0.39367
       2     C     2.80468  2.80468  0.00000  0.39064
       3     C     3.10085  3.10085  0.00000 -0.20169
       4     O     4.14717  4.14717  0.00000 -0.29433
       5     C     3.08813  3.08813  0.00000 -0.17625
       6     H     0.44008  0.44008  0.00000  0.11984
       7     H     0.44002  0.44002  0.00000  0.11996
       8     C     3.09405  3.09405  0.00000 -0.18809
       9     H     0.44133  0.44133  0.00000  0.11733
      10     H     0.44757  0.44757  0.00000  0.10486
      11     C     3.14972  3.14972  0.00000 -0.29944
      12     H     0.44531  0.44531  0.00000  0.10938
      13     H     0.45689  0.45689  0.00000  0.08622
      14     H     0.45316  0.45316  0.00000  0.09368
      15     H     0.44638  0.44638  0.00000  0.10725
      16     H     0.45617  0.45617  0.00000  0.08765
      17     C     3.03784  3.03784  0.00000 -0.07568
      18     H     0.45426  0.45426  0.00000  0.09148
      19     H     0.44527  0.44527  0.00000  0.10945
      20     H     0.45430  0.45430  0.00000  0.09140

   Total alpha = 32.00000, Total beta = 32.00000, Total charge = -0.00000
