  ==> Input File <==

--------------------------------------------------------------------------
set {
	reference rhf
	basis 6-31G*
}

set_num_threads( 1 )
memory 2 gb

molecule MOL {
0 1

H	 1.305034	 -1.761945	 1.059464
O	 0.631967	 -1.188500	 0.722075
C	 1.135793	 0.118896	 0.612333
C	 0.031547	 1.023609	 0.088541
H	 1.978097	 0.145731	 -0.076648
H	 1.495485	 0.471380	 1.576427
C	 -1.134819	 0.293262	 -0.585751
H	 0.474374	 1.714721	 -0.623187
H	 -0.338529	 1.620940	 0.920081
C	 -1.917817	 -0.639439	 0.339494
H	 -0.758119	 -0.268455	 -1.433105
H	 -1.813832	 1.041889	 -0.986690
H	 -2.777680	 -1.057197	 -0.174994
H	 -1.310268	 -1.471279	 0.680599
H	 -2.283753	 -0.111424	 1.216626

	symmetry c1
}
set optking {
	frozen_dihedral = ("
		8 4 7 11,
		1 2 3 4
	")
}

ee = energy('scf')
oeprop('DIPOLE', 'QUADRUPOLE', 'MULLIKEN_CHARGES')
f=open( 'psi4out.xyz', 'w' )
f.write( "15  " )
f.write( str(ee) + "\n" )
f.write( MOL.save_string_xyz() )
f.close()
--------------------------------------------------------------------------

    Molecular point group: c1

    Geometry (in Angstrom), charge = 0, multiplicity = 1:

       Center              X                  Y                   Z               Mass
    ------------   -----------------  -----------------  -----------------  -----------------
           H          1.528812926616    -1.638727355695     0.800525477630     1.007825032070
           O          0.855745926616    -1.065282355695     0.463136477630    15.994914619560
           C          1.359571926616     0.242113644305     0.353394477630    12.000000000000
           C          0.255325926616     1.146826644305    -0.170397522370    12.000000000000
           H          2.201875926616     0.268948644305    -0.335586522370     1.007825032070
           H          1.719263926616     0.594597644305     1.317488477630     1.007825032070
           C         -0.911040073384     0.416479644305    -0.844689522370    12.000000000000
           H          0.698152926616     1.837938644305    -0.882125522370     1.007825032070
           H         -0.114750073384     1.744157644305     0.661142477630     1.007825032070
           C         -1.694038073384    -0.516221355695     0.080555477630    12.000000000000
           H         -0.534340073384    -0.145237355695    -1.692043522370     1.007825032070
           H         -1.590053073384     1.165106644305    -1.245628522370     1.007825032070
           H         -2.553901073384    -0.933979355695    -0.433932522370     1.007825032070
           H         -1.086489073384    -1.348061355695     0.421660477630     1.007825032070
           H         -2.059974073384     0.011793644305     0.957687477630     1.007825032070

  Charge       = 0
  Multiplicity = 1
  Basis Set: 6-31G*
  Basis Set:

    Orbital Energies (a.u.)
    -----------------------

    Doubly Occupied:

       1A    -20.555185     2A    -11.269136     3A    -11.211070
       4A    -11.205178     5A    -11.180621     6A     -1.365922
       7A     -1.057243     8A     -0.967685     9A     -0.856833
      10A     -0.773001    11A     -0.711831    12A     -0.651827
      13A     -0.606434    14A     -0.568170    15A     -0.538377
      16A     -0.534589    17A     -0.511254    18A     -0.468745
      19A     -0.460399    20A     -0.436772    21A     -0.423329

  @DF-RHF Final Energy:  -232.12729017887068

   => Energetics <=

    Nuclear Repulsion Energy =            196.7528624146087282
    One-Electron Energy =                -705.0529714618345452
    Two-Electron Energy =                 276.1728188683559893
    DFT Exchange-Correlation Energy =       0.0000000000000000
    Empirical Dispersion Energy =           0.0000000000000000
    PCM Polarization Energy =               0.0000000000000000
    EFP Energy =                            0.0000000000000000
    Total Energy =                       -232.1272901788698277

  Mulliken Charges: (a.u.)
   Center  Symbol    Alpha    Beta     Spin     Total
       1     H     0.28077  0.28077  0.00000  0.43846
       2     O     4.37140  4.37140  0.00000 -0.74279
       3     C     2.98926  2.98926  0.00000  0.02148
       4     C     3.17453  3.17453  0.00000 -0.34905
       5     H     0.43075  0.43075  0.00000  0.13850
       6     H     0.42856  0.42856  0.00000  0.14288
       7     C     3.14546  3.14546  0.00000 -0.29092
       8     H     0.41968  0.41968  0.00000  0.16064
       9     H     0.42032  0.42032  0.00000  0.15936
      10     C     3.24248  3.24248  0.00000 -0.48497
      11     H     0.42078  0.42078  0.00000  0.15844
      12     H     0.42433  0.42433  0.00000  0.15133
      13     H     0.43005  0.43005  0.00000  0.13989
      14     H     0.38977  0.38977  0.00000  0.22046
      15     H     0.43186  0.43186  0.00000  0.13629

   Total alpha = 21.00000, Total beta = 21.00000, Total charge =  0.00000
