  ==> Input File <==

--------------------------------------------------------------------------
set {
	reference rhf
	basis 6-31G*
}

set_num_threads( 1 )
memory 2 gb

molecule MOL {
0 1

O	 -2.646636	 -0.181562	 0.849348
C	 -2.001139	 -0.953124	 0.207116
C	 -0.889235	 -0.467034	 -0.705952
C	 -2.232257	 -2.445345	 0.292176
C	 0.379448	 -0.143569	 0.099626
H	 -1.240753	 0.430454	 -1.203197
H	 -0.666809	 -1.210119	 -1.466463
C	 1.631333	 -0.777471	 -0.511575
H	 0.482768	 0.934507	 0.149241
H	 0.263088	 -0.495696	 1.123449
C	 2.915987	 -0.544314	 0.291766
H	 1.766672	 -0.399098	 -1.523130
H	 1.471257	 -1.849544	 -0.605828
C	 3.373361	 0.914346	 0.347591
H	 3.708709	 -1.142521	 -0.150311
H	 2.780642	 -0.921148	 1.303579
H	 3.506512	 1.320010	 -0.651625
H	 4.322697	 0.999599	 0.867103
H	 2.660624	 1.545032	 0.868198
H	 -2.605046	 -2.812130	 -0.660589
H	 -2.952527	 -2.664835	 1.067946
H	 -1.301539	 -2.967627	 0.494145

	symmetry c1
}
set optking {
	frozen_dihedral = ("
		6 3 2 1,
		3 5 8 12,
		12 8 11 15
	")
}

ee = energy('scf')
oeprop('DIPOLE', 'QUADRUPOLE', 'MULLIKEN_CHARGES')
f=open( 'psi4out.xyz', 'w' )
f.write( "22  " )
f.write( str(ee) + "\n" )
f.write( MOL.save_string_xyz() )
f.close()
--------------------------------------------------------------------------

    Molecular point group: c1

    Geometry (in Angstrom), charge = 0, multiplicity = 1:

       Center              X                  Y                   Z               Mass
    ------------   -----------------  -----------------  -----------------  -----------------
           O         -2.717527095678     0.389910519308     0.731528678248    15.994914619560
           C         -2.072030095678    -0.381651480692     0.089296678248    12.000000000000
           C         -0.960126095678     0.104438519308    -0.823771321752    12.000000000000
           C         -2.303148095678    -1.873872480692     0.174356678248    12.000000000000
           C          0.308556904322     0.427903519308    -0.018193321752    12.000000000000
           H         -1.311644095678     1.001926519308    -1.321016321752     1.007825032070
           H         -0.737700095678    -0.638646480692    -1.584282321752     1.007825032070
           C          1.560441904322    -0.205998480692    -0.629394321752    12.000000000000
           H          0.411876904322     1.505979519308     0.031421678248     1.007825032070
           H          0.192196904322     0.075776519308     1.005629678248     1.007825032070
           C          2.845095904322     0.027158519308     0.173946678248    12.000000000000
           H          1.695780904322     0.172374519308    -1.640949321752     1.007825032070
           H          1.400365904322    -1.278071480692    -0.723647321752     1.007825032070
           C          3.302469904322     1.485818519308     0.229771678248    12.000000000000
           H          3.637817904322    -0.571048480692    -0.268130321752     1.007825032070
           H          2.709750904322    -0.349675480692     1.185759678248     1.007825032070
           H          3.435620904322     1.891482519308    -0.769444321752     1.007825032070
           H          4.251805904322     1.571071519308     0.749283678248     1.007825032070
           H          2.589732904322     2.116504519308     0.750378678248     1.007825032070
           H         -2.675937095678    -2.240657480692    -0.778408321752     1.007825032070
           H         -3.023418095678    -2.093362480692     0.950126678248     1.007825032070
           H         -1.372430095678    -2.396154480692     0.376325678248     1.007825032070

  Charge       = 0
  Multiplicity = 1
  Basis Set: 6-31G*
  Basis Set:

    Orbital Energies (a.u.)
    -----------------------

    Doubly Occupied:

       1A    -20.545981     2A    -11.324191     3A    -11.228785
       4A    -11.228551     5A    -11.227499     6A    -11.223959
       7A    -11.221367     8A    -11.212588     9A     -1.392216
      10A     -1.096817    11A     -1.044333    12A     -0.999579
      13A     -0.938612    14A     -0.858315    15A     -0.788205
      16A     -0.734006    17A     -0.658069    18A     -0.648264
      19A     -0.625741    20A     -0.620821    21A     -0.595965
      22A     -0.576126    23A     -0.570023    24A     -0.549085
      25A     -0.535029    26A     -0.509476    27A     -0.503940
      28A     -0.491437    29A     -0.470618    30A     -0.465595
      31A     -0.454319    32A     -0.395944

  @DF-RHF Final Energy:  -348.09261851985940

   => Energetics <=

    Nuclear Repulsion Energy =            374.3552612703076079
    One-Electron Energy =               -1213.4242958640329562
    Two-Electron Energy =                 490.9764160738653231
    DFT Exchange-Correlation Energy =       0.0000000000000000
    Empirical Dispersion Energy =           0.0000000000000000
    PCM Polarization Energy =               0.0000000000000000
    EFP Energy =                            0.0000000000000000
    Total Energy =                       -348.0926185198599683

  Mulliken Charges: (a.u.)
   Center  Symbol    Alpha    Beta     Spin     Total
       1     O     4.26207  4.26207  0.00000 -0.52414
       2     C     2.74134  2.74134  0.00000  0.51731
       3     C     3.20170  3.20170  0.00000 -0.40341
       4     C     3.28943  3.28943  0.00000 -0.57887
       5     C     3.15973  3.15973  0.00000 -0.31946
       6     H     0.39941  0.39941  0.00000  0.20119
       7     H     0.41456  0.41456  0.00000  0.17088
       8     C     3.15646  3.15646  0.00000 -0.31291
       9     H     0.40724  0.40724  0.00000  0.18552
      10     H     0.41452  0.41452  0.00000  0.17095
      11     C     3.15364  3.15364  0.00000 -0.30728
      12     H     0.42137  0.42137  0.00000  0.15725
      13     H     0.42290  0.42290  0.00000  0.15420
      14     C     3.24212  3.24212  0.00000 -0.48424
      15     H     0.41980  0.41980  0.00000  0.16039
      16     H     0.42196  0.42196  0.00000  0.15608
      17     H     0.42169  0.42169  0.00000  0.15662
      18     H     0.41771  0.41771  0.00000  0.16458
      19     H     0.41843  0.41843  0.00000  0.16313
      20     H     0.40668  0.40668  0.00000  0.18664
      21     H     0.39702  0.39702  0.00000  0.20595
      22     H     0.41020  0.41020  0.00000  0.17960

   Total alpha = 32.00000, Total beta = 32.00000, Total charge =  0.00000
