  ==> Input File <==

--------------------------------------------------------------------------
set {
	reference rhf
	basis 6-31G*
}

set_num_threads( 4 )
memory 2 gb

molecule MOL {
0 1

H	 -3.721755	 -0.036125	 -0.205147
C	 -3.238426	 0.367365	 -1.103596
C	 -2.269403	 1.494910	 -0.854096
O	 -3.493381	 -0.083991	 -2.172720
C	 -1.220012	 1.144545	 0.209990
H	 -1.806884	 1.763394	 -1.796806
H	 -2.853411	 2.349061	 -0.513487
C	 -0.252658	 0.041456	 -0.226725
H	 -0.658657	 2.043079	 0.448319
H	 -1.722737	 0.849078	 1.129623
C	 1.180775	 0.282413	 0.250794
H	 -0.266029	 -0.034465	 -1.312038
H	 -0.597733	 -0.921000	 0.146291
C	 2.148627	 -0.814315	 -0.201312
H	 1.516199	 1.249228	 -0.115937
H	 1.192670	 0.346017	 1.338083
C	 3.580890	 -0.659131	 0.322722
H	 2.166869	 -0.852443	 -1.289387
H	 1.762857	 -1.776509	 0.128956
C	 4.324889	 0.564933	 -0.213704
H	 4.142010	 -1.551473	 0.056605
H	 3.564836	 -0.624694	 1.410140
H	 4.342616	 0.565491	 -1.300421
H	 3.866655	 1.493402	 0.110242
H	 5.353900	 0.572371	 0.132816

	symmetry c1
}
set optking {
	frozen_dihedral = ("
		3 5 8 12
	")
}

ee = optimize('scf')
oeprop('DIPOLE', 'QUADRUPOLE', 'MULLIKEN_CHARGES')
f=open( 'psi4out.xyz', 'w' )
f.write( "25  " )
f.write( str(ee) + "\n" )
f.write( MOL.save_string_xyz() )
f.close()
--------------------------------------------------------------------------

    Molecular point group: c1
  Charge       = 0
  Multiplicity = 1
  Basis Set: 6-31G*
  Basis Set:
  @DF-RHF Final Energy:  -387.11829354616754
    Total Energy =                       -387.1182935461685020
    Molecular point group: c1
  Basis Set: 6-31G*
  Basis Set:
  Basis Set: 6-31G*
  Basis Set:
  @DF-RHF Final Energy:  -387.11836473179198
    Total Energy =                       -387.1183647317917575
  Basis Set: 6-31G*
  Basis Set:
  Basis Set: 6-31G*
  Basis Set:
  @DF-RHF Final Energy:  -387.11843023061044
    Total Energy =                       -387.1184302306094196
  Basis Set: 6-31G*
  Basis Set:
  Basis Set: 6-31G*
  Basis Set:
  @DF-RHF Final Energy:  -387.11862278169059
    Total Energy =                       -387.1186227816901919
  Basis Set: 6-31G*
  Basis Set:
  @DF-RHF Final Energy:  -387.11865108857234
    Total Energy =                       -387.1186510885719372
  @DF-RHF Final Energy:  -387.11860910549535
    Total Energy =                       -387.1186091054956933
  Basis Set: 6-31G*
  Basis Set:
  @DF-RHF Final Energy:  -387.11865937951018
    Total Energy =                       -387.1186593795096087
  Basis Set: 6-31G*
  Basis Set:
  Basis Set: 6-31G*
  Basis Set:
  @DF-RHF Final Energy:  -387.11866245527682
    Total Energy =                       -387.1186624552761941
  Basis Set: 6-31G*
  Basis Set:
  Basis Set: 6-31G*
  Basis Set:
  @DF-RHF Final Energy:  -387.11866376902157
    Total Energy =                       -387.1186637690220778
  Basis Set: 6-31G*
  Basis Set:
  Charge       = 0
  Multiplicity = 1
  Basis Set: 6-31G*
  Basis Set:

    Orbital Energies (a.u.)
    -----------------------

    Doubly Occupied:

       1A    -20.562075     2A    -11.325790     3A    -11.235245
       4A    -11.234660     5A    -11.222675     6A    -11.219681
       7A    -11.217602     8A    -11.216305     9A    -11.210139
      10A     -1.401715    11A     -1.102217    12A     -1.068989
      13A     -1.012696    14A     -0.941382    15A     -0.875289
      16A     -0.821824    17A     -0.785819    18A     -0.781784
      19A     -0.665831    20A     -0.657353    21A     -0.635192
      22A     -0.623351    23A     -0.603046    24A     -0.590082
      25A     -0.577984    26A     -0.546365    27A     -0.536609
      28A     -0.523547    29A     -0.509823    30A     -0.496175
      31A     -0.490218    32A     -0.475962    33A     -0.463142
      34A     -0.458702    35A     -0.440783    36A     -0.408933

  @DF-RHF Final Energy:  -387.11866412967794

   => Energetics <=

    Nuclear Repulsion Energy =            439.8159964523492249
    One-Electron Energy =               -1395.9913507091591782
    Two-Electron Energy =                 569.0566901271322422
    DFT Exchange-Correlation Energy =       0.0000000000000000
    Empirical Dispersion Energy =           0.0000000000000000
    PCM Polarization Energy =               0.0000000000000000
    EFP Energy =                            0.0000000000000000
    Total Energy =                       -387.1186641296776543
    Molecular point group: c1
  Basis Set: 6-31G*
  Basis Set:

  -Total Gradient:
     Atom            X                  Y                   Z
    ------   -----------------  -----------------  -----------------
       1        0.000002674269     0.000001311658     0.000005194415
       2        0.000000394187    -0.000012011920     0.000008252795
       3        0.001648110478     0.001984271809    -0.001037693256
       4       -0.000002981754     0.000006798298    -0.000011474679
       5       -0.003015099376    -0.003383102759     0.001554140462
       6        0.000009796836    -0.000004593463     0.000006507797
       7       -0.000008161876     0.000004086870    -0.000008431547
       8        0.004138261873     0.004034157736    -0.000736032741
       9       -0.000011302684     0.000017015935     0.000003955974
      10        0.000000472373     0.000018601775    -0.000018986938
      11        0.000013078981    -0.000017021427     0.000010186575
      12       -0.002771687197    -0.002654212710     0.000243976641
      13        0.000011196332     0.000001424069    -0.000009362028
      14       -0.000007470886    -0.000011468774     0.000018626478
      15       -0.000009397451     0.000013242967    -0.000006979705
      16        0.000009980383    -0.000002020535    -0.000003524128
      17        0.000004277217    -0.000013215900    -0.000014935864
      18        0.000009474846     0.000020207637     0.000005684268
      19       -0.000000979277    -0.000011314028    -0.000018318809
      20       -0.000004553765    -0.000004782888    -0.000003158318
      21        0.000000254640    -0.000008309046     0.000011911009
      22       -0.000005438870     0.000013279856    -0.000004626418
      23       -0.000002603297    -0.000001228476     0.000003886706
      24       -0.000007877868     0.000010726024     0.000001459377
      25       -0.000000418104    -0.000001842706    -0.000000258061

  **** Optimization is complete! (in 10 steps) ****
    Final optimized geometry and variables:
    Molecular point group: c1

    Geometry (in Angstrom), charge = 0, multiplicity = 1:

    H           -3.839492262913    -0.331546975780     0.216738460925
    C           -3.318499212180     0.082945001098    -0.655175983219
    C           -2.413967247397     1.252106946400    -0.361770179589
    O           -3.484243364736    -0.392764625164    -1.731660414309
    C           -1.333701523888     0.905099375605     0.674090226731
    H           -1.968735910255     1.582621443159    -1.292690647588
    H           -3.035281288778     2.059148593121     0.023552284984
    C           -0.346472023523    -0.178880962941     0.200265662430
    H           -0.791199323234     1.820498307192     0.892206927404
    H           -1.799819208558     0.606006881249     1.609601539810
    C            1.085447917206     0.048431463504     0.686196200253
    H           -0.369734567574    -0.250881260091    -0.884447621208
    H           -0.688186785546    -1.151270075225     0.549999755518
    C            2.042278254122    -1.067477481899     0.259845599920
    H            1.435387435995     1.005836811333     0.308752157716
    H            1.087023630383     0.128364667660     1.772590482760
    C            3.472899753875    -0.920746981416     0.790841045470
    H            2.067276813559    -1.123649559924    -0.827200863499
    H            1.642454620595    -2.019327255946     0.603058050339
    C            4.236251677599     0.283798978161     0.237051454276
    H            4.024369515780    -1.825068649067     0.546030260663
    H            3.449249694294    -0.865447750054     1.877367331369
    H            4.265332611144     0.261381997428    -0.849024568426
    H            3.785476596347     1.224154022270     0.536690903118
    H            5.261538654590     0.287082494071     0.593983374475

  Mulliken Charges: (a.u.)
   Center  Symbol    Alpha    Beta     Spin     Total
       1     H     0.43247  0.43247  0.00000  0.13506
       2     C     2.83042  2.83042  0.00000  0.33917
       3     C     3.20897  3.20897  0.00000 -0.41794
       4     O     4.23780  4.23780  0.00000 -0.47560
       5     C     3.16700  3.16700  0.00000 -0.33400
       6     H     0.39988  0.39988  0.00000  0.20023
       7     H     0.40858  0.40858  0.00000  0.18284
       8     C     3.15980  3.15980  0.00000 -0.31960
       9     H     0.41190  0.41190  0.00000  0.17621
      10     H     0.41694  0.41694  0.00000  0.16611
      11     C     3.15507  3.15507  0.00000 -0.31014
      12     H     0.41227  0.41227  0.00000  0.17546
      13     H     0.41940  0.41940  0.00000  0.16119
      14     C     3.15367  3.15367  0.00000 -0.30733
      15     H     0.42041  0.42041  0.00000  0.15919
      16     H     0.42341  0.42341  0.00000  0.15318
      17     C     3.15274  3.15274  0.00000 -0.30547
      18     H     0.42207  0.42207  0.00000  0.15586
      19     H     0.42130  0.42130  0.00000  0.15741
      20     C     3.24133  3.24133  0.00000 -0.48266
      21     H     0.42004  0.42004  0.00000  0.15992
      22     H     0.42348  0.42348  0.00000  0.15303
      23     H     0.42152  0.42152  0.00000  0.15695
      24     H     0.42077  0.42077  0.00000  0.15847
      25     H     0.41878  0.41878  0.00000  0.16244

   Total alpha = 36.00000, Total beta = 36.00000, Total charge =  0.00000
