  ==> Input File <==

--------------------------------------------------------------------------
set {
	reference rhf
	basis cc-pvtz
}

set_num_threads( 4 )
memory 2 gb

molecule MOL {
0 1

H	 2.399868	 3.049515	 0.391983
O	 1.460697	 3.018029	 0.411770
C	 1.008063	 1.765776	 0.205732
C	 1.863004	 0.694430	 -0.003970
C	 -0.357495	 1.567618	 0.207949
H	 2.926508	 0.850590	 -0.005377
C	 1.351432	 -0.570690	 -0.210664
H	 -1.020403	 2.393002	 0.369621
C	 -0.861704	 0.296439	 0.000000
H	 2.022496	 -1.391980	 -0.371842
C	 -0.013376	 -0.777377	 -0.209954
C	 -2.330689	 0.069587	 0.000000
H	 -0.414105	 -1.760006	 -0.370404
O	 -2.848621	 -0.993976	 0.000000
H	 -2.934306	 0.982410	 0.000000

	symmetry c1
}
set optking {
	frozen_dihedral = ("
		11 9 12 14
	")
}

ee = optimize('scf')
oeprop('DIPOLE', 'QUADRUPOLE', 'MULLIKEN_CHARGES')
f=open( 'psi4out.xyz', 'w' )
f.write( "15  " )
f.write( str(ee) + "\n" )
f.write( MOL.save_string_xyz() )
f.close()
--------------------------------------------------------------------------

    Molecular point group: c1
  Charge       = 0
  Multiplicity = 1
  Basis Set: CC-PVTZ
  Basis Set:
  @DF-RHF Final Energy:  -418.43850980658721
    Total Energy =                       -418.4385098065873763
    Molecular point group: c1
  Basis Set: CC-PVTZ
  Basis Set:
  Basis Set: CC-PVTZ
  Basis Set:
  @DF-RHF Final Energy:  -418.43850530273625
    Total Energy =                       -418.4385053027358481
  Basis Set: CC-PVTZ
  Basis Set:
  Basis Set: CC-PVTZ
  Basis Set:
  @DF-RHF Final Energy:  -418.43819843719228
    Total Energy =                       -418.4381984371921135
  Basis Set: CC-PVTZ
  Basis Set:
  Basis Set: CC-PVTZ
  Basis Set:
  @DF-RHF Final Energy:  -418.43884710695403
    Total Energy =                       -418.4388471069540856
  Basis Set: CC-PVTZ
  Basis Set:
  Basis Set: CC-PVTZ
  Basis Set:
  @DF-RHF Final Energy:  -418.43885367081992
    Total Energy =                       -418.4388536708200945
  Basis Set: CC-PVTZ
  Basis Set:
  Charge       = 0
  Multiplicity = 1
  Basis Set: CC-PVTZ
  Basis Set:

    Orbital Energies (a.u.)
    -----------------------

    Doubly Occupied:

       1A    -20.598606     2A    -20.555060     3A    -11.327979
       4A    -11.313453     5A    -11.251267     6A    -11.248944
       7A    -11.246208     8A    -11.244827     9A    -11.236238
      10A     -1.429964    11A     -1.410731    12A     -1.174063
      13A     -1.054189    14A     -1.028463    15A     -0.904374
      16A     -0.849784    17A     -0.817709    18A     -0.741844
      19A     -0.705259    20A     -0.679258    21A     -0.665132
      22A     -0.633112    23A     -0.613767    24A     -0.611272
      25A     -0.582680    26A     -0.556635    27A     -0.540648
      28A     -0.519515    29A     -0.492033    30A     -0.426884
      31A     -0.360737    32A     -0.329457

  @DF-RHF Final Energy:  -418.43885542379962

   => Energetics <=

    Nuclear Repulsion Energy =            403.2627671474688213
    One-Electron Energy =               -1369.1030600719309405
    Two-Electron Energy =                 547.4014375006622686
    DFT Exchange-Correlation Energy =       0.0000000000000000
    Empirical Dispersion Energy =           0.0000000000000000
    PCM Polarization Energy =               0.0000000000000000
    EFP Energy =                            0.0000000000000000
    Total Energy =                       -418.4388554237998505
    Molecular point group: c1
  Basis Set: CC-PVTZ
  Basis Set:

  -Total Gradient:
     Atom            X                  Y                   Z
    ------   -----------------  -----------------  -----------------
       1        0.000000941012     0.000003777036     0.000001886662
       2        0.000004950543    -0.000036231998     0.000003347541
       3       -0.000064770702     0.000057701622    -0.000025484884
       4        0.000005164426    -0.000068489173    -0.000018089835
       5        0.000025914638     0.000062911397     0.000045764750
       6       -0.000000813098    -0.000013151672    -0.000002264662
       7        0.000056220434     0.000046407628     0.000037660739
       8        0.000011714093    -0.000020168928    -0.000007231040
       9        0.000044067794    -0.000474112928     0.002888453640
      10        0.000002904692    -0.000004669946    -0.000002138038
      11       -0.000079945041     0.000359257456    -0.001435773796
      12        0.000000805826     0.000133102768    -0.003223812907
      13        0.000000742224    -0.000024357830    -0.000016002017
      14       -0.000032322867    -0.000009405636     0.001788299368
      15        0.000024426030    -0.000012569798    -0.000034615520

  **** Optimization is complete! (in 6 steps) ****
    Final optimized geometry and variables:
    Molecular point group: c1

    Geometry (in Angstrom), charge = 0, multiplicity = 1:

    H            2.479096528145     2.464442113187     0.345494633985
    O            1.540015695367     2.422097430332     0.361201391069
    C            1.105408897903     1.163166181278     0.153800815784
    C            1.960286899736     0.100449185058    -0.054334962367
    C           -0.264029510837     0.951783387155     0.149340762346
    H            3.023446896952     0.259125017480    -0.056943005721
    C            1.449062566114    -1.171759777680    -0.263616990472
    H           -0.919710157122     1.787271177530     0.303931754242
    C           -0.762914952153    -0.318871471678    -0.047921572141
    H            2.126274215439    -1.987399401087    -0.428962733041
    C            0.092125092596    -1.392186239814    -0.261683021813
    C           -2.236616087663    -0.515578694877    -0.052133832983
    H           -0.315524378589    -2.369899984326    -0.418790789003
    O           -2.772782143884    -1.569953960555    -0.060626310077
    H           -2.823400675295     0.408073565485    -0.031572445513

  Mulliken Charges: (a.u.)
   Center  Symbol    Alpha    Beta     Spin     Total
       1     H     0.38627  0.38627  0.00000  0.22746
       2     O     4.17224  4.17224  0.00000 -0.34447
       3     C     2.84239  2.84239  0.00000  0.31523
       4     C     3.12917  3.12917  0.00000 -0.25833
       5     C     3.12734  3.12734  0.00000 -0.25468
       6     H     0.43131  0.43131  0.00000  0.13738
       7     C     3.06107  3.06107  0.00000 -0.12214
       8     H     0.41851  0.41851  0.00000  0.16297
       9     C     2.96557  2.96557  0.00000  0.06886
      10     H     0.41858  0.41858  0.00000  0.16284
      11     C     3.10263  3.10263  0.00000 -0.20526
      12     C     2.90953  2.90953  0.00000  0.18095
      13     H     0.40963  0.40963  0.00000  0.18073
      14     O     4.16914  4.16914  0.00000 -0.33829
      15     H     0.45663  0.45663  0.00000  0.08675

   Total alpha = 32.00000, Total beta = 32.00000, Total charge = -0.00000
