  ==> Input File <==

--------------------------------------------------------------------------
set {
	reference rhf
	basis 6-31G*
}

set_num_threads( 4 )
memory 2 gb

molecule MOL {
0 1

H	 -3.892951	 0.981613	 -0.358725
C	 -3.196921	 0.361773	 0.172313
C	 -2.076860	 -0.007332	 -0.404944
H	 -3.439953	 0.057760	 1.173024
O	 -1.180634	 -0.819263	 0.215062
H	 -1.811520	 0.292194	 -1.403480
C	 0.051604	 -1.018856	 -0.387932
C	 1.043764	 0.054862	 -0.001873
H	 -0.017620	 -1.041351	 -1.469781
H	 0.437898	 -1.966374	 -0.042284
F	 1.517718	 0.631347	 -1.096788
F	 0.483590	 0.997594	 0.737919
F	 2.063383	 -0.433231	 0.673799

	symmetry c1
}
set optking {
	frozen_dihedral = ("
		11 8 7 9
	")
}

ee = optimize('scf')
oeprop('DIPOLE', 'QUADRUPOLE', 'MULLIKEN_CHARGES')
f=open( 'psi4out.xyz', 'w' )
f.write( "13  " )
f.write( str(ee) + "\n" )
f.write( MOL.save_string_xyz() )
f.close()
--------------------------------------------------------------------------

    Molecular point group: c1
  Charge       = 0
  Multiplicity = 1
  Basis Set: 6-31G*
  Basis Set:
  @DF-RHF Final Energy:  -527.52820506858131
    Total Energy =                       -527.5282050685814283
    Molecular point group: c1
  Basis Set: 6-31G*
  Basis Set:
  Basis Set: 6-31G*
  Basis Set:
  @DF-RHF Final Energy:  -527.52890545628929
    Total Energy =                       -527.5289054562894080
  Basis Set: 6-31G*
  Basis Set:
  Basis Set: 6-31G*
  Basis Set:
  @DF-RHF Final Energy:  -527.52916769500894
    Total Energy =                       -527.5291676950088231
  Basis Set: 6-31G*
  Basis Set:
  Basis Set: 6-31G*
  Basis Set:
  @DF-RHF Final Energy:  -527.52918732104854
    Total Energy =                       -527.5291873210483118
  Basis Set: 6-31G*
  Basis Set:
  @DF-RHF Final Energy:  -527.52919274469150
    Total Energy =                       -527.5291927446914997
  @DF-RHF Final Energy:  -527.52919797233676
    Total Energy =                       -527.5291979723369877
  Basis Set: 6-31G*
  Basis Set:
  @DF-RHF Final Energy:  -527.52920179074181
    Total Energy =                       -527.5292017907421496
  Basis Set: 6-31G*
  Basis Set:
  Basis Set: 6-31G*
  Basis Set:
  @DF-RHF Final Energy:  -527.52920445167945
    Total Energy =                       -527.5292044516792203
  Basis Set: 6-31G*
  Basis Set:
  Basis Set: 6-31G*
  Basis Set:
  @DF-RHF Final Energy:  -527.52920560845700
    Total Energy =                       -527.5292056084572323
  Basis Set: 6-31G*
  Basis Set:
  Charge       = 0
  Multiplicity = 1
  Basis Set: 6-31G*
  Basis Set:

    Orbital Energies (a.u.)
    -----------------------

    Doubly Occupied:

       1A    -26.343253     2A    -26.342013     3A    -26.341742
       4A    -20.607349     5A    -11.504950     6A    -11.318624
       7A    -11.299532     8A    -11.216417     9A     -1.742146
      10A     -1.639651    11A     -1.637279    12A     -1.437874
      13A     -1.080105    14A     -1.015007    15A     -0.925609
      16A     -0.837258    17A     -0.829538    18A     -0.821535
      19A     -0.789402    20A     -0.724678    21A     -0.715731
      22A     -0.694939    23A     -0.674460    24A     -0.660329
      25A     -0.654879    26A     -0.642188    27A     -0.626418
      28A     -0.584434    29A     -0.562042    30A     -0.524851
      31A     -0.511611    32A     -0.351770

  @DF-RHF Final Energy:  -527.52920633750091

   => Energetics <=

    Nuclear Repulsion Energy =            412.7051218185224002
    One-Electron Energy =               -1549.1534296131383144
    Two-Electron Energy =                 608.9191014571152891
    DFT Exchange-Correlation Energy =       0.0000000000000000
    Empirical Dispersion Energy =           0.0000000000000000
    PCM Polarization Energy =               0.0000000000000000
    EFP Energy =                            0.0000000000000000
    Total Energy =                       -527.5292063375005682
    Molecular point group: c1
  Basis Set: 6-31G*
  Basis Set:

  -Total Gradient:
     Atom            X                  Y                   Z
    ------   -----------------  -----------------  -----------------
       1       -0.000000175282    -0.000000492836     0.000000597621
       2        0.000000482662     0.000006157690    -0.000003346458
       3        0.000002247174     0.000013130661     0.000017002498
       4        0.000000048035     0.000001612578     0.000002210296
       5        0.000052293884    -0.000011455466    -0.000054058060
       6       -0.000000735224    -0.000002066982     0.000000163855
       7       -0.000614615584     0.000439014693     0.000048843737
       8        0.000676407695    -0.000568584258     0.000045983397
       9        0.000332859507    -0.000298894795    -0.000013791161
      10        0.000030842633     0.000010850128     0.000000571662
      11       -0.000300994307     0.000274274330     0.000019074883
      12       -0.000053049710     0.000054439353     0.000010047342
      13       -0.000125611477     0.000082014904    -0.000073299610

  **** Optimization is complete! (in 10 steps) ****
    Final optimized geometry and variables:
    Molecular point group: c1

    Geometry (in Angstrom), charge = 0, multiplicity = 1:

    H           -3.889227644389     0.999371632825    -0.330789898270
    C           -3.240140251232     0.310662669302     0.174180323900
    C           -2.055304501245     0.041910094509    -0.323710916952
    H           -3.580795134539    -0.140701112623     1.087086758448
    O           -1.202992250007    -0.831534470777     0.272791781636
    H           -1.695155777941     0.488548382965    -1.234487276768
    C            0.025124668844    -1.045301906365    -0.330576447907
    C            1.049659851420     0.056565583498    -0.023314242502
    H           -0.063444220346    -1.131321203583    -1.407047353482
    H            0.410831048591    -1.973727836545     0.060894714760
    F            1.526949489347     0.581025766385    -1.144826729849
    F            0.535817265272     1.039663024687     0.683937023580
    F            2.083711842360    -0.425542519123     0.645978563586

  Mulliken Charges: (a.u.)
   Center  Symbol    Alpha    Beta     Spin     Total
       1     H     0.40691  0.40691  0.00000  0.18618
       2     C     3.23576  3.23576  0.00000 -0.47152
       3     C     2.89610  2.89610  0.00000  0.20780
       4     H     0.40197  0.40197  0.00000  0.19606
       5     O     4.29781  4.29781  0.00000 -0.59561
       6     H     0.40698  0.40698  0.00000  0.18604
       7     C     3.08406  3.08406  0.00000 -0.16813
       8     C     2.44663  2.44663  0.00000  1.10674
       9     H     0.39995  0.39995  0.00000  0.20011
      10     H     0.38447  0.38447  0.00000  0.23106
      11     F     4.68499  4.68499  0.00000 -0.36998
      12     F     4.67242  4.67242  0.00000 -0.34484
      13     F     4.68196  4.68196  0.00000 -0.36392

   Total alpha = 32.00000, Total beta = 32.00000, Total charge =  0.00000
