  ==> Input File <==

--------------------------------------------------------------------------
set {
	reference rhf
	basis 6-31G*
}

set_num_threads( 1 )
memory 2 gb

molecule MOL {
0 1

H	 -3.634411	 -0.880932	 0.184194
O	 -3.517110	 -0.026191	 -0.205115
C	 -2.306886	 0.532354	 0.237577
C	 -1.177863	 -0.397191	 -0.171080
H	 -2.156308	 1.517575	 -0.201710
H	 -2.315015	 0.655684	 1.319734
C	 0.198102	 0.111031	 0.262842
H	 -1.208843	 -0.518759	 -1.250427
H	 -1.368741	 -1.376554	 0.258909
C	 1.331804	 -0.827780	 -0.158768
H	 0.361943	 1.100838	 -0.156218
H	 0.217265	 0.229072	 1.345532
C	 2.723619	 -0.410569	 0.329459
H	 1.342964	 -0.912588	 -1.244120
H	 1.116806	 -1.824343	 0.220779
C	 3.243875	 0.895854	 -0.272975
H	 3.424222	 -1.207124	 0.091250
H	 2.714788	 -0.329854	 1.414619
H	 3.251977	 0.848779	 -1.358681
H	 2.637085	 1.747371	 0.016682
H	 4.259473	 1.094070	 0.055697

	symmetry c1
}
set optking {
	frozen_dihedral = ("
		2 3 4 8,
		8 4 7 10,
		4 7 10 14,
		16 13 10 14
	")
}

ee = energy('scf')
oeprop('DIPOLE', 'QUADRUPOLE', 'MULLIKEN_CHARGES')
f=open( 'psi4out.xyz', 'w' )
f.write( "21  " )
f.write( str(ee) + "\n" )
f.write( MOL.save_string_xyz() )
f.close()
--------------------------------------------------------------------------

    Molecular point group: c1

    Geometry (in Angstrom), charge = 0, multiplicity = 1:

       Center              X                  Y                   Z               Mass
    ------------   -----------------  -----------------  -----------------  -----------------
           H         -3.640353699943    -0.866924982879     0.182768487531     1.007825032070
           O         -3.523052699943    -0.012183982879    -0.206540512469    15.994914619560
           C         -2.312828699943     0.546361017121     0.236151487531    12.000000000000
           C         -1.183805699943    -0.383183982879    -0.172505512469    12.000000000000
           H         -2.162250699943     1.531582017121    -0.203135512469     1.007825032070
           H         -2.320957699943     0.669691017121     1.318308487531     1.007825032070
           C          0.192159300057     0.125038017121     0.261416487531    12.000000000000
           H         -1.214785699943    -0.504751982879    -1.251852512469     1.007825032070
           H         -1.374683699943    -1.362546982879     0.257483487531     1.007825032070
           C          1.325861300057    -0.813772982879    -0.160193512469    12.000000000000
           H          0.356000300057     1.114845017121    -0.157643512469     1.007825032070
           H          0.211322300057     0.243079017121     1.344106487531     1.007825032070
           C          2.717676300057    -0.396561982879     0.328033487531    12.000000000000
           H          1.337021300057    -0.898580982879    -1.245545512469     1.007825032070
           H          1.110863300057    -1.810335982879     0.219353487531     1.007825032070
           C          3.237932300057     0.909861017121    -0.274400512469    12.000000000000
           H          3.418279300057    -1.193116982879     0.089824487531     1.007825032070
           H          2.708845300057    -0.315846982879     1.413193487531     1.007825032070
           H          3.246034300057     0.862786017121    -1.360106512469     1.007825032070
           H          2.631142300057     1.761378017121     0.015256487531     1.007825032070
           H          4.253530300057     1.108077017121     0.054271487531     1.007825032070

  Charge       = 0
  Multiplicity = 1
  Basis Set: 6-31G*
  Basis Set:

    Orbital Energies (a.u.)
    -----------------------

    Doubly Occupied:

       1A    -20.550647     2A    -11.268058     3A    -11.218635
       4A    -11.217384     5A    -11.216514     6A    -11.215227
       7A    -11.209883     8A     -1.359265     9A     -1.089171
      10A     -1.035183    11A     -0.955558    12A     -0.879108
      13A     -0.819662    14A     -0.781309    15A     -0.690661
      16A     -0.649951    17A     -0.621928    18A     -0.610850
      19A     -0.594436    20A     -0.575998    21A     -0.537891
      22A     -0.535408    23A     -0.504448    24A     -0.491331
      25A     -0.485161    26A     -0.464405    27A     -0.459024
      28A     -0.457572    29A     -0.419372

  @DF-RHF Final Energy:  -310.21081594396799

   => Energetics <=

    Nuclear Repulsion Energy =            313.0896508696312139
    One-Electron Energy =               -1040.7730154641744775
    Two-Electron Energy =                 417.4725486505748222
    DFT Exchange-Correlation Energy =       0.0000000000000000
    Empirical Dispersion Energy =           0.0000000000000000
    PCM Polarization Energy =               0.0000000000000000
    EFP Energy =                            0.0000000000000000
    Total Energy =                       -310.2108159439684414

  Mulliken Charges: (a.u.)
   Center  Symbol    Alpha    Beta     Spin     Total
       1     H     0.28199  0.28199  0.00000  0.43603
       2     O     4.37124  4.37124  0.00000 -0.74247
       3     C     2.98893  2.98893  0.00000  0.02215
       4     C     3.16602  3.16602  0.00000 -0.33204
       5     H     0.41616  0.41616  0.00000  0.16768
       6     H     0.43120  0.43120  0.00000  0.13760
       7     C     3.16218  3.16218  0.00000 -0.32437
       8     H     0.41316  0.41316  0.00000  0.17368
       9     H     0.42977  0.42977  0.00000  0.14046
      10     C     3.15166  3.15166  0.00000 -0.30332
      11     H     0.41982  0.41982  0.00000  0.16035
      12     H     0.42391  0.42391  0.00000  0.15218
      13     C     3.15254  3.15254  0.00000 -0.30507
      14     H     0.42282  0.42282  0.00000  0.15437
      15     H     0.42239  0.42239  0.00000  0.15522
      16     C     3.24138  3.24138  0.00000 -0.48276
      17     H     0.42055  0.42055  0.00000  0.15890
      18     H     0.42347  0.42347  0.00000  0.15306
      19     H     0.42174  0.42174  0.00000  0.15651
      20     H     0.42028  0.42028  0.00000  0.15945
      21     H     0.41880  0.41880  0.00000  0.16240

   Total alpha = 29.00000, Total beta = 29.00000, Total charge =  0.00000
