  ==> Input File <==

--------------------------------------------------------------------------
set {
	reference rhf
	basis 6-31G*
}

set_num_threads( 1 )
memory 2 gb

molecule MOL {
0 1

O	 0.625848	 1.349995	 -0.000749
C	 0.486307	 0.169203	 0.000779
C	 1.608116	 -0.841643	 0.000302
O	 -0.698257	 -0.426125	 0.001050
C	 2.990107	 -0.200498	 -0.000684
H	 1.468623	 -1.481519	 -0.865924
H	 1.469683	 -1.481289	 0.866878
H	 3.129736	 0.423364	 -0.875135
H	 3.757882	 -0.966877	 -0.001197
H	 3.130964	 0.423383	 0.873533
C	 -0.851413	 -1.585981	 0.812639
C	 -2.275069	 -2.072959	 0.644212
H	 -0.636223	 -1.327864	 1.840576
H	 -0.133902	 -2.332341	 0.500044
H	 -2.981403	 -1.312178	 0.956404
H	 -2.436068	 -2.959840	 1.248505
H	 -2.476424	 -2.322243	 -0.391437

	symmetry c1
}
set optking {
	frozen_dihedral = ("
		2 4 11 13,
		4 2 3 6
	")
}

ee = energy('scf')
oeprop('DIPOLE', 'QUADRUPOLE', 'MULLIKEN_CHARGES')
f=open( 'psi4out.xyz', 'w' )
f.write( "17  " )
f.write( str(ee) + "\n" )
f.write( MOL.save_string_xyz() )
f.close()
--------------------------------------------------------------------------

    Molecular point group: c1

    Geometry (in Angstrom), charge = 0, multiplicity = 1:

       Center              X                  Y                   Z               Mass
    ------------   -----------------  -----------------  -----------------  -----------------
           O          0.364602171019     1.869717562365    -0.213122241749    15.994914619560
           C          0.225061171019     0.688925562365    -0.211594241749    12.000000000000
           C          1.346870171019    -0.321920437635    -0.212071241749    12.000000000000
           O         -0.959502828981     0.093597562365    -0.211323241749    15.994914619560
           C          2.728861171019     0.319224562365    -0.213057241749    12.000000000000
           H          1.207377171019    -0.961796437635    -1.078297241749     1.007825032070
           H          1.208437171019    -0.961566437635     0.654504758251     1.007825032070
           H          2.868490171019     0.943086562365    -1.087508241749     1.007825032070
           H          3.496636171019    -0.447154437635    -0.213570241749     1.007825032070
           H          2.869718171019     0.943105562365     0.661159758251     1.007825032070
           C         -1.112658828981    -1.066258437635     0.600265758251    12.000000000000
           C         -2.536314828981    -1.553236437635     0.431838758251    12.000000000000
           H         -0.897468828981    -0.808141437635     1.628202758251     1.007825032070
           H         -0.395147828981    -1.812618437635     0.287670758251     1.007825032070
           H         -3.242648828981    -0.792455437635     0.744030758251     1.007825032070
           H         -2.697313828981    -2.440117437635     1.036131758251     1.007825032070
           H         -2.737669828981    -1.802520437635    -0.603810241749     1.007825032070

  Charge       = 0
  Multiplicity = 1
  Basis Set: 6-31G*
  Basis Set:

    Orbital Energies (a.u.)
    -----------------------

    Doubly Occupied:

       1A    -20.596296     2A    -20.547947     3A    -11.373240
       4A    -11.300947     5A    -11.241711     6A    -11.229448
       7A    -11.218534     8A     -1.464411     9A     -1.368382
      10A     -1.064037    11A     -1.048394    12A     -0.903624
      13A     -0.885025    14A     -0.770763    15A     -0.705432
      16A     -0.693307    17A     -0.659729    18A     -0.638776
      19A     -0.599365    20A     -0.570362    21A     -0.559472
      22A     -0.542028    23A     -0.528677    24A     -0.516656
      25A     -0.513075    26A     -0.488669    27A     -0.452087
      28A     -0.430554

  @DF-RHF Final Energy:  -344.88653453631940

   => Energetics <=

    Nuclear Repulsion Energy =            317.9243490717904592
    One-Electron Energy =               -1099.7999315188728815
    Two-Electron Energy =                 436.9890479107633041
    DFT Exchange-Correlation Energy =       0.0000000000000000
    Empirical Dispersion Energy =           0.0000000000000000
    PCM Polarization Energy =               0.0000000000000000
    EFP Energy =                            0.0000000000000000
    Total Energy =                       -344.8865345363191750

  Mulliken Charges: (a.u.)
   Center  Symbol    Alpha    Beta     Spin     Total
       1     O     4.26649  4.26649  0.00000 -0.53298
       2     C     2.59817  2.59817  0.00000  0.80367
       3     C     3.23532  3.23532  0.00000 -0.47064
       4     O     4.30738  4.30738  0.00000 -0.61476
       5     C     3.23549  3.23549  0.00000 -0.47098
       6     H     0.39904  0.39904  0.00000  0.20192
       7     H     0.40233  0.40233  0.00000  0.19534
       8     H     0.40804  0.40804  0.00000  0.18393
       9     H     0.41953  0.41953  0.00000  0.16094
      10     H     0.40965  0.40965  0.00000  0.18071
      11     C     3.01436  3.01436  0.00000 -0.02873
      12     C     3.24533  3.24533  0.00000 -0.49066
      13     H     0.41315  0.41315  0.00000  0.17370
      14     H     0.41440  0.41440  0.00000  0.17120
      15     H     0.40540  0.40540  0.00000  0.18920
      16     H     0.41734  0.41734  0.00000  0.16531
      17     H     0.40859  0.40859  0.00000  0.18283

   Total alpha = 28.00000, Total beta = 28.00000, Total charge = -0.00000
