                              Psi4 1.0.54 Driver

  ==> Input File <==

--------------------------------------------------------------------------
set {
	reference rhf
	basis cc-pvtz
}

set_num_threads( 4 )
memory 2 gb

molecule MOL {
0 1

H	 -0.890788	 -2.456252	 -0.434825
N	 -0.168293	 -1.776211	 -0.540265
C	 -0.561396	 -0.500007	 0.035200
H	 0.011024	 -1.686011	 -1.518551
C	 0.575129	 0.507849	 -0.048832
H	 -0.811990	 -0.668620	 1.077309
H	 -1.450036	 -0.076797	 -0.435572
C	 1.951750	 -0.141983	 0.035101
H	 0.478254	 1.061643	 -0.975981
H	 0.467676	 1.231891	 0.755499
H	 2.101550	 -0.848142	 -0.774949
H	 2.738260	 0.600794	 -0.026526
H	 2.078939	 -0.679792	 0.968824

	symmetry c1
}
set optking {
	frozen_dihedral = ("
		6 3 5 9
	")
}

ee,wfn = optimize('scf', return_wfn=True)
oeprop( wfn, 'DIPOLE', 'QUADRUPOLE', 'MULLIKEN_CHARGES')
f=open( 'psi4out.xyz', 'w' )
f.write( "13  " )
f.write( str(ee) + "\n" )
f.write( MOL.save_string_xyz() )
f.close()
--------------------------------------------------------------------------

    Molecular point group: c1
  Charge       = 0
  Multiplicity = 1
  Basis Set: CC-PVTZ
  Basis Set:
  @DF-RHF Final Energy:  -173.34624490930671
    Total Energy =                       -173.3462449093065629
    Molecular point group: c1
  Basis Set: CC-PVTZ
  Basis Set:
  Basis Set: CC-PVTZ
  Basis Set:
  @DF-RHF Final Energy:  -173.34749615398778
    Total Energy =                       -173.3474961539876062
  Basis Set: CC-PVTZ
  Basis Set:
  Basis Set: CC-PVTZ
  Basis Set:
  @DF-RHF Final Energy:  -173.34827784956633
    Total Energy =                       -173.3482778495662728
  Basis Set: CC-PVTZ
  Basis Set:
  Basis Set: CC-PVTZ
  Basis Set:
  @DF-RHF Final Energy:  -173.34833118207115
    Total Energy =                       -173.3483311820711492
  Basis Set: CC-PVTZ
  Basis Set:
  Basis Set: CC-PVTZ
  Basis Set:
  @DF-RHF Final Energy:  -173.34833448399741
    Total Energy =                       -173.3483344839974052
  Basis Set: CC-PVTZ
  Basis Set:
  Charge       = 0
  Multiplicity = 1
  Basis Set: CC-PVTZ
  Basis Set:

    Orbital Energies (a.u.)
    -----------------------

    Doubly Occupied:

       1A    -15.527645     2A    -11.239120     3A    -11.210986
       4A    -11.198341     5A     -1.179035     6A     -1.028822
       7A     -0.905920     8A     -0.788482     9A     -0.667657
      10A     -0.624963    11A     -0.603121    12A     -0.560573
      13A     -0.532984    14A     -0.493700    15A     -0.471199
      16A     -0.461751    17A     -0.382989

  @DF-RHF Final Energy:  -173.34833463992751

   => Energetics <=

    Nuclear Repulsion Energy =            133.9179249801833578
    One-Electron Energy =                -498.7779431782150823
    Two-Electron Energy =                 191.5116835581042096
    DFT Exchange-Correlation Energy =       0.0000000000000000
    Empirical Dispersion Energy =           0.0000000000000000
    PCM Polarization Energy =               0.0000000000000000
    EFP Energy =                            0.0000000000000000
    Total Energy =                       -173.3483346399275433
    Molecular point group: c1
  Basis Set: CC-PVTZ
  Basis Set:

  -Total Gradient:
     Atom            X                  Y                   Z
    ------   -----------------  -----------------  -----------------
       1       -0.000005018313     0.000009768059     0.000000817520
       2        0.000020852097    -0.000018349977     0.000016132406
       3        0.004161591685    -0.004749428499     0.001030917308
       4       -0.000002821951     0.000014898119     0.000004883366
       5        0.003228646702    -0.004339047297    -0.003607716234
       6       -0.004035409286     0.004705486323    -0.000292696333
       7        0.000004749904    -0.000003345901     0.000004629771
       8        0.000001121204    -0.000000480291    -0.000002240270
       9       -0.003368945098     0.004385229092     0.002841955247
      10       -0.000003237248    -0.000005375774     0.000001784548
      11        0.000001454913     0.000001219635     0.000000573456
      12       -0.000002915647    -0.000000868550     0.000001782975
      13       -0.000000068962     0.000000295063    -0.000000823759

  **** Optimization is complete! (in 6 steps) ****
    Final optimized geometry and variables:
    Molecular point group: c1

    Geometry (in Angstrom), charge = 0, multiplicity = 1:

    H           -1.473778354698    -1.915801811808    -0.245039892305
    N           -0.714702128327    -1.288522797004    -0.405441954706
    C           -0.983482332813     0.008164145576     0.192113691445
    H           -0.604428253931    -1.209391740490    -1.395224000624
    C            0.181427794988     0.994464097411     0.055634452183
    H           -1.217132405364    -0.127663964418     1.242390218693
    H           -1.868840658359     0.485065401633    -0.231104121650
    C            1.572789576970     0.395199590552     0.217333513729
    H            0.093738338091     1.536377387232    -0.882443907092
    H            0.038116986171     1.757649205797     0.816194061945
    H            1.798049607651    -0.318114879619    -0.563519944553
    H            2.324605588168     1.176167530411     0.190027456106
    H            1.662980789150    -0.124796601675     1.164425043568

  Mulliken Charges: (a.u.)
   Center  Symbol    Alpha    Beta     Spin     Total
       1     H     0.42906  0.42906  0.00000  0.14189
       2     N     3.68731  3.68731  0.00000 -0.37462
       3     C     3.03361  3.03361  0.00000 -0.06722
       4     H     0.43089  0.43089  0.00000  0.13821
       5     C     3.09363  3.09363  0.00000 -0.18725
       6     H     0.45604  0.45604  0.00000  0.08792
       7     H     0.46349  0.46349  0.00000  0.07303
       8     C     3.13664  3.13664  0.00000 -0.27328
       9     H     0.45380  0.45380  0.00000  0.09241
      10     H     0.45388  0.45388  0.00000  0.09225
      11     H     0.45384  0.45384  0.00000  0.09233
      12     H     0.45290  0.45290  0.00000  0.09420
      13     H     0.45493  0.45493  0.00000  0.09014

   Total alpha = 17.00000, Total beta = 17.00000, Total charge =  0.00000

*** Psi4 exiting successfully. Buy a developer a beer!
