  ==> Input File <==

--------------------------------------------------------------------------
set {
	reference rhf
	basis 6-31G*
}

set_num_threads( 4 )
memory 2 gb

molecule MOL {
0 1

H	 -3.436592	 -0.758084	 0.614452
O	 -3.117320	 -0.163817	 -0.050775
C	 -1.777246	 -0.062288	 -0.006514
C	 -1.010683	 -0.763874	 0.919315
C	 -1.169922	 0.779555	 -0.929836
H	 -1.489299	 -1.414273	 1.631508
C	 0.360925	 -0.620671	 0.918050
H	 -1.782683	 1.309896	 -1.633777
C	 0.202918	 0.912295	 -0.918546
H	 0.964658	 -1.155895	 1.626670
C	 0.984182	 0.218375	 0.000000
H	 0.674054	 1.564544	 -1.633853
C	 2.452467	 0.370529	 0.000000
O	 3.228994	 -0.533774	 0.000000
H	 2.809473	 1.405765	 0.000000

	symmetry c1
}
set optking {
	frozen_dihedral = ("
		7 11 13 14
	")
}

ee = optimize('scf')
oeprop('DIPOLE', 'QUADRUPOLE', 'MULLIKEN_CHARGES')
f=open( 'psi4out.xyz', 'w' )
f.write( "15  " )
f.write( str(ee) + "\n" )
f.write( MOL.save_string_xyz() )
f.close()
--------------------------------------------------------------------------

    Molecular point group: c1
  Charge       = 0
  Multiplicity = 1
  Basis Set: 6-31G*
  Basis Set:
  @DF-RHF Final Energy:  -418.28043546236910
    Total Energy =                       -418.2804354623690415
    Molecular point group: c1
  Basis Set: 6-31G*
  Basis Set:
  Basis Set: 6-31G*
  Basis Set:
  @DF-RHF Final Energy:  -418.27947700423243
    Total Energy =                       -418.2794770042323762
  Basis Set: 6-31G*
  Basis Set:
  Basis Set: 6-31G*
  Basis Set:
  @DF-RHF Final Energy:  -418.28113102129987
    Total Energy =                       -418.2811310212996432
  Basis Set: 6-31G*
  Basis Set:
  Basis Set: 6-31G*
  Basis Set:
  @DF-RHF Final Energy:  -418.28138739986974
    Total Energy =                       -418.2813873998695726
  Basis Set: 6-31G*
  Basis Set:
  @DF-RHF Final Energy:  -418.28139048800347
    Total Energy =                       -418.2813904880028986
  Basis Set: 6-31G*
  Basis Set:
  @DF-RHF Final Energy:  -418.27879405202390
    Total Energy =                       -418.2787940520242955
  Basis Set: 6-31G*
  Basis Set:
  Basis Set: 6-31G*
  Basis Set:
  @DF-RHF Final Energy:  -418.28131527030899
    Total Energy =                       -418.2813152703092783
  Basis Set: 6-31G*
  Basis Set:
  Basis Set: 6-31G*
  Basis Set:
  @DF-RHF Final Energy:  -418.28139285470661
    Total Energy =                       -418.2813928547063824
  Basis Set: 6-31G*
  Basis Set:
  Charge       = 0
  Multiplicity = 1
  Basis Set: 6-31G*
  Basis Set:

    Orbital Energies (a.u.)
    -----------------------

    Doubly Occupied:

       1A    -20.607291     2A    -20.563410     3A    -11.331110
       4A    -11.318826     5A    -11.257525     6A    -11.256758
       7A    -11.243602     8A    -11.241766     9A    -11.238663
      10A     -1.427720    11A     -1.403070    12A     -1.169807
      13A     -1.039657    14A     -1.037984    15A     -0.887605
      16A     -0.865038    17A     -0.796565    18A     -0.754746
      19A     -0.711820    20A     -0.669412    21A     -0.647283
      22A     -0.628872    23A     -0.606934    24A     -0.604995
      25A     -0.587511    26A     -0.561274    27A     -0.535647
      28A     -0.505074    29A     -0.487875    30A     -0.420594
      31A     -0.356137    32A     -0.325091

  @DF-RHF Final Energy:  -418.28139302239214

   => Energetics <=

    Nuclear Repulsion Energy =            400.6005272359452078
    One-Electron Energy =               -1363.5845119955220071
    Two-Electron Energy =                 544.7025917371850028
    DFT Exchange-Correlation Energy =       0.0000000000000000
    Empirical Dispersion Energy =           0.0000000000000000
    PCM Polarization Energy =               0.0000000000000000
    EFP Energy =                            0.0000000000000000
    Total Energy =                       -418.2813930223917396
    Molecular point group: c1
  Basis Set: 6-31G*
  Basis Set:

  -Total Gradient:
     Atom            X                  Y                   Z
    ------   -----------------  -----------------  -----------------
       1        0.000004593085     0.000007404497     0.000002476532
       2       -0.000001014107     0.000005716447     0.000016854968
       3       -0.000002749204     0.000012058589    -0.000110278296
       4        0.000083590556    -0.000019227684     0.000030892061
       5       -0.000076211467    -0.000010204926     0.000061070228
       6       -0.000005711498     0.000004094989     0.000000804655
       7       -0.001008549887     0.005708402165     0.004457195379
       8        0.000007312168     0.000005079112    -0.000003433343
       9        0.000075967653    -0.000053185390     0.000010053304
      10        0.000005177932    -0.000002993810    -0.000002329899
      11        0.001504334347    -0.008565407198    -0.010558269948
      12       -0.000005972680     0.000011199000     0.000001931945
      13       -0.000904216181     0.003282340587     0.014951864890
      14        0.000315516937    -0.000386409357    -0.008857553235
      15        0.000007932342     0.000001132980    -0.000001279244

  **** Optimization is complete! (in 9 steps) ****
    Final optimized geometry and variables:
    Molecular point group: c1

    Geometry (in Angstrom), charge = 0, multiplicity = 1:

    H           -3.448547360172    -0.748406783046     0.610025190069
    O           -3.127730035217    -0.148982119073    -0.049537530916
    C           -1.783884398412    -0.063065640114    -0.010567018306
    C           -1.019495862144    -0.763917123159     0.911455096690
    C           -1.171504484897     0.778207424046    -0.932039377267
    H           -1.497074361461    -1.399223554304     1.637795604683
    C            0.357953191926    -0.639828055342     0.895154391386
    H           -1.782207343846     1.320708656177    -1.628770628942
    C            0.200639239353     0.912454044409    -0.919308339802
    H            0.952860405002    -1.188270853001     1.602478861737
    C            0.984492599097     0.176482804396    -0.035136480376
    H            0.668575961352     1.586730120175    -1.616105529666
    C            2.456719567198     0.380619056418     0.009579371551
    O            3.255071864409    -0.499317996122     0.077753800048
    H            2.788669050149     1.418787947496    -0.090421943710

  Mulliken Charges: (a.u.)
   Center  Symbol    Alpha    Beta     Spin     Total
       1     H     0.26926  0.26926  0.00000  0.46149
       2     O     4.37452  4.37452  0.00000 -0.74903
       3     C     2.78878  2.78878  0.00000  0.42245
       4     C     3.14507  3.14507  0.00000 -0.29013
       5     C     3.12447  3.12447  0.00000 -0.24894
       6     H     0.39873  0.39873  0.00000  0.20253
       7     C     3.08667  3.08667  0.00000 -0.17334
       8     H     0.38661  0.38661  0.00000  0.22677
       9     C     3.09507  3.09507  0.00000 -0.19014
      10     H     0.38187  0.38187  0.00000  0.23625
      11     C     3.05082  3.05082  0.00000 -0.10164
      12     H     0.39089  0.39089  0.00000  0.21821
      13     C     2.84536  2.84536  0.00000  0.30928
      14     O     4.23719  4.23719  0.00000 -0.47438
      15     H     0.42470  0.42470  0.00000  0.15061

   Total alpha = 32.00000, Total beta = 32.00000, Total charge =  0.00000
