                              Psi4 1.0.54 Driver

  ==> Input File <==

--------------------------------------------------------------------------
set {
	reference rhf
	basis cc-pvtz
}

set_num_threads( 4 )
memory 2 gb

molecule MOL {
0 1

H	 -3.500621	 2.605664	 0.860131
C	 -3.675623	 1.545176	 0.632919
C	 -2.653809	 0.914422	 -0.273689
O	 -4.617332	 0.991227	 1.084174
C	 -1.216901	 1.136108	 0.207794
H	 -2.883791	 -0.138570	 -0.371925
H	 -2.778573	 1.376405	 -1.250576
C	 -0.247837	 0.040196	 -0.230469
H	 -0.872882	 2.093195	 -0.169002
H	 -1.209325	 1.218376	 1.291938
C	 1.181757	 0.280428	 0.247371
H	 -0.259600	 -0.030819	 -1.314870
H	 -0.591284	 -0.923375	 0.136958
C	 2.151032	 -0.811012	 -0.202643
H	 1.515939	 1.247397	 -0.115449
H	 1.191514	 0.341223	 1.333422
C	 3.580021	 -0.656538	 0.320835
H	 2.170545	 -0.847575	 -1.289412
H	 1.766632	 -1.772905	 0.124928
C	 4.327657	 0.562694	 -0.213579
H	 4.138806	 -1.549270	 0.057813
H	 3.561991	 -0.620783	 1.406976
H	 4.355973	 0.557257	 -1.298551
H	 3.867136	 1.491650	 0.100501
H	 5.351524	 0.571613	 0.142204

	symmetry c1
}
set optking {
	frozen_dihedral = ("
		6 3 5 8
	")
}

ee,wfn = optimize('scf', return_wfn=True)
oeprop( wfn, 'DIPOLE', 'QUADRUPOLE', 'MULLIKEN_CHARGES')
f=open( 'psi4out.xyz', 'w' )
f.write( "25  " )
f.write( str(ee) + "\n" )
f.write( MOL.save_string_xyz() )
f.close()
--------------------------------------------------------------------------

    Molecular point group: c1
  Charge       = 0
  Multiplicity = 1
  Basis Set: CC-PVTZ
  Basis Set:
  @DF-RHF Final Energy:  -387.25817497807731
    Total Energy =                       -387.2581749780774771
    Molecular point group: c1
  Basis Set: CC-PVTZ
  Basis Set:
  Basis Set: CC-PVTZ
  Basis Set:
  @DF-RHF Final Energy:  -387.25794793824815
    Total Energy =                       -387.2579479382482077
  Basis Set: CC-PVTZ
  Basis Set:
  Basis Set: CC-PVTZ
  Basis Set:
  @DF-RHF Final Energy:  -387.25643612699190
    Total Energy =                       -387.2564361269919573
  Basis Set: CC-PVTZ
  Basis Set:
  Basis Set: CC-PVTZ
  Basis Set:
  @DF-RHF Final Energy:  -387.25848493975013
    Total Energy =                       -387.2584849397508151
  Basis Set: CC-PVTZ
  Basis Set:
  Basis Set: CC-PVTZ
  Basis Set:
  @DF-RHF Final Energy:  -387.25850900821018
    Total Energy =                       -387.2585090082101260
  Basis Set: CC-PVTZ
  Basis Set:
  Basis Set: CC-PVTZ
  Basis Set:
  @DF-RHF Final Energy:  -387.25852254077159
    Total Energy =                       -387.2585225407713097
  Basis Set: CC-PVTZ
  Basis Set:
  Basis Set: CC-PVTZ
  Basis Set:
  @DF-RHF Final Energy:  -387.25852606921512
    Total Energy =                       -387.2585260692154634
  Basis Set: CC-PVTZ
  Basis Set:
  Charge       = 0
  Multiplicity = 1
  Basis Set: CC-PVTZ
  Basis Set:

    Orbital Energies (a.u.)
    -----------------------

    Doubly Occupied:

       1A    -20.551035     2A    -11.321011     3A    -11.233671
       4A    -11.233017     5A    -11.224020     6A    -11.218622
       7A    -11.217408     8A    -11.216522     9A    -11.209854
      10A     -1.406025    11A     -1.105584    12A     -1.071314
      13A     -1.016104    14A     -0.945912    15A     -0.875909
      16A     -0.813469    17A     -0.796340    18A     -0.781713
      19A     -0.678560    20A     -0.657650    21A     -0.637325
      22A     -0.624418    23A     -0.616389    24A     -0.589637
      25A     -0.564607    26A     -0.563492    27A     -0.530203
      28A     -0.522888    29A     -0.518467    30A     -0.494610
      31A     -0.489504    32A     -0.479940    33A     -0.466468
      34A     -0.460491    35A     -0.450600    36A     -0.410122

  @DF-RHF Final Energy:  -387.25852550086529

   => Energetics <=

    Nuclear Repulsion Energy =            432.6453285192060321
    One-Electron Energy =               -1381.8219104095742296
    Two-Electron Energy =                 561.9180563895032492
    DFT Exchange-Correlation Energy =       0.0000000000000000
    Empirical Dispersion Energy =           0.0000000000000000
    PCM Polarization Energy =               0.0000000000000000
    EFP Energy =                            0.0000000000000000
    Total Energy =                       -387.2585255008649483
    Molecular point group: c1
  Basis Set: CC-PVTZ
  Basis Set:

  -Total Gradient:
     Atom            X                  Y                   Z
    ------   -----------------  -----------------  -----------------
       1       -0.000021127743    -0.000048990395     0.000031272858
       2       -0.000142005519     0.000022259042    -0.000023086600
       3       -0.001771688971    -0.000768383871     0.005549644306
       4        0.000144745488     0.000075506911    -0.000019843097
       5        0.001083163641     0.002179962669    -0.004191685714
       6        0.001237242107     0.000159369017    -0.003705953487
       7        0.000050289731    -0.000050915304     0.000101387311
       8       -0.000513690238    -0.001463384935     0.002322553178
       9       -0.000030828718    -0.000066161757     0.000067158214
      10       -0.000034583439    -0.000029722938    -0.000134469578
      11       -0.000019796071    -0.000021438205     0.000007776202
      12       -0.000006164613     0.000011655531     0.000016446832
      13        0.000020090530     0.000001348323    -0.000015316602
      14        0.000009278352     0.000027062725    -0.000019337499
      15       -0.000052968933    -0.000050505796    -0.000002902654
      16        0.000009176593     0.000014603949     0.000003004417
      17       -0.000030167069     0.000030996621     0.000045108359
      18       -0.000001695543     0.000021027710    -0.000008058493
      19        0.000010034694    -0.000010573602    -0.000015872408
      20        0.000027243933    -0.000011154419    -0.000021905319
      21        0.000006999978    -0.000024458186     0.000009830633
      22       -0.000007226547     0.000015066607     0.000016405761
      23       -0.000001838114     0.000010462886    -0.000010233399
      24        0.000032198606    -0.000010946184     0.000010135544
      25        0.000003317861    -0.000012686400    -0.000012058760

  **** Optimization is complete! (in 8 steps) ****
    Final optimized geometry and variables:
    Molecular point group: c1

    Geometry (in Angstrom), charge = 0, multiplicity = 1:

    H           -3.371312572526     2.136829246108     0.730094838504
    C           -3.550763024598     1.080905977682     0.488355576010
    C           -2.525285956862     0.449028670777    -0.408779510189
    O           -4.497411884670     0.526313907739     0.928777767009
    C           -1.085318419177     0.693511818506     0.070317218124
    H           -2.739010457992    -0.606314029349    -0.512012550018
    H           -2.653932852709     0.887387917550    -1.396351312858
    C           -0.120082188971    -0.395866444320    -0.389534275012
    H           -0.741866085554     1.665168238223    -0.268372222975
    H           -1.066955789942     0.726791936338     1.156689582137
    C            1.319452561416    -0.150575296418     0.053678144521
    H           -0.154508015629    -0.475676697582    -1.473654482597
    H           -0.460539006552    -1.352068798407    -0.002939822677
    C            2.275844012045    -1.253559774431    -0.395902250639
    H            1.649081342166     0.808206329316    -0.333813762035
    H            1.351342364643    -0.070097139678     1.137916655317
    C            3.714884306052    -1.096939544513     0.098616346893
    H            2.275421386942    -1.308437091614    -1.482189536887
    H            1.893684484088    -2.208121873262    -0.044858905797
    C            4.459961919326     0.105968157630    -0.474959213127
    H            4.263616238401    -1.998554394691    -0.155311102529
    H            3.716366727757    -1.038137477592     1.183841658317
    H            4.466204408720     0.078974814747    -1.559989464047
    H            4.012621186494     1.044343637952    -0.169994229561
    H            5.490875886827     0.114161765588    -0.140214438374

  Mulliken Charges: (a.u.)
   Center  Symbol    Alpha    Beta     Spin     Total
       1     H     0.46444  0.46444  0.00000  0.07113
       2     C     2.91049  2.91049  0.00000  0.17901
       3     C     3.07945  3.07945  0.00000 -0.15890
       4     O     4.16454  4.16454  0.00000 -0.32907
       5     C     3.10458  3.10458  0.00000 -0.20916
       6     H     0.44275  0.44275  0.00000  0.11451
       7     H     0.44765  0.44765  0.00000  0.10470
       8     C     3.08894  3.08894  0.00000 -0.17787
       9     H     0.44935  0.44935  0.00000  0.10129
      10     H     0.45039  0.45039  0.00000  0.09921
      11     C     3.09306  3.09306  0.00000 -0.18612
      12     H     0.45203  0.45203  0.00000  0.09593
      13     H     0.44909  0.44909  0.00000  0.10181
      14     C     3.09587  3.09587  0.00000 -0.19174
      15     H     0.45213  0.45213  0.00000  0.09574
      16     H     0.45319  0.45319  0.00000  0.09362
      17     C     3.09068  3.09068  0.00000 -0.18136
      18     H     0.45354  0.45354  0.00000  0.09292
      19     H     0.44866  0.44866  0.00000  0.10268
      20     C     3.15256  3.15256  0.00000 -0.30513
      21     H     0.44776  0.44776  0.00000  0.10448
      22     H     0.45420  0.45420  0.00000  0.09160
      23     H     0.45477  0.45477  0.00000  0.09047
      24     H     0.45417  0.45417  0.00000  0.09167
      25     H     0.44571  0.44571  0.00000  0.10859

   Total alpha = 36.00000, Total beta = 36.00000, Total charge = -0.00000

*** Psi4 exiting successfully. Buy a developer a beer!
