                              Psi4 1.0.54 Driver

  ==> Input File <==

--------------------------------------------------------------------------
set {
	reference rhf
	basis cc-pvtz
}

set_num_threads( 4 )
memory 2 gb

molecule MOL {
0 1

H	 3.701338	 0.166183	 0.835241
O	 2.802812	 -0.004572	 1.074385
C	 2.076458	 -0.067370	 -0.038225
C	 0.626018	 -0.337582	 0.258241
O	 2.554840	 0.077790	 -1.109635
C	 -0.267326	 0.883135	 0.076490
H	 0.325620	 -1.161483	 -0.378003
H	 0.574537	 -0.713685	 1.275261
C	 -1.726822	 0.642622	 0.463839
H	 -0.210803	 1.217591	 -0.953497
H	 0.129920	 1.693110	 0.675679
C	 -2.480891	 -0.340606	 -0.429852
H	 -2.243098	 1.597649	 0.438609
H	 -1.776542	 0.301208	 1.495542
C	 -3.955933	 -0.460128	 -0.060472
H	 -2.393755	 -0.020485	 -1.464726
H	 -2.024244	 -1.323637	 -0.374360
H	 -4.467673	 -1.160944	 -0.709827
H	 -4.458917	 0.497287	 -0.144505
H	 -4.076458	 -0.806900	 0.960497

	symmetry c1
}
set optking {
	frozen_dihedral = ("
		5 3 4 7
	")
}

ee,wfn = optimize('scf', return_wfn=True)
oeprop( wfn, 'DIPOLE', 'QUADRUPOLE', 'MULLIKEN_CHARGES')
f=open( 'psi4out.xyz', 'w' )
f.write( "20  " )
f.write( str(ee) + "\n" )
f.write( MOL.save_string_xyz() )
f.close()
--------------------------------------------------------------------------

    Molecular point group: c1
  Charge       = 0
  Multiplicity = 1
  Basis Set: CC-PVTZ
  Basis Set:
  @DF-RHF Final Energy:  -384.09261147099414
    Total Energy =                       -384.0926114709943704
    Molecular point group: c1
  Basis Set: CC-PVTZ
  Basis Set:
  Basis Set: CC-PVTZ
  Basis Set:
  @DF-RHF Final Energy:  -384.09303050392600
    Total Energy =                       -384.0930305039257746
  Basis Set: CC-PVTZ
  Basis Set:
  Basis Set: CC-PVTZ
  Basis Set:
  @DF-RHF Final Energy:  -384.09341597244349
    Total Energy =                       -384.0934159724433243
  Basis Set: CC-PVTZ
  Basis Set:
  Basis Set: CC-PVTZ
  Basis Set:
  @DF-RHF Final Energy:  -384.09344819344932
    Total Energy =                       -384.0934481934496603
  Basis Set: CC-PVTZ
  Basis Set:
  Basis Set: CC-PVTZ
  Basis Set:
  @DF-RHF Final Energy:  -384.09344555445279
    Total Energy =                       -384.0934455544528987
  Basis Set: CC-PVTZ
  Basis Set:
  Basis Set: CC-PVTZ
  Basis Set:
  @DF-RHF Final Energy:  -384.09345019416691
    Total Energy =                       -384.0934501941673034
  Basis Set: CC-PVTZ
  Basis Set:
  Charge       = 0
  Multiplicity = 1
  Basis Set: CC-PVTZ
  Basis Set:

    Orbital Energies (a.u.)
    -----------------------

    Doubly Occupied:

       1A    -20.605728     2A    -20.537214     3A    -11.372424
       4A    -11.236728     5A    -11.229691     6A    -11.221486
       7A    -11.219295     8A    -11.211316     9A     -1.477361
      10A     -1.367463    11A     -1.099791    12A     -1.042678
      13A     -0.961862    14A     -0.867709    15A     -0.823326
      16A     -0.785844    17A     -0.705283    18A     -0.690790
      19A     -0.652594    20A     -0.632688    21A     -0.620582
      22A     -0.595798    23A     -0.579225    24A     -0.557088
      25A     -0.540511    26A     -0.520372    27A     -0.497220
      28A     -0.486776    29A     -0.473565    30A     -0.470245
      31A     -0.459380    32A     -0.439922

  @DF-RHF Final Energy:  -384.09345031401921

   => Energetics <=

    Nuclear Repulsion Energy =            376.9806205576026628
    One-Electron Energy =               -1270.1842245195159649
    Two-Electron Energy =                 509.1101536478944354
    DFT Exchange-Correlation Energy =       0.0000000000000000
    Empirical Dispersion Energy =           0.0000000000000000
    PCM Polarization Energy =               0.0000000000000000
    EFP Energy =                            0.0000000000000000
    Total Energy =                       -384.0934503140189236
    Molecular point group: c1
  Basis Set: CC-PVTZ
  Basis Set:

  -Total Gradient:
     Atom            X                  Y                   Z
    ------   -----------------  -----------------  -----------------
       1       -0.000016397013    -0.000003551126    -0.000000976664
       2        0.000010711198     0.000002663407     0.000022377125
       3        0.000130870873    -0.000494563308    -0.000052269505
       4       -0.000135917991     0.000370283197    -0.000210603224
       5       -0.000078469539     0.000312590506     0.000054782710
       6       -0.000000303045     0.000011192655    -0.000002957777
       7        0.000090975487    -0.000201089736     0.000202790757
       8        0.000001507393     0.000005873720    -0.000014329893
       9        0.000001669848     0.000000433846     0.000000576713
      10        0.000001909268     0.000000709479    -0.000003386448
      11        0.000003883823     0.000000320900     0.000001314447
      12       -0.000003084432    -0.000000411215     0.000002276668
      13        0.000001842907    -0.000001263135     0.000000832207
      14       -0.000007395529     0.000001153463    -0.000002341784
      15       -0.000001700831    -0.000006170014    -0.000000753625
      16        0.000000166858     0.000001754765     0.000003411137
      17        0.000000042838     0.000000460147    -0.000001018058
      18       -0.000001050065    -0.000000206303     0.000000904057
      19        0.000001594727    -0.000000422986    -0.000000718174
      20       -0.000000856780     0.000000241738     0.000000089327

  **** Optimization is complete! (in 7 steps) ****
    Final optimized geometry and variables:
    Molecular point group: c1

    Geometry (in Angstrom), charge = 0, multiplicity = 1:

    H            3.733998941353     0.177197532836     0.672080840287
    O            2.863471440047    -0.045007039918     0.967596501067
    C            2.064838374062    -0.105046660821    -0.092475066001
    C            0.635946455482    -0.421405907604     0.260063762758
    O            2.459749362599     0.095507547632    -1.189845176496
    C           -0.253999103927     0.813753700531     0.070482379685
    H            0.321954793448    -1.220510026583    -0.397128115520
    H            0.583652439082    -0.773405103318     1.281075762714
    C           -1.716567591165     0.585973972383     0.452552789910
    H           -0.187137053379     1.138064456401    -0.961582125018
    H            0.141322274206     1.622100133099     0.677669336769
    C           -2.469783405012    -0.400641787342    -0.437697828925
    H           -2.225591237971     1.544680378249     0.415344529142
    H           -1.772606194217     0.254682225445     1.486781653854
    C           -3.946927839911    -0.510784739479    -0.073461760236
    H           -2.375955280039    -0.089509813393    -1.474494329385
    H           -2.017212388891    -1.384618121142    -0.371854346465
    H           -4.457473353327    -1.217533126085    -0.717154514970
    H           -4.446723006851     0.447017577003    -0.171192156654
    H           -4.073507760167    -0.845383367499     0.950850822838

  Mulliken Charges: (a.u.)
   Center  Symbol    Alpha    Beta     Spin     Total
       1     H     0.38047  0.38047  0.00000  0.23906
       2     O     4.15978  4.15978  0.00000 -0.31956
       3     C     2.80574  2.80574  0.00000  0.38852
       4     C     3.09135  3.09135  0.00000 -0.18269
       5     O     4.19963  4.19963  0.00000 -0.39925
       6     C     3.10739  3.10739  0.00000 -0.21479
       7     H     0.43977  0.43977  0.00000  0.12046
       8     H     0.43986  0.43986  0.00000  0.12027
       9     C     3.09794  3.09794  0.00000 -0.19588
      10     H     0.43976  0.43976  0.00000  0.12048
      11     H     0.44283  0.44283  0.00000  0.11433
      12     C     3.08691  3.08691  0.00000 -0.17381
      13     H     0.44624  0.44624  0.00000  0.10753
      14     H     0.45245  0.45245  0.00000  0.09509
      15     C     3.14958  3.14958  0.00000 -0.29917
      16     H     0.45073  0.45073  0.00000  0.09854
      17     H     0.45370  0.45370  0.00000  0.09260
      18     H     0.44721  0.44721  0.00000  0.10557
      19     H     0.45380  0.45380  0.00000  0.09240
      20     H     0.45485  0.45485  0.00000  0.09031

   Total alpha = 32.00000, Total beta = 32.00000, Total charge =  0.00000

*** Psi4 exiting successfully. Buy a developer a beer!
