                              Psi4 1.0.54 Driver

  ==> Input File <==

--------------------------------------------------------------------------
set {
	reference rhf
	basis cc-pvtz
}

set_num_threads( 4 )
memory 2 gb

molecule MOL {
0 1

H	 -0.000105	 1.988529	 0.748933
O	 -0.000098	 1.879786	 -0.188206
C	 -0.000014	 0.545691	 -0.532416
C	 1.195537	 -0.164186	 0.105164
C	 -0.090506	 0.392206	 -2.051636
H	 -0.890141	 0.095863	 -0.117700
F	 1.123755	 -0.047997	 1.408317
F	 1.228256	 -1.440660	 -0.183379
F	 2.332970	 0.372692	 -0.281337
F	 -1.194075	 0.954766	 -2.478860
F	 -0.108303	 -0.862406	 -2.424927
F	 0.918429	 0.984687	 -2.653625

	symmetry c1
}
set optking {
	frozen_dihedral = ("
		6 3 2 1
	")
}

ee,wfn = optimize('scf', return_wfn=True)
oeprop( wfn, 'DIPOLE', 'QUADRUPOLE', 'MULLIKEN_CHARGES')
f=open( 'psi4out.xyz', 'w' )
f.write( "12  " )
f.write( str(ee) + "\n" )
f.write( MOL.save_string_xyz() )
f.close()
--------------------------------------------------------------------------

    Molecular point group: c1
  Charge       = 0
  Multiplicity = 1
  Basis Set: CC-PVTZ
  Basis Set:
  @DF-RHF Final Energy:  -786.58570855943651
    Total Energy =                       -786.5857085594367391
    Molecular point group: c1
  Basis Set: CC-PVTZ
  Basis Set:
  Basis Set: CC-PVTZ
  Basis Set:
  @DF-RHF Final Energy:  -786.58763374127250
    Total Energy =                       -786.5876337412718158
  Basis Set: CC-PVTZ
  Basis Set:
  Basis Set: CC-PVTZ
  Basis Set:
  @DF-RHF Final Energy:  -786.58798487389129
    Total Energy =                       -786.5879848738914006
  Basis Set: CC-PVTZ
  Basis Set:
  Basis Set: CC-PVTZ
  Basis Set:
  @DF-RHF Final Energy:  -786.58805627201866
    Total Energy =                       -786.5880562720183207
  Basis Set: CC-PVTZ
  Basis Set:
  Basis Set: CC-PVTZ
  Basis Set:
  @DF-RHF Final Energy:  -786.58807549547885
    Total Energy =                       -786.5880754954786198
  Basis Set: CC-PVTZ
  Basis Set:
  Basis Set: CC-PVTZ
  Basis Set:
  @DF-RHF Final Energy:  -786.58807796705014
    Total Energy =                       -786.5880779670500260
  Basis Set: CC-PVTZ
  Basis Set:
  Charge       = 0
  Multiplicity = 1
  Basis Set: CC-PVTZ
  Basis Set:

    Orbital Energies (a.u.)
    -----------------------

    Doubly Occupied:

       1A    -26.360192     2A    -26.357407     3A    -26.355498
       4A    -26.351879     5A    -26.348473     6A    -26.348102
       7A    -20.609065     8A    -11.520178     9A    -11.516243
      10A    -11.351562    11A     -1.770992    12A     -1.762232
      13A     -1.665765    14A     -1.664724    15A     -1.657645
      16A     -1.656055    17A     -1.439547    18A     -1.104097
      19A     -1.000431    20A     -0.941087    21A     -0.873497
      22A     -0.864146    23A     -0.859840    24A     -0.848776
      25A     -0.838129    26A     -0.790143    27A     -0.761383
      28A     -0.736900    29A     -0.727847    30A     -0.723983
      31A     -0.721190    32A     -0.690321    33A     -0.686973
      34A     -0.674553    35A     -0.674014    36A     -0.667549
      37A     -0.658898    38A     -0.641179    39A     -0.622617
      40A     -0.551538    41A     -0.509966

  @DF-RHF Final Energy:  -786.58807877489812

   => Energetics <=

    Nuclear Repulsion Energy =            670.9090688748353841
    One-Electron Energy =               -2429.1850706792288292
    Two-Electron Energy =                 971.6879230294950958
    DFT Exchange-Correlation Energy =       0.0000000000000000
    Empirical Dispersion Energy =           0.0000000000000000
    PCM Polarization Energy =               0.0000000000000000
    EFP Energy =                            0.0000000000000000
    Total Energy =                       -786.5880787748983494
    Molecular point group: c1
  Basis Set: CC-PVTZ
  Basis Set:

  -Total Gradient:
     Atom            X                  Y                   Z
    ------   -----------------  -----------------  -----------------
       1        0.000729610444     0.000036578762     0.000078502747
       2       -0.000990111911    -0.000016319068    -0.000237757871
       3        0.000565998267    -0.000060159880     0.000690151727
       4       -0.000005523321     0.000031854983    -0.000123474712
       5        0.000041663145     0.000088994472    -0.000060948523
       6       -0.000291839205     0.000069893351    -0.000545598489
       7        0.000004367258     0.000019913386     0.000067618667
       8        0.000016370073    -0.000079231258     0.000020525877
       9       -0.000027254711    -0.000007356558     0.000034414334
      10       -0.000063563235    -0.000019539453     0.000021834203
      11       -0.000011253532    -0.000081997585     0.000019645590
      12        0.000031536718     0.000017368843     0.000035086463

  **** Optimization is complete! (in 7 steps) ****
    Final optimized geometry and variables:
    Molecular point group: c1

    Geometry (in Angstrom), charge = 0, multiplicity = 1:

    H           -0.633606430966     1.859529823106     1.517427963815
    O           -0.611590797917     1.657570766118     0.598281177449
    C           -0.578636187126     0.295034163384     0.393744318903
    C            0.649936040831    -0.326114568054     1.059920620709
    C           -0.645593383750     0.077274266787    -1.116127895216
    H           -1.443294711588    -0.210642116206     0.810034455042
    F            0.656037951854     0.039231025631     2.329768735569
    F            0.608227697992    -1.634479781457     1.026556427024
    F            1.777637012385     0.065513852001     0.530341210243
    F           -1.793597437201     0.522196957523    -1.566528778526
    F           -0.570101433837    -1.201738749219    -1.404892551412
    F            0.309617011148     0.697106478230    -1.755609129460

  Mulliken Charges: (a.u.)
   Center  Symbol    Alpha    Beta     Spin     Total
       1     H     0.38370  0.38370  0.00000  0.23260
       2     O     4.18458  4.18458  0.00000 -0.36915
       3     C     2.99832  2.99832  0.00000  0.00335
       4     C     2.68336  2.68336  0.00000  0.63327
       5     C     2.67654  2.67654  0.00000  0.64693
       6     H     0.44489  0.44489  0.00000  0.11022
       7     F     4.61441  4.61441  0.00000 -0.22881
       8     F     4.60324  4.60324  0.00000 -0.20647
       9     F     4.59961  4.59961  0.00000 -0.19922
      10     F     4.60405  4.60405  0.00000 -0.20811
      11     F     4.60597  4.60597  0.00000 -0.21194
      12     F     4.60133  4.60133  0.00000 -0.20267

   Total alpha = 41.00000, Total beta = 41.00000, Total charge = -0.00000

*** Psi4 exiting successfully. Buy a developer a beer!
