  ==> Input File <==

--------------------------------------------------------------------------
set {
	reference rhf
	basis 6-31G*
}

set_num_threads( 4 )
memory 2 gb

molecule MOL {
0 1

O	 1.700701	 1.551674	 -0.443643
C	 1.277624	 0.863288	 -1.315566
C	 -0.036589	 0.121634	 -1.289876
O	 1.923699	 0.657026	 -2.456258
C	 -0.823008	 0.326187	 0.001381
H	 -0.608959	 0.445235	 -2.154971
H	 0.180768	 -0.929951	 -1.456144
C	 -2.149452	 -0.435131	 -0.000098
H	 -1.006284	 1.386461	 0.144272
H	 -0.216295	 0.008860	 0.843706
C	 -3.368779	 0.488503	 -0.000883
H	 -2.193746	 -1.087250	 -0.871175
H	 -2.195311	 -1.087803	 0.870418
C	 -4.693822	 -0.272754	 -0.001129
H	 -3.325798	 1.139422	 -0.871284
H	 -3.326423	 1.139959	 0.869145
H	 -4.781274	 -0.907928	 -0.878124
H	 -5.538651	 0.408946	 -0.001420
H	 -4.781694	 -0.907783	 0.875984
C	 3.175678	 1.300092	 -2.611087
H	 3.061346	 2.373061	 -2.554576
H	 3.536137	 1.013255	 -3.586622
H	 3.866665	 0.975855	 -1.846290

	symmetry c1
}
set optking {
	frozen_dihedral = ("
		9 5 8 12
	")
}

ee = optimize('scf')
oeprop('DIPOLE', 'QUADRUPOLE', 'MULLIKEN_CHARGES')
f=open( 'psi4out.xyz', 'w' )
f.write( "23  " )
f.write( str(ee) + "\n" )
f.write( MOL.save_string_xyz() )
f.close()
--------------------------------------------------------------------------

    Molecular point group: c1
  Charge       = 0
  Multiplicity = 1
  Basis Set: 6-31G*
  Basis Set:
  @DF-RHF Final Energy:  -422.97065075785605
    Total Energy =                       -422.9706507578558785
    Molecular point group: c1
  Basis Set: 6-31G*
  Basis Set:
  Basis Set: 6-31G*
  Basis Set:
  @DF-RHF Final Energy:  -422.97083536276813
    Total Energy =                       -422.9708353627679571
  Basis Set: 6-31G*
  Basis Set:
  Basis Set: 6-31G*
  Basis Set:
  @DF-RHF Final Energy:  -422.96997474292328
    Total Energy =                       -422.9699747429233412
  Basis Set: 6-31G*
  Basis Set:
  Basis Set: 6-31G*
  Basis Set:
  @DF-RHF Final Energy:  -422.97095685846870
    Total Energy =                       -422.9709568584687531
  Basis Set: 6-31G*
  Basis Set:
  Basis Set: 6-31G*
  Basis Set:
  @DF-RHF Final Energy:  -422.97097091292284
    Total Energy =                       -422.9709709129228941
  Basis Set: 6-31G*
  Basis Set:
  Basis Set: 6-31G*
  Basis Set:
  @DF-RHF Final Energy:  -422.97096970684140
    Total Energy =                       -422.9709697068416290
  Basis Set: 6-31G*
  Basis Set:
  Basis Set: 6-31G*
  Basis Set:
  @DF-RHF Final Energy:  -422.97097277885177
    Total Energy =                       -422.9709727788517739
  Basis Set: 6-31G*
  Basis Set:
  Charge       = 0
  Multiplicity = 1
  Basis Set: 6-31G*
  Basis Set:

    Orbital Energies (a.u.)
    -----------------------

    Doubly Occupied:

       1A    -20.603592     2A    -20.545511     3A    -11.372022
       4A    -11.280833     5A    -11.235811     6A    -11.218996
       7A    -11.217877     8A    -11.217284     9A    -11.209961
      10A     -1.469265    11A     -1.362730    12A     -1.091491
      13A     -1.043178    14A     -0.986223    15A     -0.931491
      16A     -0.845764    17A     -0.794960    18A     -0.767296
      19A     -0.700129    20A     -0.682383    21A     -0.672285
      22A     -0.637102    23A     -0.620347    24A     -0.598554
      25A     -0.572905    26A     -0.558934    27A     -0.554951
      28A     -0.528239    29A     -0.521064    30A     -0.498606
      31A     -0.494780    32A     -0.470301    33A     -0.464102
      34A     -0.458656    35A     -0.452236    36A     -0.435380

  @DF-RHF Final Energy:  -422.97097293411861

   => Energetics <=

    Nuclear Repulsion Energy =            454.0893888172050197
    One-Electron Energy =               -1475.8902483425963510
    Two-Electron Energy =                 598.8298865912732936
    DFT Exchange-Correlation Energy =       0.0000000000000000
    Empirical Dispersion Energy =           0.0000000000000000
    PCM Polarization Energy =               0.0000000000000000
    EFP Energy =                            0.0000000000000000
    Total Energy =                       -422.9709729341180946
    Molecular point group: c1
  Basis Set: 6-31G*
  Basis Set:

  -Total Gradient:
     Atom            X                  Y                   Z
    ------   -----------------  -----------------  -----------------
       1        0.000011753800    -0.000005563546     0.000003019761
       2       -0.000009904699     0.000010493627    -0.000007050694
       3       -0.000005440569     0.000030980471     0.000012393192
       4        0.000014501989     0.000005920431    -0.000006359923
       5       -0.000006988264     0.000036481105     0.001477759063
       6        0.000003936901    -0.000005028720     0.000006265288
       7       -0.000005428146    -0.000007341370     0.000010913091
       8        0.000649023914    -0.001189411958     0.000564361605
       9       -0.000071013148     0.000159156341    -0.001340016885
      10        0.000013019519     0.000009461537    -0.000004120245
      11       -0.000002756947    -0.000024494284    -0.000008077620
      12       -0.000568553977     0.000992983926    -0.000706059283
      13       -0.000019021600    -0.000007903423    -0.000004472374
      14       -0.000010609566     0.000004227844     0.000003692366
      15        0.000000887361    -0.000005531201    -0.000000980408
      16        0.000009377968    -0.000002380692    -0.000001660496
      17        0.000001728117     0.000001053243     0.000001641988
      18       -0.000005699910    -0.000001636556     0.000000454896
      19       -0.000000121417     0.000000546952    -0.000000400589
      20        0.000001015324    -0.000001002267    -0.000001446831
      21       -0.000000575034    -0.000000691352    -0.000000003685
      22        0.000000133875    -0.000000312835     0.000000031274
      23        0.000000734502    -0.000000007278     0.000000116516

  **** Optimization is complete! (in 8 steps) ****
    Final optimized geometry and variables:
    Molecular point group: c1

    Geometry (in Angstrom), charge = 0, multiplicity = 1:

    O            1.995451652420     1.044842163736     0.466127344310
    C            1.577250218154     0.342854129189    -0.397384234485
    C            0.273655892645    -0.416785750668    -0.357403425248
    O            2.221919809666     0.132320035704    -1.538135585796
    C           -0.506363222923    -0.218037620947     0.940562070041
    H           -0.311321930204    -0.103737386601    -1.218314426265
    H            0.503046613824    -1.465886302497    -0.521870115504
    C           -1.856427875635    -0.968836943083     0.941044898309
    H           -0.671594710385     0.844815096843     1.079750541710
    H            0.110613297089    -0.536407364256     1.772649518708
    C           -3.069232834385    -0.033972868174     0.922733501180
    H           -1.917948087701    -1.625382107771     0.075500484180
    H           -1.922703428250    -1.613753208581     1.812869024712
    C           -4.400581150744    -0.782641756570     0.895752047116
    H           -3.004697176908     0.621290992342     0.055991726575
    H           -3.034849010148     0.613339219368     1.796006226088
    H           -4.480027528682    -1.411331353805     0.013177089883
    H           -5.239435505800    -0.093637742690     0.887249079836
    H           -4.507543904181    -1.422998046638     1.766868199343
    C            3.464849745146     0.789873443253    -1.704762645662
    H            3.336767025793     1.861837943673    -1.659924318341
    H            3.825589573028     0.496803930269    -2.678387244983
    H            4.162709142975     0.483233900694    -0.938940640589

  Mulliken Charges: (a.u.)
   Center  Symbol    Alpha    Beta     Spin     Total
       1     O     4.28600  4.28600  0.00000 -0.57199
       2     C     2.60587  2.60587  0.00000  0.78825
       3     C     3.20977  3.20977  0.00000 -0.41954
       4     O     4.30726  4.30726  0.00000 -0.61452
       5     C     3.15609  3.15609  0.00000 -0.31217
       6     H     0.40089  0.40089  0.00000  0.19821
       7     H     0.40021  0.40021  0.00000  0.19958
       8     C     3.15721  3.15721  0.00000 -0.31442
       9     H     0.40851  0.40851  0.00000  0.18297
      10     H     0.40925  0.40925  0.00000  0.18151
      11     C     3.15315  3.15315  0.00000 -0.30631
      12     H     0.42245  0.42245  0.00000  0.15511
      13     H     0.41834  0.41834  0.00000  0.16332
      14     C     3.24030  3.24030  0.00000 -0.48060
      15     H     0.42382  0.42382  0.00000  0.15236
      16     H     0.42010  0.42010  0.00000  0.15980
      17     H     0.42200  0.42200  0.00000  0.15600
      18     H     0.41851  0.41851  0.00000  0.16298
      19     H     0.42120  0.42120  0.00000  0.15761
      20     C     3.09245  3.09245  0.00000 -0.18490
      21     H     0.40910  0.40910  0.00000  0.18180
      22     H     0.40846  0.40846  0.00000  0.18308
      23     H     0.40906  0.40906  0.00000  0.18187

   Total alpha = 36.00000, Total beta = 36.00000, Total charge =  0.00000
