                              Psi4 1.0.54 Driver

  ==> Input File <==

--------------------------------------------------------------------------
set {
	reference rhf
	basis cc-pvtz
}

set_num_threads( 4 )
memory 2 gb

molecule MOL {
0 1

H	 -3.268214	 -0.875720	 0.463107
C	 -2.806015	 0.000007	 0.024886
N	 -1.391133	 0.000016	 0.301321
H	 -3.029448	 0.000055	 -1.045738
H	 -3.268126	 0.875758	 0.463150
C	 -0.609806	 -0.457588	 -0.827263
C	 -1.063254	 -0.751952	 1.493198
H	 -0.855539	 -1.490821	 -1.089741
H	 -0.839090	 0.161428	 -1.686527
C	 0.874191	 -0.364348	 -0.525482
H	 -1.623564	 -0.347838	 2.327964
H	 -1.339893	 -1.805252	 1.388902
C	 0.420744	 -0.658712	 1.794979
H	 1.434502	 -0.768462	 -1.360248
H	 1.150831	 0.688952	 -0.421186
N	 1.202071	 -1.116315	 0.666395
H	 0.650028	 -1.277727	 2.654243
H	 0.666477	 0.374521	 2.057458
C	 2.616953	 -1.116306	 0.942830
H	 3.158619	 -1.522843	 0.097911
H	 2.825243	 -1.739277	 1.803692
H	 3.009759	 -0.116120	 1.146517

	symmetry c1
}
set optking {
	frozen_dihedral = ("
		6 3 2 4
	")
}

ee,wfn = optimize('scf', return_wfn=True)
oeprop( wfn, 'DIPOLE', 'QUADRUPOLE', 'MULLIKEN_CHARGES')
f=open( 'psi4out.xyz', 'w' )
f.write( "22  " )
f.write( str(ee) + "\n" )
f.write( MOL.save_string_xyz() )
f.close()
--------------------------------------------------------------------------

    Molecular point group: c1
  Charge       = 0
  Multiplicity = 1
  Basis Set: CC-PVTZ
  Basis Set:
  @DF-RHF Final Energy:  -344.34572545343110
    Total Energy =                       -344.3457254534307594
    Molecular point group: c1
  Basis Set: CC-PVTZ
  Basis Set:
  Basis Set: CC-PVTZ
  Basis Set:
  @DF-RHF Final Energy:  -344.34667150050382
    Total Energy =                       -344.3466715005038168
  Basis Set: CC-PVTZ
  Basis Set:
  Basis Set: CC-PVTZ
  Basis Set:
  @DF-RHF Final Energy:  -344.34680889429347
    Total Energy =                       -344.3468088942936447
  Basis Set: CC-PVTZ
  Basis Set:
  Basis Set: CC-PVTZ
  Basis Set:
  @DF-RHF Final Energy:  -344.34681938714357
    Total Energy =                       -344.3468193871435687
  Basis Set: CC-PVTZ
  Basis Set:
  Charge       = 0
  Multiplicity = 1
  Basis Set: CC-PVTZ
  Basis Set:

    Orbital Energies (a.u.)
    -----------------------

    Doubly Occupied:

       1A    -15.537387     2A    -15.534120     3A    -11.237608
       4A    -11.237364     5A    -11.236580     6A    -11.236567
       7A    -11.234259     8A    -11.234040     9A     -1.255881
      10A     -1.204348    11A     -1.026052    12A     -0.992296
      13A     -0.912622    14A     -0.868405    15A     -0.836402
      16A     -0.754009    17A     -0.666347    18A     -0.637317
      19A     -0.632052    20A     -0.626417    21A     -0.621453
      22A     -0.580988    23A     -0.552443    24A     -0.548026
      25A     -0.543119    26A     -0.518945    27A     -0.497174
      28A     -0.488849    29A     -0.467232    30A     -0.457306
      31A     -0.351338    32A     -0.341489

  @DF-RHF Final Energy:  -344.34682030217590

   => Energetics <=

    Nuclear Repulsion Energy =            421.5743801879172565
    One-Electron Energy =               -1302.1055336015394914
    Two-Electron Energy =                 536.1843331114464490
    DFT Exchange-Correlation Energy =       0.0000000000000000
    Empirical Dispersion Energy =           0.0000000000000000
    PCM Polarization Energy =               0.0000000000000000
    EFP Energy =                            0.0000000000000000
    Total Energy =                       -344.3468203021757290
    Molecular point group: c1
  Basis Set: CC-PVTZ
  Basis Set:

  -Total Gradient:
     Atom            X                  Y                   Z
    ------   -----------------  -----------------  -----------------
       1       -0.000017085217    -0.000008652147    -0.000000880700
       2        0.000318854067     0.006973623176    -0.000284367149
       3       -0.000493418155    -0.005708204570     0.001441595042
       4       -0.000197024716    -0.004437506597    -0.000145568236
       5        0.000029508406    -0.000047997066     0.000005945177
       6        0.000350938398     0.003192693890    -0.001068155261
       7        0.000004533827     0.000032264612     0.000019328595
       8       -0.000015712558     0.000008407473     0.000009639623
       9        0.000003842078     0.000001721032     0.000006339331
      10        0.000016677459     0.000019830400     0.000009511470
      11       -0.000004952001    -0.000004075554     0.000002551387
      12        0.000011677742     0.000015427513    -0.000004325992
      13       -0.000005552295    -0.000040279022     0.000022169984
      14        0.000002288595     0.000000314728     0.000002862699
      15        0.000003812242     0.000009342091    -0.000006199965
      16       -0.000018391715     0.000009215210    -0.000011947156
      17        0.000021763958    -0.000001708332     0.000010599512
      18       -0.000015480101    -0.000009910751    -0.000006419983
      19        0.000003157549    -0.000006958049    -0.000002085927
      20        0.000000301379     0.000001147299     0.000001216498
      21        0.000001880725     0.000000830509    -0.000000196236
      22       -0.000001619669     0.000000474156    -0.000001612713

  **** Optimization is complete! (in 5 steps) ****
    Final optimized geometry and variables:
    Molecular point group: c1

    Geometry (in Angstrom), charge = 0, multiplicity = 1:

    H           -3.244427298759    -0.289847404126    -0.124532132374
    C           -2.714193821434     0.592984505599    -0.486114947863
    N           -1.294952280518     0.522356369889    -0.216550248583
    H           -2.894790733192     0.633720996915    -1.552217562758
    H           -3.159681752767     1.462935632516    -0.017938590236
    C           -0.493981721694     0.071391778442    -1.331064291497
    C           -0.979817662558    -0.181261863241     1.003347549197
    H           -0.720747866929    -0.963851473011    -1.605044466861
    H           -0.708385537211     0.692669123778    -2.191715454005
    C            0.983412425598     0.177425980054    -0.999861465635
    H           -1.549489305377     0.253374554669     1.816926945534
    H           -1.257024118095    -1.237781984432     0.937036497558
    C            0.500564887597    -0.077477535140     1.318992796757
    H            1.562889984277    -0.232893315024    -1.818457824818
    H            1.250686481748     1.234054498434    -0.902868816427
    N            1.293943850855    -0.556504743171     0.207869065482
    H            0.722750061310    -0.677614936735     2.193505333559
    H            0.741803438287     0.961756520147     1.561668227750
    C            2.705227249653    -0.555204190373     0.501795850139
    H            3.256314927104    -0.977591858064    -0.329187825524
    H            2.901328829876    -1.163605648630     1.375894317435
    H            3.098360942509     0.447436278385     0.693065952978

  Mulliken Charges: (a.u.)
   Center  Symbol    Alpha    Beta     Spin     Total
       1     H     0.46703  0.46703  0.00000  0.06593
       2     C     3.09497  3.09497  0.00000 -0.18993
       3     N     3.61394  3.61394  0.00000 -0.22788
       4     H     0.45617  0.45617  0.00000  0.08766
       5     H     0.44978  0.44978  0.00000  0.10044
       6     C     3.03373  3.03373  0.00000 -0.06745
       7     C     3.03443  3.03443  0.00000 -0.06886
       8     H     0.46976  0.46976  0.00000  0.06048
       9     H     0.45392  0.45392  0.00000  0.09215
      10     C     3.03644  3.03644  0.00000 -0.07289
      11     H     0.45393  0.45393  0.00000  0.09214
      12     H     0.46848  0.46848  0.00000  0.06305
      13     C     3.03666  3.03666  0.00000 -0.07332
      14     H     0.45405  0.45405  0.00000  0.09190
      15     H     0.46867  0.46867  0.00000  0.06267
      16     N     3.61310  3.61310  0.00000 -0.22621
      17     H     0.45401  0.45401  0.00000  0.09198
      18     H     0.46852  0.46852  0.00000  0.06296
      19     C     3.09830  3.09830  0.00000 -0.19661
      20     H     0.45195  0.45195  0.00000  0.09609
      21     H     0.45195  0.45195  0.00000  0.09611
      22     H     0.47021  0.47021  0.00000  0.05959

   Total alpha = 32.00000, Total beta = 32.00000, Total charge =  0.00000

*** Psi4 exiting successfully. Buy a developer a beer!
