  ==> Input File <==

--------------------------------------------------------------------------
set {
	reference rhf
	basis cc-pvtz
}

set_num_threads( 4 )
memory 2 gb

molecule MOL {
0 1

H	 -0.185259	 2.322275	 -0.895349
C	 0.354178	 2.051345	 0.021852
C	 0.692262	 0.592428	 0.156232
O	 0.622909	 2.883458	 0.817469
C	 -0.554654	 -0.292621	 0.086567
H	 1.226439	 0.448390	 1.086149
H	 1.362353	 0.336915	 -0.662040
C	 -1.846385	 0.513195	 -0.016346
H	 -0.473986	 -0.956115	 -0.769708
H	 -0.597929	 -0.929215	 0.966651
C	 -3.089953	 -0.365049	 -0.098564
H	 -1.798267	 1.154820	 -0.891143
H	 -1.925398	 1.173265	 0.842889
H	 -3.055079	 -1.012299	 -0.968245
H	 -3.988403	 0.236438	 -0.170014
H	 -3.183055	 -0.995885	 0.779079

	symmetry c1
}
set optking {
	frozen_dihedral = ("
		6 3 5 9
	")
}

ee = optimize('scf')
oeprop('DIPOLE', 'QUADRUPOLE', 'MULLIKEN_CHARGES')
f=open( 'psi4out.xyz', 'w' )
f.write( "16  " )
f.write( str(ee) + "\n" )
f.write( MOL.save_string_xyz() )
f.close()
--------------------------------------------------------------------------

    Molecular point group: c1
  Charge       = 0
  Multiplicity = 1
  Basis Set: CC-PVTZ
  Basis Set:
  @DF-RHF Final Energy:  -270.10651691056108
    Total Energy =                       -270.1065169105610266
    Molecular point group: c1
  Basis Set: CC-PVTZ
  Basis Set:
  Basis Set: CC-PVTZ
  Basis Set:
  @DF-RHF Final Energy:  -270.11002480896843
    Total Energy =                       -270.1100248089687739
  Basis Set: CC-PVTZ
  Basis Set:
  Basis Set: CC-PVTZ
  Basis Set:
  @DF-RHF Final Energy:  -270.11025188617111
    Total Energy =                       -270.1102518861711133
  Basis Set: CC-PVTZ
  Basis Set:
  Basis Set: CC-PVTZ
  Basis Set:
  @DF-RHF Final Energy:  -270.11036737448137
    Total Energy =                       -270.1103673744815410
  Basis Set: CC-PVTZ
  Basis Set:
  Basis Set: CC-PVTZ
  Basis Set:
  @DF-RHF Final Energy:  -270.11044216529825
    Total Energy =                       -270.1104421652980818
  Basis Set: CC-PVTZ
  Basis Set:
  Basis Set: CC-PVTZ
  Basis Set:
  @DF-RHF Final Energy:  -270.11044416270749
    Total Energy =                       -270.1104441627075516
  Basis Set: CC-PVTZ
  Basis Set:
  Basis Set: CC-PVTZ
  Basis Set:
  @DF-RHF Final Energy:  -270.11044923210659
    Total Energy =                       -270.1104492321064185
  Basis Set: CC-PVTZ
  Basis Set:
  Charge       = 0
  Multiplicity = 1
  Basis Set: CC-PVTZ
  Basis Set:

    Orbital Energies (a.u.)
    -----------------------

    Doubly Occupied:

       1A    -20.550648     2A    -11.320634     3A    -11.234264
       4A    -11.233607     5A    -11.227315     6A    -11.216414
       7A     -1.405575     8A     -1.093256     9A     -1.016594
      10A     -0.906597    11A     -0.833348    12A     -0.774338
      13A     -0.677471    14A     -0.646049    15A     -0.629538
      16A     -0.604644    17A     -0.583382    18A     -0.562067
      19A     -0.524412    20A     -0.512651    21A     -0.494234
      22A     -0.475594    23A     -0.469633    24A     -0.410597

  @DF-RHF Final Energy:  -270.11045000351243

   => Energetics <=

    Nuclear Repulsion Energy =            234.2621033443334113
    One-Electron Energy =                -829.9393874317422615
    Two-Electron Energy =                 325.5668340838965378
    DFT Exchange-Correlation Energy =       0.0000000000000000
    Empirical Dispersion Energy =           0.0000000000000000
    PCM Polarization Energy =               0.0000000000000000
    EFP Energy =                            0.0000000000000000
    Total Energy =                       -270.1104500035123692
    Molecular point group: c1
  Basis Set: CC-PVTZ
  Basis Set:

  -Total Gradient:
     Atom            X                  Y                   Z
    ------   -----------------  -----------------  -----------------
       1        0.000020429814    -0.000002294286    -0.000014985142
       2        0.000005810863    -0.000013464581     0.000010036321
       3       -0.000912909161     0.001320209618     0.001062616789
       4       -0.000077156757    -0.000033062715     0.000005395879
       5       -0.000674398722     0.001152461165    -0.001365999997
       6        0.000920595732    -0.001251479754    -0.000712773777
       7       -0.000024087951    -0.000014703150    -0.000009690457
       8        0.000051575068     0.000026688407    -0.000020791057
       9        0.000672936781    -0.001211901350     0.000989216311
      10        0.000014365543     0.000029472729     0.000027123337
      11        0.000002765828    -0.000001853235    -0.000025407665
      12        0.000017409819     0.000038456514     0.000027732760
      13       -0.000012889204    -0.000039478646     0.000027315577
      14        0.000003491406    -0.000004541721     0.000005874097
      15       -0.000003302321    -0.000001074834    -0.000008022890
      16       -0.000004636740     0.000006565841     0.000002359915

  **** Optimization is complete! (in 8 steps) ****
    Final optimized geometry and variables:
    Molecular point group: c1

    Geometry (in Angstrom), charge = 0, multiplicity = 1:

    H            0.760705479806     1.530882900999    -1.120902568766
    C            1.125877010623     1.189056345898    -0.145927967290
    C            1.326234279912    -0.296057069227    -0.005556616354
    O            1.356474349677     1.977516348491     0.705067058157
    C            0.040547728219    -1.159097773001    -0.135220392017
    H            1.814574357178    -0.473893143335     0.941946260533
    H            2.028491728601    -0.581954129948    -0.783890800108
    C           -1.285823710745    -0.401664525180    -0.214855504961
    H            0.129842774445    -1.812902599789    -0.995120297482
    H            0.000551460644    -1.816700036177     0.725453393979
    C           -2.483906876249    -1.344606507278    -0.234623467064
    H           -1.311609690182     0.218462891435    -1.105274241354
    H           -1.373032048323     0.271974091211     0.632232347841
    H           -2.439297582846    -2.016797873170    -1.084982987867
    H           -3.413724764239    -0.792069287920    -0.297940515890
    H           -2.518861633791    -1.950683084559     0.664169686390

  Mulliken Charges: (a.u.)
   Center  Symbol    Alpha    Beta     Spin     Total
       1     H     0.46175  0.46175  0.00000  0.07651
       2     C     2.90529  2.90529  0.00000  0.18943
       3     C     3.08500  3.08500  0.00000 -0.17000
       4     O     4.16811  4.16811  0.00000 -0.33622
       5     C     3.10073  3.10073  0.00000 -0.20146
       6     H     0.44157  0.44157  0.00000  0.11686
       7     H     0.44793  0.44793  0.00000  0.10413
       8     C     3.09587  3.09587  0.00000 -0.19174
       9     H     0.44772  0.44772  0.00000  0.10456
      10     H     0.44652  0.44652  0.00000  0.10695
      11     C     3.15086  3.15086  0.00000 -0.30172
      12     H     0.45183  0.45183  0.00000  0.09633
      13     H     0.44301  0.44301  0.00000  0.11398
      14     H     0.45479  0.45479  0.00000  0.09042
      15     H     0.44573  0.44573  0.00000  0.10854
      16     H     0.45329  0.45329  0.00000  0.09342

   Total alpha = 24.00000, Total beta = 24.00000, Total charge = -0.00000
