  ==> Input File <==

--------------------------------------------------------------------------
set {
	reference rhf
	basis 6-31G*
}

set_num_threads( 4 )
memory 2 gb

molecule MOL {
0 1

H	 0.412265	 -1.169615	 -1.116636
C	 0.481917	 -0.114878	 -1.410546
C	 0.065331	 0.871482	 -0.349150
O	 0.867612	 0.178348	 -2.495431
C	 -1.339775	 0.583656	 0.198860
H	 0.131634	 1.870108	 -0.765398
H	 0.788834	 0.797156	 0.461517
C	 -1.808407	 -0.848507	 -0.061364
H	 -2.036183	 1.280685	 -0.256307
H	 -1.360094	 0.788874	 1.267089
H	 -1.828843	 -1.063152	 -1.125336
H	 -2.808409	 -1.004529	 0.329750
H	 -1.153967	 -1.577789	 0.406873

	symmetry c1
}
set optking {
	frozen_dihedral = ("
		6 3 5 9
	")
}

ee = optimize('scf')
oeprop('DIPOLE', 'QUADRUPOLE', 'MULLIKEN_CHARGES')
f=open( 'psi4out.xyz', 'w' )
f.write( "13  " )
f.write( str(ee) + "\n" )
f.write( MOL.save_string_xyz() )
f.close()
--------------------------------------------------------------------------

    Molecular point group: c1
  Charge       = 0
  Multiplicity = 1
  Basis Set: 6-31G*
  Basis Set:
  @DF-RHF Final Energy:  -230.97517792945217
    Total Energy =                       -230.9751779294522578
    Molecular point group: c1
  Basis Set: 6-31G*
  Basis Set:
  Basis Set: 6-31G*
  Basis Set:
  @DF-RHF Final Energy:  -230.97560572741094
    Total Energy =                       -230.9756057274109367
  Basis Set: 6-31G*
  Basis Set:
  Basis Set: 6-31G*
  Basis Set:
  @DF-RHF Final Energy:  -230.97381400351011
    Total Energy =                       -230.9738140035098581
  Basis Set: 6-31G*
  Basis Set:
  Basis Set: 6-31G*
  Basis Set:
  @DF-RHF Final Energy:  -230.97785853007613
    Total Energy =                       -230.9778585300759914
  Basis Set: 6-31G*
  Basis Set:
  @DF-RHF Final Energy:  -230.97820275202872
    Total Energy =                       -230.9782027520287215
  Basis Set: 6-31G*
  Basis Set:
  @DF-RHF Final Energy:  -230.97824805165413
    Total Energy =                       -230.9782480516541625
  Basis Set: 6-31G*
  Basis Set:
  Basis Set: 6-31G*
  Basis Set:
  @DF-RHF Final Energy:  -230.97828969110117
    Total Energy =                       -230.9782896911011676
  Basis Set: 6-31G*
  Basis Set:
  Basis Set: 6-31G*
  Basis Set:
  @DF-RHF Final Energy:  -230.97830646566763
    Total Energy =                       -230.9783064656674867
  Basis Set: 6-31G*
  Basis Set:
  Charge       = 0
  Multiplicity = 1
  Basis Set: 6-31G*
  Basis Set:

    Orbital Energies (a.u.)
    -----------------------

    Doubly Occupied:

       1A    -20.561904     2A    -11.325571     3A    -11.238848
       4A    -11.235143     5A    -11.225561     6A     -1.401617
       7A     -1.082184     8A     -0.973411     9A     -0.858405
      10A     -0.775308    11A     -0.678196    12A     -0.637643
      13A     -0.619116    14A     -0.603003    15A     -0.560649
      16A     -0.530721    17A     -0.516032    18A     -0.487362
      19A     -0.479025    20A     -0.408019

  @DF-RHF Final Energy:  -230.97830803956973

   => Energetics <=

    Nuclear Repulsion Energy =            174.0818985968072354
    One-Electron Energy =                -657.7249764072337257
    Two-Electron Energy =                 252.6647697708567648
    DFT Exchange-Correlation Energy =       0.0000000000000000
    Empirical Dispersion Energy =           0.0000000000000000
    PCM Polarization Energy =               0.0000000000000000
    EFP Energy =                            0.0000000000000000
    Total Energy =                       -230.9783080395696970
    Molecular point group: c1
  Basis Set: 6-31G*
  Basis Set:

  -Total Gradient:
     Atom            X                  Y                   Z
    ------   -----------------  -----------------  -----------------
       1        0.000001517993     0.000041669163     0.000006573497
       2       -0.000018333416    -0.000063435848    -0.000039572197
       3        0.001535247465     0.002672510127     0.006173808407
       4        0.000009749250     0.000017809624    -0.000007317774
       5       -0.001010671222    -0.004052756399    -0.005389802708
       6       -0.001130480730    -0.001639527514    -0.004327634179
       7       -0.000014093219     0.000010504817     0.000012190905
       8       -0.000002059451     0.000021864189    -0.000005908846
       9        0.000637829697     0.002997795135     0.003575369108
      10       -0.000019758463     0.000016783611     0.000015516050
      11       -0.000010930734    -0.000012223903    -0.000011806699
      12        0.000018094695    -0.000007284158    -0.000011958767
      13        0.000003888133    -0.000003708845     0.000010543210

  **** Optimization is complete! (in 9 steps) ****
    Final optimized geometry and variables:
    Molecular point group: c1

    Geometry (in Angstrom), charge = 0, multiplicity = 1:

    H            1.146446285255    -1.251388506944    -0.298365488047
    C            0.935620013600    -0.216066830344    -0.583779353410
    C            0.483933002108     0.701840294832     0.528800731891
    O            1.072917747579     0.127240687354    -1.713893047810
    C           -0.965983285740     0.433926351277     1.011517682444
    H            0.563382621195     1.705597091384     0.130753044402
    H            1.180544384774     0.588198633567     1.354997094878
    C           -1.492351184529    -0.989093448299     0.815578995507
    H           -1.628485947276     1.146170155798     0.531791849722
    H           -1.013001790551     0.676033118024     2.069041451571
    H           -1.545026267804    -1.262159575673    -0.233788652943
    H           -2.493452937587    -1.074259797556     1.224171074851
    H           -0.869796780043    -1.721335068882     1.321819930641

  Mulliken Charges: (a.u.)
   Center  Symbol    Alpha    Beta     Spin     Total
       1     H     0.42960  0.42960  0.00000  0.14080
       2     C     2.83764  2.83764  0.00000  0.32471
       3     C     3.20840  3.20840  0.00000 -0.41679
       4     O     4.23676  4.23676  0.00000 -0.47351
       5     C     3.15785  3.15785  0.00000 -0.31570
       6     H     0.39760  0.39760  0.00000  0.20479
       7     H     0.41149  0.41149  0.00000  0.17702
       8     C     3.25195  3.25195  0.00000 -0.50390
       9     H     0.40960  0.40960  0.00000  0.18081
      10     H     0.41451  0.41451  0.00000  0.17098
      11     H     0.41313  0.41313  0.00000  0.17374
      12     H     0.41215  0.41215  0.00000  0.17569
      13     H     0.41932  0.41932  0.00000  0.16136

   Total alpha = 20.00000, Total beta = 20.00000, Total charge =  0.00000
