                              Psi4 1.0.54 Driver

  ==> Input File <==

--------------------------------------------------------------------------
set {
	reference rhf
	basis cc-pvtz
}

set_num_threads( 4 )
memory 2 gb

molecule MOL {
0 1

O	 1.973667	 1.063019	 -0.662022
C	 1.704209	 0.119472	 -0.000093
C	 0.380337	 -0.600947	 -0.000234
O	 2.554277	 -0.437701	 0.846878
C	 -0.824290	 0.329213	 -0.000115
H	 0.371455	 -1.255476	 -0.865660
H	 0.371410	 -1.255787	 0.864952
C	 -2.146151	 -0.432825	 -0.000068
H	 -0.773936	 0.979158	 -0.866319
H	 -0.773838	 0.979034	 0.866186
C	 -3.366283	 0.483552	 0.000557
H	 -2.189286	 -1.084450	 -0.869996
H	 -2.188867	 -1.085083	 0.869399
C	 -4.687436	 -0.278003	 0.000108
H	 -3.325150	 1.134819	 -0.867957
H	 -3.325087	 1.133730	 0.869885
H	 -4.773783	 -0.912098	 -0.876078
H	 -5.531922	 0.401392	 0.000363
H	 -4.773901	 -0.912898	 0.875703
C	 3.840451	 0.139040	 0.949097
H	 4.350451	 0.104654	 -0.002181
H	 4.373251	 -0.449150	 1.678484
H	 3.772886	 1.166149	 1.275741

	symmetry c1
}
set optking {
	frozen_dihedral = ("
		1 2 3 6
	")
}

ee,wfn = optimize('scf', return_wfn=True)
oeprop( wfn, 'DIPOLE', 'QUADRUPOLE', 'MULLIKEN_CHARGES')
f=open( 'psi4out.xyz', 'w' )
f.write( "23  " )
f.write( str(ee) + "\n" )
f.write( MOL.save_string_xyz() )
f.close()
--------------------------------------------------------------------------

    Molecular point group: c1
  Charge       = 0
  Multiplicity = 1
  Basis Set: CC-PVTZ
  Basis Set:
  @DF-RHF Final Energy:  -423.12961018310801
    Total Energy =                       -423.1296101831081842
    Molecular point group: c1
  Basis Set: CC-PVTZ
  Basis Set:
  Basis Set: CC-PVTZ
  Basis Set:
  @DF-RHF Final Energy:  -423.12937792430176
    Total Energy =                       -423.1293779243015933
  Basis Set: CC-PVTZ
  Basis Set:
  Basis Set: CC-PVTZ
  Basis Set:
  @DF-RHF Final Energy:  -423.12970980612124
    Total Energy =                       -423.1297098061208999
  Basis Set: CC-PVTZ
  Basis Set:
  Basis Set: CC-PVTZ
  Basis Set:
  @DF-RHF Final Energy:  -423.13012994413486
    Total Energy =                       -423.1301299441350920
  Basis Set: CC-PVTZ
  Basis Set:
  Basis Set: CC-PVTZ
  Basis Set:
  @DF-RHF Final Energy:  -423.13013663379269
    Total Energy =                       -423.1301366337928584
  Basis Set: CC-PVTZ
  Basis Set:
  Basis Set: CC-PVTZ
  Basis Set:
  @DF-RHF Final Energy:  -423.13013804567606
    Total Energy =                       -423.1301380456766310
  Basis Set: CC-PVTZ
  Basis Set:
  Charge       = 0
  Multiplicity = 1
  Basis Set: CC-PVTZ
  Basis Set:

    Orbital Energies (a.u.)
    -----------------------

    Doubly Occupied:

       1A    -20.598230     2A    -20.532008     3A    -11.364396
       4A    -11.278563     5A    -11.232925     6A    -11.220188
       7A    -11.216755     8A    -11.215356     9A    -11.208306
      10A     -1.472627    11A     -1.364980    12A     -1.095161
      13A     -1.044663    14A     -0.987911    15A     -0.933639
      16A     -0.844548    17A     -0.796265    18A     -0.771750
      19A     -0.698198    20A     -0.685376    21A     -0.675301
      22A     -0.653871    23A     -0.609184    24A     -0.600085
      25A     -0.574721    26A     -0.568062    27A     -0.549816
      28A     -0.527762    29A     -0.525018    30A     -0.506904
      31A     -0.485519    32A     -0.472378    33A     -0.467370
      34A     -0.464137    35A     -0.458935    36A     -0.435729

  @DF-RHF Final Energy:  -423.13013812227422

   => Energetics <=

    Nuclear Repulsion Energy =            453.1022980380132026
    One-Electron Energy =               -1474.1916065282925956
    Two-Electron Energy =                 597.9591703680058572
    DFT Exchange-Correlation Energy =       0.0000000000000000
    Empirical Dispersion Energy =           0.0000000000000000
    PCM Polarization Energy =               0.0000000000000000
    EFP Energy =                            0.0000000000000000
    Total Energy =                       -423.1301381222734790
    Molecular point group: c1
  Basis Set: CC-PVTZ
  Basis Set:

  -Total Gradient:
     Atom            X                  Y                   Z
    ------   -----------------  -----------------  -----------------
       1        0.000312799091    -0.000586843288    -0.000668427198
       2       -0.000534838361     0.000984863252     0.000866196398
       3        0.000594699065    -0.001031287888     0.000302139369
       4        0.000019989057    -0.000005890155     0.000016540441
       5       -0.000007925131     0.000008020833    -0.000004078769
       6       -0.000368527352     0.000632758899    -0.000497974222
       7        0.000001797906     0.000004061383    -0.000002747587
       8        0.000001431119     0.000002071757    -0.000004563943
       9        0.000001181965    -0.000001857387    -0.000001658130
      10       -0.000001685452     0.000002147009     0.000000596720
      11       -0.000000748128    -0.000000318941     0.000002320928
      12       -0.000000754036    -0.000001410749    -0.000003996761
      13        0.000000585919    -0.000001273051    -0.000000743179
      14        0.000000274060    -0.000000311201     0.000002392544
      15        0.000000921968    -0.000001390724    -0.000001039724
      16        0.000000460155     0.000004136933     0.000002766182
      17        0.000000232210    -0.000001610655    -0.000002105740
      18       -0.000000598040     0.000001010931     0.000000434286
      19       -0.000001541375    -0.000001092627     0.000001788006
      20       -0.000038855416    -0.000011861731    -0.000004843264
      21        0.000017002372    -0.000000374715    -0.000015394887
      22       -0.000003264506    -0.000005765692     0.000005351213
      23        0.000007362913     0.000012217805     0.000007047319

  **** Optimization is complete! (in 7 steps) ****
    Final optimized geometry and variables:
    Molecular point group: c1

    Geometry (in Angstrom), charge = 0, multiplicity = 1:

    O            1.950954360154     1.039910997289    -0.690203797710
    C            1.717207756719     0.100747711651    -0.007406534388
    C            0.412745800868    -0.656725126763    -0.011003192535
    O            2.599095571591    -0.424475592473     0.825252574262
    C           -0.803047254160     0.259471281036    -0.125716903203
    H            0.452388399067    -1.318767106117    -0.871497372379
    H            0.359046763082    -1.278976652847     0.871331808052
    C           -2.112419473901    -0.518965793866    -0.206953331016
    H           -0.689301043079     0.887910924943    -0.999955497417
    H           -0.830365731696     0.926394734556     0.731267038952
    C           -3.339639098267     0.381794708546    -0.312079826755
    H           -2.082258940325    -1.184173973106    -1.066916254083
    H           -2.211278293352    -1.157516492689     0.667882496888
    C           -4.647963791466    -0.396864412710    -0.398148416767
    H           -3.241267254132     1.019826274048    -1.185700148950
    H           -3.371483111351     1.045712047797     0.547354424871
    H           -4.661380988323    -1.044905958051    -1.268202684342
    H           -5.498082776227     0.271473101012    -0.471219964040
    H           -4.791577732024    -1.019701449001     0.478601231168
    C            3.880218478247     0.171412089021     0.871925999149
    H            4.359086747029     0.121233114309    -0.094713858628
    H            4.444166891241    -0.392660384816     1.596943406122
    H            3.808606038681     1.204887884929     1.176444764233

  Mulliken Charges: (a.u.)
   Center  Symbol    Alpha    Beta     Spin     Total
       1     O     4.20170  4.20170  0.00000 -0.40340
       2     C     2.81516  2.81516  0.00000  0.36968
       3     C     3.08675  3.08675  0.00000 -0.17350
       4     O     4.14350  4.14350  0.00000 -0.28700
       5     C     3.09108  3.09108  0.00000 -0.18217
       6     H     0.44540  0.44540  0.00000  0.10921
       7     H     0.43808  0.43808  0.00000  0.12385
       8     C     3.09009  3.09009  0.00000 -0.18018
       9     H     0.43896  0.43896  0.00000  0.12207
      10     H     0.45176  0.45176  0.00000  0.09649
      11     C     3.08409  3.08409  0.00000 -0.16818
      12     H     0.45455  0.45455  0.00000  0.09089
      13     H     0.45537  0.45537  0.00000  0.08926
      14     C     3.15035  3.15035  0.00000 -0.30071
      15     H     0.45260  0.45260  0.00000  0.09480
      16     H     0.45388  0.45388  0.00000  0.09223
      17     H     0.45497  0.45497  0.00000  0.09006
      18     H     0.44770  0.44770  0.00000  0.10460
      19     H     0.45537  0.45537  0.00000  0.08926
      20     C     3.03512  3.03512  0.00000 -0.07025
      21     H     0.45431  0.45431  0.00000  0.09137
      22     H     0.44502  0.44502  0.00000  0.10995
      23     H     0.45417  0.45417  0.00000  0.09166

   Total alpha = 36.00000, Total beta = 36.00000, Total charge =  0.00000

*** Psi4 exiting successfully. Buy a developer a beer!
