  ==> Input File <==

--------------------------------------------------------------------------
set {
	reference rhf
	basis 6-31G*
}

set_num_threads( 4 )
memory 2 gb

molecule MOL {
0 1

H	 -2.798360	 -0.862255	 -0.071053
N	 -1.863561	 -0.715187	 0.256814
C	 -1.344686	 0.554728	 -0.219830
H	 -1.300452	 -1.461917	 -0.101532
C	 -2.388670	 1.255933	 -1.063362
H	 -1.037276	 1.230953	 0.579057
H	 -0.472858	 0.363281	 -0.837927
O	 -3.477175	 1.569837	 -0.242565
H	 -1.973234	 2.164829	 -1.498057
H	 -2.703405	 0.602182	 -1.873786
C	 -4.553403	 2.145998	 -0.911401
H	 -5.325967	 2.343597	 -0.180787
H	 -4.270915	 3.083878	 -1.386336
H	 -4.950844	 1.479144	 -1.673737

	symmetry c1
}
set optking {
	frozen_dihedral = ("
		6 3 2 4
	")
}

ee = optimize('scf')
oeprop('DIPOLE', 'QUADRUPOLE', 'MULLIKEN_CHARGES')
f=open( 'psi4out.xyz', 'w' )
f.write( "14  " )
f.write( str(ee) + "\n" )
f.write( MOL.save_string_xyz() )
f.close()
--------------------------------------------------------------------------

    Molecular point group: c1
  Charge       = 0
  Multiplicity = 1
  Basis Set: 6-31G*
  Basis Set:
  @DF-RHF Final Energy:  -248.11640372615656
    Total Energy =                       -248.1164037261563635
    Molecular point group: c1
  Basis Set: 6-31G*
  Basis Set:
  Basis Set: 6-31G*
  Basis Set:
  @DF-RHF Final Energy:  -248.11844663435878
    Total Energy =                       -248.1184466343588042
  Basis Set: 6-31G*
  Basis Set:
  Basis Set: 6-31G*
  Basis Set:
  @DF-RHF Final Energy:  -248.11889065076764
    Total Energy =                       -248.1188906507674687
  Basis Set: 6-31G*
  Basis Set:
  Basis Set: 6-31G*
  Basis Set:
  @DF-RHF Final Energy:  -248.11895017393684
    Total Energy =                       -248.1189501739369803
  Basis Set: 6-31G*
  Basis Set:
  Basis Set: 6-31G*
  Basis Set:
  @DF-RHF Final Energy:  -248.11895926079421
    Total Energy =                       -248.1189592607942132
  Basis Set: 6-31G*
  Basis Set:
  Charge       = 0
  Multiplicity = 1
  Basis Set: 6-31G*
  Basis Set:

    Orbital Energies (a.u.)
    -----------------------

    Doubly Occupied:

       1A    -20.560195     2A    -15.523156     3A    -11.271044
       4A    -11.268775     5A    -11.241260     6A     -1.385109
       7A     -1.168409     8A     -1.000378     9A     -0.910127
      10A     -0.821147    11A     -0.685533    12A     -0.674167
      13A     -0.650402    14A     -0.616896    15A     -0.589748
      16A     -0.566590    17A     -0.519056    18A     -0.498611
      19A     -0.479585    20A     -0.420298    21A     -0.367719

  @DF-RHF Final Energy:  -248.11896050305413

   => Energetics <=

    Nuclear Repulsion Energy =            194.3745120883422999
    One-Electron Energy =                -722.5505325295027887
    Two-Electron Energy =                 280.0570599381064767
    DFT Exchange-Correlation Energy =       0.0000000000000000
    Empirical Dispersion Energy =           0.0000000000000000
    PCM Polarization Energy =               0.0000000000000000
    EFP Energy =                            0.0000000000000000
    Total Energy =                       -248.1189605030540406
    Molecular point group: c1
  Basis Set: 6-31G*
  Basis Set:

  -Total Gradient:
     Atom            X                  Y                   Z
    ------   -----------------  -----------------  -----------------
       1       -0.000014640654     0.000009174159     0.000002205872
       2       -0.002599165803    -0.000767925302    -0.003872673345
       3       -0.003431477800     0.001871064357     0.001240465774
       4        0.002694209441     0.000354590054     0.002978860663
       5       -0.000108384053     0.000017567587     0.000040648218
       6        0.003316960012    -0.001446822958    -0.000371357449
       7        0.000035376395     0.000023814224    -0.000023630531
       8       -0.000029000678    -0.000000943973     0.000030708481
       9        0.000071254090    -0.000011078276    -0.000024369824
      10        0.000051111226    -0.000026401879    -0.000004007218
      11       -0.000007031469    -0.000010586328    -0.000004191152
      12        0.000009475719    -0.000007465896     0.000001053587
      13        0.000012304715    -0.000004319420     0.000005422757
      14       -0.000000991142    -0.000000666350     0.000000864165

  **** Optimization is complete! (in 6 steps) ****
    Final optimized geometry and variables:
    Molecular point group: c1

    Geometry (in Angstrom), charge = 0, multiplicity = 1:

    H           -0.053581309444    -1.772671069583     0.656471520989
    N            0.931832852998    -1.652003389838     0.756380131141
    C            1.404834071680    -0.397899510774     0.194927996650
    H            1.420507560652    -2.447214681637     0.405863290352
    C            0.355182336703     0.335350829146    -0.619137735311
    H            1.770367318893     0.248433333715     0.987519816528
    H            2.254976169131    -0.579575044385    -0.458940813511
    O           -0.769038566089     0.551369722258     0.179734859917
    H            0.756844020968     1.284111680695    -0.974845138085
    H            0.081547698834    -0.257287239529    -1.493242558243
    C           -1.815565123743     1.203894989430    -0.465866256199
    H           -2.623119421163     1.309889349071     0.245225365870
    H           -1.516140626794     2.192294443678    -0.809063563089
    H           -2.172004303424     0.635080403706    -1.322938669880

  Mulliken Charges: (a.u.)
   Center  Symbol    Alpha    Beta     Spin     Total
       1     H     0.32110  0.32110  0.00000  0.35780
       2     N     3.93577  3.93577  0.00000 -0.87154
       3     C     3.05303  3.05303  0.00000 -0.10607
       4     H     0.33104  0.33104  0.00000  0.33793
       5     C     3.00162  3.00162  0.00000 -0.00324
       6     H     0.41448  0.41448  0.00000  0.17104
       7     H     0.42727  0.42727  0.00000  0.14546
       8     O     4.30356  4.30356  0.00000 -0.60713
       9     H     0.42936  0.42936  0.00000  0.14129
      10     H     0.43362  0.43362  0.00000  0.13276
      11     C     3.07977  3.07977  0.00000 -0.15954
      12     H     0.41036  0.41036  0.00000  0.17928
      13     H     0.42878  0.42878  0.00000  0.14243
      14     H     0.43023  0.43023  0.00000  0.13953

   Total alpha = 21.00000, Total beta = 21.00000, Total charge =  0.00000
