                              Psi4 1.0.54 Driver

  ==> Input File <==

--------------------------------------------------------------------------
set {
	reference rhf
	basis cc-pvtz
}

set_num_threads( 4 )
memory 2 gb

molecule MOL {
0 1

H	 0.000188	 -1.351342	 -1.189314
N	 -0.000017	 -1.226287	 -0.198220
C	 1.151038	 -0.424141	 0.188936
C	 -1.151171	 -0.424049	 0.188472
H	 2.037369	 -0.738258	 -0.345628
H	 1.338031	 -0.582351	 1.245724
C	 0.773170	 1.047861	 -0.069418
H	 -1.338713	 -0.582401	 1.245135
H	 -2.037272	 -0.737968	 -0.346581
C	 -0.773020	 1.047986	 -0.069429
H	 1.154394	 1.375928	 -1.028901
H	 1.188183	 1.709241	 0.680367
H	 -1.187934	 1.709181	 0.680602
H	 -1.154203	 1.376455	 -1.028774

	symmetry c1
}
ee,wfn = energy('scf', return_wfn=True)
oeprop( wfn, 'DIPOLE', 'QUADRUPOLE', 'MULLIKEN_CHARGES')
oeprop( wfn, 'GRID_ESP')
f=open( 'psi4out.xyz', 'w' )
f.write( "14  " )
f.write( str(ee) + "\n" )
f.write( MOL.save_string_xyz() )
f.close()
--------------------------------------------------------------------------

    Molecular point group: c1

    Geometry (in Angstrom), charge = 0, multiplicity = 1:

       Center              X                  Y                   Z               Mass
    ------------   -----------------  -----------------  -----------------  -----------------
           H          0.000187869372    -1.351280487662    -1.189299775257     1.007825032070
           N         -0.000017130628    -1.226225487662    -0.198205775257    14.003074004780
           C          1.151037869372    -0.424079487662     0.188950224743    12.000000000000
           C         -1.151171130628    -0.423987487662     0.188486224743    12.000000000000
           H          2.037368869372    -0.738196487662    -0.345613775257     1.007825032070
           H          1.338030869372    -0.582289487662     1.245738224743     1.007825032070
           C          0.773169869372     1.047922512338    -0.069403775257    12.000000000000
           H         -1.338713130628    -0.582339487662     1.245149224743     1.007825032070
           H         -2.037272130628    -0.737906487662    -0.346566775257     1.007825032070
           C         -0.773020130628     1.048047512338    -0.069414775257    12.000000000000
           H          1.154393869372     1.375989512338    -1.028886775257     1.007825032070
           H          1.188182869372     1.709302512338     0.680381224743     1.007825032070
           H         -1.187934130628     1.709242512338     0.680616224743     1.007825032070
           H         -1.154203130628     1.376516512338    -1.028759775257     1.007825032070

  Charge       = 0
  Multiplicity = 1
  Basis Set: CC-PVTZ
  Basis Set:

    Orbital Energies (a.u.)
    -----------------------

    Doubly Occupied:

       1A    -15.529745     2A    -11.236316     3A    -11.236296
       4A    -11.211887     5A    -11.211317     6A     -1.221457
       7A     -1.020830     8A     -0.973044     9A     -0.817192
      10A     -0.787111    11A     -0.681467    12A     -0.640462
      13A     -0.590683    14A     -0.587457    15A     -0.513888
      16A     -0.495804    17A     -0.478335    18A     -0.475352
      19A     -0.457816    20A     -0.369887

  @DF-RHF Final Energy:  -211.22038448654166

   => Energetics <=

    Nuclear Repulsion Energy =            191.0124023223920631
    One-Electron Energy =                -663.3926256968911730
    Two-Electron Energy =                 261.1598388879575623
    DFT Exchange-Correlation Energy =       0.0000000000000000
    Empirical Dispersion Energy =           0.0000000000000000
    PCM Polarization Energy =               0.0000000000000000
    EFP Energy =                            0.0000000000000000
    Total Energy =                       -211.2203844865415476

  Mulliken Charges: (a.u.)
   Center  Symbol    Alpha    Beta     Spin     Total
       1     H     0.45139  0.45139  0.00000  0.09723
       2     N     3.62734  3.62734  0.00000 -0.25468
       3     C     3.04637  3.04637  0.00000 -0.09273
       4     C     3.04637  3.04637  0.00000 -0.09274
       5     H     0.44873  0.44873  0.00000  0.10254
       6     H     0.45742  0.45742  0.00000  0.08517
       7     C     3.10930  3.10930  0.00000 -0.21860
       8     H     0.45742  0.45742  0.00000  0.08517
       9     H     0.44873  0.44873  0.00000  0.10254
      10     C     3.10930  3.10930  0.00000 -0.21861
      11     H     0.45147  0.45147  0.00000  0.09706
      12     H     0.44735  0.44735  0.00000  0.10530
      13     H     0.44736  0.44736  0.00000  0.10528
      14     H     0.45146  0.45146  0.00000  0.09708

   Total alpha = 20.00000, Total beta = 20.00000, Total charge = -0.00000

*** Psi4 exiting successfully. Buy a developer a beer!
