  ==> Input File <==

--------------------------------------------------------------------------
set {
	reference rhf
	basis 6-31G*
}

set_num_threads( 4 )
memory 2 gb

molecule MOL {
0 1

H	 -0.000158	 1.970498	 0.756846
O	 -0.000074	 1.880206	 -0.189275
C	 -0.000015	 0.544847	 -0.545111
C	 -0.077365	 -0.325360	 0.704987
C	 1.201611	 0.244982	 -1.435152
H	 -0.890426	 0.358382	 -1.126921
F	 -1.183655	 -0.054968	 1.364195
F	 -0.077015	 -1.610169	 0.419286
F	 0.943192	 -0.081667	 1.511630
F	 1.140140	 0.981432	 -2.523913
F	 1.249066	 -1.018693	 -1.800187
F	 2.332489	 0.537590	 -0.813001

	symmetry c1
}
set optking {
	frozen_dihedral = ("
		6 3 2 1
	")
}

ee = optimize('scf')
oeprop('DIPOLE', 'QUADRUPOLE', 'MULLIKEN_CHARGES')
f=open( 'psi4out.xyz', 'w' )
f.write( "12  " )
f.write( str(ee) + "\n" )
f.write( MOL.save_string_xyz() )
f.close()
--------------------------------------------------------------------------

    Molecular point group: c1
  Charge       = 0
  Multiplicity = 1
  Basis Set: 6-31G*
  Basis Set:
  @DF-RHF Final Energy:  -786.27238508293715
    Total Energy =                       -786.2723850829368075
    Molecular point group: c1
  Basis Set: 6-31G*
  Basis Set:
  Basis Set: 6-31G*
  Basis Set:
  @DF-RHF Final Energy:  -786.27333556709345
    Total Energy =                       -786.2733355670939090
  Basis Set: 6-31G*
  Basis Set:
  Basis Set: 6-31G*
  Basis Set:
  @DF-RHF Final Energy:  -786.27355670937118
    Total Energy =                       -786.2735567093716327
  Basis Set: 6-31G*
  Basis Set:
  Basis Set: 6-31G*
  Basis Set:
  @DF-RHF Final Energy:  -786.27358052825844
    Total Energy =                       -786.2735805282588899
  Basis Set: 6-31G*
  Basis Set:
  Basis Set: 6-31G*
  Basis Set:
  @DF-RHF Final Energy:  -786.27358672033370
    Total Energy =                       -786.2735867203341513
  Basis Set: 6-31G*
  Basis Set:
  Basis Set: 6-31G*
  Basis Set:
  @DF-RHF Final Energy:  -786.27358811728539
    Total Energy =                       -786.2735881172851578
  Basis Set: 6-31G*
  Basis Set:
  Charge       = 0
  Multiplicity = 1
  Basis Set: 6-31G*
  Basis Set:

    Orbital Energies (a.u.)
    -----------------------

    Doubly Occupied:

       1A    -26.369065     2A    -26.368410     3A    -26.368000
       4A    -26.354930     5A    -26.352617     6A    -26.351413
       7A    -20.614226     8A    -11.533836     9A    -11.519472
      10A    -11.349467    11A     -1.770166    12A     -1.753777
      13A     -1.667720    14A     -1.664121    15A     -1.650749
      16A     -1.649484    17A     -1.431858    18A     -1.103865
      19A     -0.998180    20A     -0.937330    21A     -0.869046
      22A     -0.862697    23A     -0.856401    24A     -0.840991
      25A     -0.830430    26A     -0.801031    27A     -0.747394
      28A     -0.733565    29A     -0.718926    30A     -0.716552
      31A     -0.701669    32A     -0.689858    33A     -0.685391
      34A     -0.670056    35A     -0.668083    36A     -0.664938
      37A     -0.652935    38A     -0.650478    39A     -0.615777
      40A     -0.547460    41A     -0.503152

  @DF-RHF Final Energy:  -786.27358845567198

   => Energetics <=

    Nuclear Repulsion Energy =            670.6362933832918998
    One-Electron Energy =               -2428.1487350567190333
    Two-Electron Energy =                 971.2388532177557181
    DFT Exchange-Correlation Energy =       0.0000000000000000
    Empirical Dispersion Energy =           0.0000000000000000
    PCM Polarization Energy =               0.0000000000000000
    EFP Energy =                            0.0000000000000000
    Total Energy =                       -786.2735884556713017
    Molecular point group: c1
  Basis Set: 6-31G*
  Basis Set:

  -Total Gradient:
     Atom            X                  Y                   Z
    ------   -----------------  -----------------  -----------------
       1       -0.001089195549     0.000001061706    -0.000013376352
       2        0.001251949442    -0.000034811781     0.000238183509
       3        0.000297427724     0.000204239214    -0.001023679412
       4        0.000036857655    -0.000054923983    -0.000044916020
       5       -0.000018480626     0.000070249893     0.000018578702
       6       -0.000465952860    -0.000191158670     0.000782383826
       7       -0.000022437271    -0.000003617016     0.000009729290
       8       -0.000013926279     0.000057405586     0.000025211438
       9        0.000008465618     0.000000637856     0.000025787361
      10        0.000009506875    -0.000007579845     0.000005975311
      11        0.000000517173    -0.000032975367    -0.000006832364
      12        0.000005268098    -0.000008527600    -0.000017045290

  **** Optimization is complete! (in 7 steps) ****
    Final optimized geometry and variables:
    Molecular point group: c1

    Geometry (in Angstrom), charge = 0, multiplicity = 1:

    H           -0.591183162443     1.940817914930     1.028931727422
    O           -0.588469657098     1.792247629498     0.093192235309
    C           -0.585765634749     0.444245139087    -0.228761961047
    C           -0.638954069490    -0.423188043974     1.021972552811
    C            0.632411712461     0.174192097325    -1.103946641470
    H           -1.464259674887     0.198320541862    -0.812162026732
    F           -1.728142997851    -0.115042898582     1.708312888037
    F           -0.684569880959    -1.702851739223     0.734389909339
    F            0.393357128028    -0.206816015588     1.815110957415
    F            0.586380953323     0.944818299007    -2.169560177306
    F            0.651661772399    -1.081685662316    -1.512192281102
    F            1.759908138926     0.415867337074    -0.469748950280

  Mulliken Charges: (a.u.)
   Center  Symbol    Alpha    Beta     Spin     Total
       1     H     0.26304  0.26304  0.00000  0.47393
       2     O     4.37142  4.37142  0.00000 -0.74284
       3     C     3.02155  3.02155  0.00000 -0.04309
       4     C     2.46677  2.46677  0.00000  1.06646
       5     C     2.43873  2.43873  0.00000  1.12254
       6     H     0.38293  0.38293  0.00000  0.23413
       7     F     4.68093  4.68093  0.00000 -0.36186
       8     F     4.67023  4.67023  0.00000 -0.34046
       9     F     4.67497  4.67497  0.00000 -0.34994
      10     F     4.67593  4.67593  0.00000 -0.35186
      11     F     4.67870  4.67870  0.00000 -0.35740
      12     F     4.67481  4.67481  0.00000 -0.34961

   Total alpha = 41.00000, Total beta = 41.00000, Total charge = -0.00000
