  ==> Input File <==

--------------------------------------------------------------------------
set {
	reference rhf
	basis 6-31G*
}

set_num_threads( 4 )
memory 2 gb

molecule MOL {
0 1

H	 2.542243	 -0.740385	 -0.783694
O	 2.016064	 -0.864478	 0.000222
C	 1.050492	 0.053836	 0.000068
C	 -0.318135	 -0.576402	 0.000164
O	 1.285279	 1.218255	 -0.000078
C	 -1.454360	 0.441875	 -0.000474
H	 -0.374042	 -1.230163	 -0.866135
H	 -0.374274	 -1.229227	 0.867154
C	 -2.826123	 -0.230780	 0.000056
H	 -1.357605	 1.085198	 -0.868380
H	 -1.357504	 1.086451	 0.866496
H	 -2.959731	 -0.858053	 -0.876869
H	 -3.619374	 0.509403	 -0.000080
H	 -2.959371	 -0.857318	 0.877556

	symmetry c1
}
set optking {
	frozen_dihedral = ("
		1 2 3 5
	")
}

ee = optimize('scf')
oeprop('DIPOLE', 'QUADRUPOLE', 'MULLIKEN_CHARGES')
f=open( 'psi4out.xyz', 'w' )
f.write( "14  " )
f.write( str(ee) + "\n" )
f.write( MOL.save_string_xyz() )
f.close()
--------------------------------------------------------------------------

    Molecular point group: c1
  Charge       = 0
  Multiplicity = 1
  Basis Set: 6-31G*
  Basis Set:
  @DF-RHF Final Energy:  -305.86438666813058
    Total Energy =                       -305.8643866681304075
    Molecular point group: c1
  Basis Set: 6-31G*
  Basis Set:
  Basis Set: 6-31G*
  Basis Set:
  @DF-RHF Final Energy:  -305.86288186327306
    Total Energy =                       -305.8628818632730599
  Basis Set: 6-31G*
  Basis Set:
  Basis Set: 6-31G*
  Basis Set:
  @DF-RHF Final Energy:  -305.86560007710966
    Total Energy =                       -305.8656000771096615
  Basis Set: 6-31G*
  Basis Set:
  Basis Set: 6-31G*
  Basis Set:
  @DF-RHF Final Energy:  -305.86580231449148
    Total Energy =                       -305.8658023144915887
  Basis Set: 6-31G*
  Basis Set:
  Basis Set: 6-31G*
  Basis Set:
  @DF-RHF Final Energy:  -305.86580673929097
    Total Energy =                       -305.8658067392908606
  Basis Set: 6-31G*
  Basis Set:
  Charge       = 0
  Multiplicity = 1
  Basis Set: 6-31G*
  Basis Set:

    Orbital Energies (a.u.)
    -----------------------

    Doubly Occupied:

       1A    -20.599650     2A    -20.559620     3A    -11.381872
       4A    -11.241064     5A    -11.225517     6A    -11.217373
       7A     -1.463665     8A     -1.367401     9A     -1.082215
      10A     -0.977230    11A     -0.853822    12A     -0.793378
      13A     -0.705838    14A     -0.680620    15A     -0.662711
      16A     -0.626943    17A     -0.578421    18A     -0.563079
      19A     -0.544015    20A     -0.504751    21A     -0.494583
      22A     -0.482410    23A     -0.480111    24A     -0.444300

  @DF-RHF Final Energy:  -305.86580738655027

   => Energetics <=

    Nuclear Repulsion Energy =            239.3602764383041404
    One-Electron Energy =                -891.3909896640095667
    Two-Electron Energy =                 346.1649058391551534
    DFT Exchange-Correlation Energy =       0.0000000000000000
    Empirical Dispersion Energy =           0.0000000000000000
    PCM Polarization Energy =               0.0000000000000000
    EFP Energy =                            0.0000000000000000
    Total Energy =                       -305.8658073865502729
    Molecular point group: c1
  Basis Set: 6-31G*
  Basis Set:

  -Total Gradient:
     Atom            X                  Y                   Z
    ------   -----------------  -----------------  -----------------
       1       -0.006001785260    -0.006971579836    -0.005956108530
       2        0.006971712131     0.008787851494     0.011996945802
       3       -0.000040968976    -0.001962985993    -0.015822715634
       4        0.000054076229    -0.000007301806    -0.000061237974
       5       -0.000975660899     0.000100104122     0.009754223833
       6       -0.000005130887    -0.000009310587     0.000037678617
       7        0.000012819208     0.000020266711     0.000018881717
       8       -0.000001497224     0.000038735891     0.000047306623
       9       -0.000014604776     0.000009267609    -0.000009143000
      10       -0.000000727372     0.000001622321    -0.000005836739
      11        0.000004146791    -0.000004532283    -0.000001437326
      12        0.000002463331    -0.000001826396     0.000000383287
      13       -0.000004626106    -0.000003886978    -0.000003156227
      14       -0.000000216196     0.000003575734     0.000004215551

  **** Optimization is complete! (in 6 steps) ****
    Final optimized geometry and variables:
    Molecular point group: c1

    Geometry (in Angstrom), charge = 0, multiplicity = 1:

    H            2.653147483254    -0.784444870671    -0.653748456635
    O            2.036286599252    -0.864886830111     0.064275801270
    C            1.053372504065     0.061721905102    -0.036276575162
    C           -0.316745750705    -0.565143108229    -0.017342825197
    O            1.277320772118     1.222642556423    -0.033147158600
    C           -1.457387932653     0.446838935372     0.018977019915
    H           -0.389619673290    -1.211559819760    -0.889099720104
    H           -0.349762945591    -1.231068904225     0.841143518138
    C           -2.826646757235    -0.230890245952     0.037112300451
    H           -1.381174482714     1.104083317588    -0.840763888565
    H           -1.345429158513     1.078685999231     0.893597524675
    H           -2.975468703089    -0.846465290727    -0.845730854665
    H           -3.622594756469     0.505954499569     0.063019879849
    H           -2.940072801440    -0.870141952539     0.908138934246

  Mulliken Charges: (a.u.)
   Center  Symbol    Alpha    Beta     Spin     Total
       1     H     0.26592  0.26592  0.00000  0.46817
       2     O     4.36477  4.36477  0.00000 -0.72954
       3     C     2.63006  2.63006  0.00000  0.73988
       4     C     3.20846  3.20846  0.00000 -0.41692
       5     O     4.25545  4.25545  0.00000 -0.51090
       6     C     3.15266  3.15266  0.00000 -0.30533
       7     H     0.40507  0.40507  0.00000  0.18987
       8     H     0.39732  0.39732  0.00000  0.20536
       9     C     3.24276  3.24276  0.00000 -0.48553
      10     H     0.41144  0.41144  0.00000  0.17712
      11     H     0.40966  0.40966  0.00000  0.18069
      12     H     0.42155  0.42155  0.00000  0.15691
      13     H     0.41447  0.41447  0.00000  0.17107
      14     H     0.42042  0.42042  0.00000  0.15915

   Total alpha = 24.00000, Total beta = 24.00000, Total charge = -0.00000
