  ==> Input File <==

--------------------------------------------------------------------------
set {
	reference rhf
	basis 6-31G*
}

set_num_threads( 4 )
memory 2 gb

molecule MOL {
0 1

H	 -1.748661	 -2.220942	 -0.005015
C	 -1.343207	 -1.225221	 -0.013879
N	 -0.055091	 -1.100174	 -0.261126
C	 -2.150779	 -0.125890	 0.222726
C	 0.449969	 0.122615	 -0.277109
H	 -3.200618	 -0.238980	 0.422496
N	 -1.660212	 1.097703	 0.209594
C	 -0.371804	 1.219904	 -0.038265
C	 1.928147	 0.267347	 -0.541394
H	 0.029131	 2.217482	 -0.051283
C	 2.703822	 -1.021293	 -0.248570
H	 2.062700	 0.540755	 -1.582551
H	 2.325187	 1.080693	 0.057774
H	 3.757378	 -0.891369	 -0.474710
H	 2.324821	 -1.838743	 -0.850743
H	 2.616464	 -1.301528	 0.796488

	symmetry c1
}
set optking {
	frozen_dihedral = ("
		12 9 5 3
	")
}

ee = optimize('scf')
oeprop('DIPOLE', 'QUADRUPOLE', 'MULLIKEN_CHARGES')
f=open( 'psi4out.xyz', 'w' )
f.write( "16  " )
f.write( str(ee) + "\n" )
f.write( MOL.save_string_xyz() )
f.close()
--------------------------------------------------------------------------

    Molecular point group: c1
  Charge       = 0
  Multiplicity = 1
  Basis Set: 6-31G*
  Basis Set:
  @DF-RHF Final Energy:  -340.75656543524605
    Total Energy =                       -340.7565654352462161
    Molecular point group: c1
  Basis Set: 6-31G*
  Basis Set:
  Basis Set: 6-31G*
  Basis Set:
  @DF-RHF Final Energy:  -340.75707510153040
    Total Energy =                       -340.7570751015302903
  Basis Set: 6-31G*
  Basis Set:
  Basis Set: 6-31G*
  Basis Set:
  @DF-RHF Final Energy:  -340.75726896553516
    Total Energy =                       -340.7572689655352178
  Basis Set: 6-31G*
  Basis Set:
  Basis Set: 6-31G*
  Basis Set:
  @DF-RHF Final Energy:  -340.75728757368944
    Total Energy =                       -340.7572875736892684
  Basis Set: 6-31G*
  Basis Set:
  Basis Set: 6-31G*
  Basis Set:
  @DF-RHF Final Energy:  -340.75729646752495
    Total Energy =                       -340.7572964675249523
  Basis Set: 6-31G*
  Basis Set:
  Basis Set: 6-31G*
  Basis Set:
  @DF-RHF Final Energy:  -340.75730264986476
    Total Energy =                       -340.7573026498645845
  Basis Set: 6-31G*
  Basis Set:
  Charge       = 0
  Multiplicity = 1
  Basis Set: 6-31G*
  Basis Set:

    Orbital Energies (a.u.)
    -----------------------

    Doubly Occupied:

       1A    -15.586681     2A    -15.581737     3A    -11.283043
       4A    -11.275190     5A    -11.272616     6A    -11.270800
       7A    -11.234572     8A    -11.212515     9A     -1.313308
      10A     -1.221930    11A     -1.083234    12A     -1.013476
      13A     -0.909818    14A     -0.888756    15A     -0.824289
      16A     -0.717730    17A     -0.705702    18A     -0.657739
      19A     -0.625759    20A     -0.602939    21A     -0.567232
      22A     -0.559209    23A     -0.521480    24A     -0.503225
      25A     -0.500589    26A     -0.484533    27A     -0.430166
      28A     -0.394511    29A     -0.344299

  @DF-RHF Final Energy:  -340.75730418066667

   => Energetics <=

    Nuclear Repulsion Energy =            349.6747489425183630
    One-Electron Energy =               -1153.6899508706560482
    Two-Electron Energy =                 463.2578977474707926
    DFT Exchange-Correlation Energy =       0.0000000000000000
    Empirical Dispersion Energy =           0.0000000000000000
    PCM Polarization Energy =               0.0000000000000000
    EFP Energy =                            0.0000000000000000
    Total Energy =                       -340.7573041806668925
    Molecular point group: c1
  Basis Set: 6-31G*
  Basis Set:

  -Total Gradient:
     Atom            X                  Y                   Z
    ------   -----------------  -----------------  -----------------
       1       -0.000001033518     0.000000416225    -0.000008475213
       2        0.000036342065    -0.000018227729    -0.000002294142
       3        0.000026181841    -0.000067425090     0.000429132225
       4        0.000023418712     0.000049872760     0.000005221188
       5       -0.000147526721     0.000212847468    -0.000585408323
       6       -0.000000079727    -0.000002862818     0.000004595415
       7       -0.000021379736    -0.000022287122    -0.000018184953
       8        0.000019272397    -0.000037749549     0.000019744917
       9        0.000095614869    -0.000552494088     0.000035326825
      10       -0.000003802463     0.000004032427     0.000009413051
      11       -0.000004509824     0.000013811483    -0.000001193395
      12       -0.000023239010     0.000434164201     0.000110740757
      13       -0.000006766597    -0.000003474328    -0.000004742676
      14       -0.000001176574    -0.000001501819     0.000002572748
      15        0.000004561965    -0.000000095472     0.000002453629
      16        0.000004122319    -0.000009026548     0.000001097947

  **** Optimization is complete! (in 7 steps) ****
    Final optimized geometry and variables:
    Molecular point group: c1

    Geometry (in Angstrom), charge = 0, multiplicity = 1:

    H           -1.794223959243    -2.091615894491     0.124777927136
    C           -1.371045791597    -1.103475383567     0.111644849811
    N           -0.072291161479    -1.007124296128    -0.119872262203
    C           -2.155851351153     0.009295826087     0.329552790404
    C            0.458098236414     0.198511763135    -0.136858925506
    H           -3.210325068302    -0.077930056426     0.516590240923
    N           -1.635898000590     1.226070060027     0.319869904783
    C           -0.346687127272     1.317744245402     0.091824972262
    C            1.935820909951     0.354303139944    -0.423594327423
    H            0.079868965637     2.305460016944     0.088754878687
    C            2.768588176093    -0.893518775120    -0.140284708548
    H            2.053129158289     0.641823872069    -1.466667362425
    H            2.314177470580     1.190380383712     0.157874442472
    H            3.815007939518    -0.695039711483    -0.348350818452
    H            2.448964788620    -1.726071826319    -0.752857413763
    H            2.680593275435    -1.194359719953     0.897998734742

  Mulliken Charges: (a.u.)
   Center  Symbol    Alpha    Beta     Spin     Total
       1     H     0.39398  0.39398  0.00000  0.21204
       2     C     2.98893  2.98893  0.00000  0.02214
       3     N     3.75932  3.75932  0.00000 -0.51864
       4     C     2.99962  2.99962  0.00000  0.00076
       5     C     2.86979  2.86979  0.00000  0.26042
       6     H     0.39423  0.39423  0.00000  0.21153
       7     N     3.72935  3.72935  0.00000 -0.45870
       8     C     2.99629  2.99629  0.00000  0.00743
       9     C     3.17403  3.17403  0.00000 -0.34807
      10     H     0.39508  0.39508  0.00000  0.20984
      11     C     3.23656  3.23656  0.00000 -0.47313
      12     H     0.40710  0.40710  0.00000  0.18580
      13     H     0.41280  0.41280  0.00000  0.17440
      14     H     0.41991  0.41991  0.00000  0.16017
      15     H     0.40678  0.40678  0.00000  0.18645
      16     H     0.41623  0.41623  0.00000  0.16755

   Total alpha = 29.00000, Total beta = 29.00000, Total charge =  0.00000
