                              Psi4 1.0.54 Driver

  ==> Input File <==

--------------------------------------------------------------------------
set {
	reference rhf
	basis cc-pvtz
}

set_num_threads( 4 )
memory 2 gb

molecule MOL {
0 1

H	 -2.816458	 -0.841657	 -0.064679
N	 -1.878861	 -0.711874	 0.250184
C	 -1.341419	 0.551458	 -0.220231
H	 -1.333674	 -1.468530	 -0.105118
C	 0.082190	 0.731516	 0.254705
H	 -1.357065	 0.652078	 -1.304747
H	 -1.939897	 1.357530	 0.189797
O	 0.881195	 -0.248324	 -0.336237
H	 0.440901	 1.722476	 -0.020063
H	 0.119896	 0.643586	 1.338114
C	 0.183284	 -1.350671	 -0.812654
H	 0.898869	 -2.037211	 -1.241590
H	 -0.351798	 -1.858580	 -0.013022
H	 -0.533397	 -1.066739	 -1.579670

	symmetry c1
}
set optking {
	frozen_dihedral = ("
		11 8 5 3
	")
}

ee,wfn = optimize('scf', return_wfn=True)
oeprop( wfn, 'DIPOLE', 'QUADRUPOLE', 'MULLIKEN_CHARGES')
f=open( 'psi4out.xyz', 'w' )
f.write( "14  " )
f.write( str(ee) + "\n" )
f.write( MOL.save_string_xyz() )
f.close()
--------------------------------------------------------------------------

    Molecular point group: c1
  Charge       = 0
  Multiplicity = 1
  Basis Set: CC-PVTZ
  Basis Set:
  @DF-RHF Final Energy:  -248.13769189380196
    Total Energy =                       -248.1376918938019571
    Molecular point group: c1
  Basis Set: CC-PVTZ
  Basis Set:
  Basis Set: CC-PVTZ
  Basis Set:
  @DF-RHF Final Energy:  -248.17360410539513
    Total Energy =                       -248.1736041053950999
  Basis Set: CC-PVTZ
  Basis Set:
  Basis Set: CC-PVTZ
  Basis Set:
  @DF-RHF Final Energy:  -248.18670517667127
    Total Energy =                       -248.1867051766713530
  Basis Set: CC-PVTZ
  Basis Set:
  Basis Set: CC-PVTZ
  Basis Set:
  @DF-RHF Final Energy:  -248.20560764762746
    Total Energy =                       -248.2056076476275166
  Basis Set: CC-PVTZ
  Basis Set:
  @DF-RHF Final Energy:  -248.21070237248674
    Total Energy =                       -248.2107023724865940
  @DF-RHF Final Energy:  -248.21182222669401
    Total Energy =                       -248.2118222266939256
  @DF-RHF Final Energy:  -248.21207853747791
    Total Energy =                       -248.2120785374781917
  Basis Set: CC-PVTZ
  Basis Set:
  @DF-RHF Final Energy:  -248.21216486583211
    Total Energy =                       -248.2121648658321647
  Basis Set: CC-PVTZ
  Basis Set:
  Basis Set: CC-PVTZ
  Basis Set:
  @DF-RHF Final Energy:  -248.21217510419964
    Total Energy =                       -248.2121751041997300
  Basis Set: CC-PVTZ
  Basis Set:
  Basis Set: CC-PVTZ
  Basis Set:
  @DF-RHF Final Energy:  -248.21217710109505
    Total Energy =                       -248.2121771010951079
  Basis Set: CC-PVTZ
  Basis Set:
  Charge       = 0
  Multiplicity = 1
  Basis Set: CC-PVTZ
  Basis Set:

    Orbital Energies (a.u.)
    -----------------------

    Doubly Occupied:

       1A    -20.541665     2A    -15.535329     3A    -11.263412
       4A    -11.262306     5A    -11.249136     6A     -1.371556
       7A     -1.185129     8A     -1.003471     9A     -0.921648
      10A     -0.806001    11A     -0.690518    12A     -0.674807
      13A     -0.641189    14A     -0.619247    15A     -0.607179
      16A     -0.548410    17A     -0.536061    18A     -0.518751
      19A     -0.455444    20A     -0.409015    21A     -0.392253

  @DF-RHF Final Energy:  -248.21217775072842

   => Energetics <=

    Nuclear Repulsion Energy =            197.0205828805541728
    One-Electron Energy =                -728.0004700399949797
    Two-Electron Energy =                 282.7677094087122214
    DFT Exchange-Correlation Energy =       0.0000000000000000
    Empirical Dispersion Energy =           0.0000000000000000
    PCM Polarization Energy =               0.0000000000000000
    EFP Energy =                            0.0000000000000000
    Total Energy =                       -248.2121777507285287
    Molecular point group: c1
  Basis Set: CC-PVTZ
  Basis Set:

  -Total Gradient:
     Atom            X                  Y                   Z
    ------   -----------------  -----------------  -----------------
       1        0.000027096562    -0.000019283101    -0.000004392622
       2       -0.000066573724     0.000050946150     0.000070284349
       3       -0.001461629712    -0.002218497019     0.001130602511
       4        0.000007223741    -0.000023463025    -0.000020921429
       5        0.002581540520     0.004696473795    -0.002696851385
       6        0.000009433082     0.000000861093     0.000001002744
       7       -0.000015361790    -0.000011467813     0.000006618354
       8       -0.001797366875    -0.005197019651     0.003330085861
       9        0.000005032097     0.000007158070    -0.000013944722
      10        0.000011220769     0.000016680206     0.000004086472
      11        0.000682379561     0.002704311763    -0.001835622681
      12       -0.000009095863     0.000006107649     0.000011134531
      13        0.000000360204     0.000001460128     0.000015516504
      14        0.000025741429    -0.000014268246     0.000002401511

  **** Optimization is complete! (in 11 steps) ****
    Final optimized geometry and variables:
    Molecular point group: c1

    Geometry (in Angstrom), charge = 0, multiplicity = 1:

    H           -2.440354684395     0.885206424053     0.967756147192
    N           -1.675215831591     0.285259117139     0.746157862703
    C           -0.462124567281     1.060264379795     0.536898553050
    H           -1.935229170605    -0.234609334842    -0.062641102227
    C            0.817773083830     0.242492832308     0.640761984602
    H           -0.466032512299     1.633900564791    -0.388869421589
    H           -0.403660625181     1.783706969256     1.341992657707
    O            1.184196043271    -0.576470802181    -0.441109156736
    H            1.645024842434     0.927925335685     0.780156110723
    H            0.739537900589    -0.374046766771     1.530879248811
    C            0.255672289025    -0.977854085768    -1.390933277327
    H            0.803514139672    -1.502049061253    -2.160943421614
    H           -0.482984987615    -1.661259783909    -0.979111282585
    H           -0.256722022776    -0.141820336682    -1.856473239641

  Mulliken Charges: (a.u.)
   Center  Symbol    Alpha    Beta     Spin     Total
       1     H     0.42721  0.42721  0.00000  0.14559
       2     N     3.68784  3.68784  0.00000 -0.37569
       3     C     3.06481  3.06481  0.00000 -0.12961
       4     H     0.42825  0.42825  0.00000  0.14351
       5     C     2.95845  2.95845  0.00000  0.08309
       6     H     0.45575  0.45575  0.00000  0.08851
       7     H     0.44732  0.44732  0.00000  0.10536
       8     O     4.18177  4.18177  0.00000 -0.36354
       9     H     0.46121  0.46121  0.00000  0.07759
      10     H     0.46620  0.46620  0.00000  0.06761
      11     C     3.03643  3.03643  0.00000 -0.07287
      12     H     0.44192  0.44192  0.00000  0.11615
      13     H     0.47013  0.47013  0.00000  0.05974
      14     H     0.47272  0.47272  0.00000  0.05457

   Total alpha = 21.00000, Total beta = 21.00000, Total charge =  0.00000

*** Psi4 exiting successfully. Buy a developer a beer!
