                              Psi4 1.0.54 Driver

  ==> Input File <==

--------------------------------------------------------------------------
set {
	reference rhf
	basis cc-pvtz
}

set_num_threads( 4 )
memory 2 gb

molecule MOL {
0 1

H	 -0.864591	 -3.777249	 -0.121739
O	 -1.110735	 -2.865816	 -0.072523
C	 -0.003050	 -2.129651	 -0.077866
C	 -0.310616	 -0.658853	 0.000791
O	 1.073941	 -2.614200	 -0.135085
C	 0.926581	 0.227233	 0.000178
H	 -0.906156	 -0.504694	 0.894824
H	 -0.964431	 -0.424554	 -0.833083
C	 2.220156	 -0.582071	 -0.000088
H	 0.899945	 0.878221	 -0.866390
H	 0.900542	 0.878581	 0.866486
C	 3.466689	 0.296012	 -0.000457
H	 2.239073	 -1.234095	 -0.869382
H	 2.239505	 -1.233985	 0.869270
H	 3.493549	 0.935857	 -0.875887
H	 4.368821	 -0.304526	 -0.001199
H	 3.494559	 0.935166	 0.875458

	symmetry c1
}
set optking {
	frozen_dihedral = ("
		7 4 6 10
	")
}

ee,wfn = optimize('scf', return_wfn=True)
oeprop( wfn, 'DIPOLE', 'QUADRUPOLE', 'MULLIKEN_CHARGES')
f=open( 'psi4out.xyz', 'w' )
f.write( "17  " )
f.write( str(ee) + "\n" )
f.write( MOL.save_string_xyz() )
f.close()
--------------------------------------------------------------------------

    Molecular point group: c1
  Charge       = 0
  Multiplicity = 1
  Basis Set: CC-PVTZ
  Basis Set:
  @DF-RHF Final Energy:  -345.01099154339454
    Total Energy =                       -345.0109915433946526
    Molecular point group: c1
  Basis Set: CC-PVTZ
  Basis Set:
  Basis Set: CC-PVTZ
  Basis Set:
  @DF-RHF Final Energy:  -345.03072648254488
    Total Energy =                       -345.0307264825447646
  Basis Set: CC-PVTZ
  Basis Set:
  Basis Set: CC-PVTZ
  Basis Set:
  @DF-RHF Final Energy:  -345.03449130806132
    Total Energy =                       -345.0344913080608649
  Basis Set: CC-PVTZ
  Basis Set:
  Basis Set: CC-PVTZ
  Basis Set:
  @DF-RHF Final Energy:  -345.03247963192274
    Total Energy =                       -345.0324796319226834
  Basis Set: CC-PVTZ
  Basis Set:
  @DF-RHF Final Energy:  -345.03576326509108
    Total Energy =                       -345.0357632650910773
  @DF-RHF Final Energy:  -345.03634416784536
    Total Energy =                       -345.0363441678455843
  @DF-RHF Final Energy:  -345.03639275689363
    Total Energy =                       -345.0363927568935765
  @DF-RHF Final Energy:  -345.03650608583013
    Total Energy =                       -345.0365060858298989
  @DF-RHF Final Energy:  -345.03662794472268
    Total Energy =                       -345.0366279447227384
  @DF-RHF Final Energy:  -345.03675546779056
    Total Energy =                       -345.0367554677907833
  @DF-RHF Final Energy:  -345.03719213367697
    Total Energy =                       -345.0371921336768537
  @DF-RHF Final Energy:  -345.03600599529142
    Total Energy =                       -345.0360059952914753
  @DF-RHF Final Energy:  -345.03781558416358
    Total Energy =                       -345.0378155841634111
  @DF-RHF Final Energy:  -345.03795963134411
    Total Energy =                       -345.0379596313440516
  @DF-RHF Final Energy:  -345.03834161711535
    Total Energy =                       -345.0383416171157478
  @DF-RHF Final Energy:  -345.03866235176127
    Total Energy =                       -345.0386623517612179
  @DF-RHF Final Energy:  -345.03837444468996
    Total Energy =                       -345.0383744446896799
  @DF-RHF Final Energy:  -345.03906423266517
    Total Energy =                       -345.0390642326652824
  @DF-RHF Final Energy:  -345.03910076121559
    Total Energy =                       -345.0391007612159910
  @DF-RHF Final Energy:  -345.03916822784424
    Total Energy =                       -345.0391682278439021
  Basis Set: CC-PVTZ
  Basis Set:
  @DF-RHF Final Energy:  -345.03921398854510
    Total Energy =                       -345.0392139885448159
  Basis Set: CC-PVTZ
  Basis Set:
  Basis Set: CC-PVTZ
  Basis Set:
  @DF-RHF Final Energy:  -345.03923147040962
    Total Energy =                       -345.0392314704098453
  Basis Set: CC-PVTZ
  Basis Set:
  Basis Set: CC-PVTZ
  Basis Set:
  @DF-RHF Final Energy:  -345.03923399121493
    Total Energy =                       -345.0392339912148714
  Basis Set: CC-PVTZ
  Basis Set:
  Charge       = 0
  Multiplicity = 1
  Basis Set: CC-PVTZ
  Basis Set:

    Orbital Energies (a.u.)
    -----------------------

    Doubly Occupied:

       1A    -20.605007     2A    -20.538244     3A    -11.372879
       4A    -11.237657     5A    -11.232231     6A    -11.220201
       7A    -11.212136     8A     -1.477311     9A     -1.367629
      10A     -1.090792    11A     -1.017765    12A     -0.911980
      13A     -0.839185    14A     -0.792219    15A     -0.705641
      16A     -0.678501    17A     -0.649368    18A     -0.646929
      19A     -0.590662    20A     -0.587948    21A     -0.575536
      22A     -0.546159    23A     -0.515674    24A     -0.489199
      25A     -0.487879    26A     -0.471174    27A     -0.467804
      28A     -0.440184

  @DF-RHF Final Energy:  -345.03923410134553

   => Energetics <=

    Nuclear Repulsion Energy =            314.0181343899678268
    One-Electron Energy =               -1092.5789474856028392
    Two-Electron Energy =                 433.5215789942894844
    DFT Exchange-Correlation Energy =       0.0000000000000000
    Empirical Dispersion Energy =           0.0000000000000000
    PCM Polarization Energy =               0.0000000000000000
    EFP Energy =                            0.0000000000000000
    Total Energy =                       -345.0392341013455280
    Molecular point group: c1
  Basis Set: CC-PVTZ
  Basis Set:

  -Total Gradient:
     Atom            X                  Y                   Z
    ------   -----------------  -----------------  -----------------
       1        0.000003074863    -0.000005624905     0.000005106349
       2        0.000003725619    -0.000001283338    -0.000037332501
       3       -0.000026318443     0.000011796521     0.000047387943
       4        0.000384438714    -0.000440786583     0.000531309713
       5        0.000010907624    -0.000006481802    -0.000006484393
       6        0.000337238715    -0.000512007508    -0.000460989332
       7       -0.000381986930     0.000436224463    -0.000380087424
       8        0.000003042875     0.000000751411     0.000000470605
       9        0.000000796901     0.000001277853    -0.000012769934
      10       -0.000335946208     0.000509587204     0.000303762629
      11       -0.000000429629    -0.000000713451     0.000000643709
      12        0.000005306209     0.000003849121     0.000004507675
      13       -0.000002357724     0.000003010128     0.000005114494
      14       -0.000000732888     0.000001609791     0.000000113324
      15       -0.000000853208    -0.000002484773     0.000000126782
      16       -0.000000399984     0.000000709632     0.000000363310
      17        0.000000493495     0.000000566229    -0.000001242951

  **** Optimization is complete! (in 24 steps) ****
    Final optimized geometry and variables:
    Molecular point group: c1

    Geometry (in Angstrom), charge = 0, multiplicity = 1:

    H           -0.498528243725    -2.303806100202     1.324855505409
    O           -0.712947286988    -1.382768546625     1.333373052131
    C           -0.939022925617    -0.994179741623     0.081775734985
    C           -1.270033219641     0.470664657389    -0.025132207577
    O           -0.878688396029    -1.747843080807    -0.828345071470
    C           -0.036878992177     1.402664760138    -0.207104540146
    H           -1.821778012067     0.756820585955     0.858811219499
    H           -1.928251638313     0.566932648890    -0.875380342319
    C            1.341936231620     0.746666773277    -0.137074024021
    H           -0.132430535841     1.905653199228    -1.161752751782
    H           -0.087684654267     2.179572877541     0.546595078990
    C            2.464807742570     1.758430042861    -0.339465807626
    H            1.417231075189    -0.028235671627    -0.892134330622
    H            1.468137841021     0.260028803617     0.824177996679
    H            2.387294279666     2.241579056550    -1.307602251452
    H            3.434548930089     1.277923063908    -0.286863866490
    H            2.437590842038     2.532966688220     0.419724837844

  Mulliken Charges: (a.u.)
   Center  Symbol    Alpha    Beta     Spin     Total
       1     H     0.38019  0.38019  0.00000  0.23962
       2     O     4.16805  4.16805  0.00000 -0.33611
       3     C     2.79201  2.79201  0.00000  0.41599
       4     C     3.09512  3.09512  0.00000 -0.19024
       5     O     4.20220  4.20220  0.00000 -0.40439
       6     C     3.09399  3.09399  0.00000 -0.18799
       7     H     0.44036  0.44036  0.00000  0.11928
       8     H     0.43604  0.43604  0.00000  0.12793
       9     C     3.09846  3.09846  0.00000 -0.19691
      10     H     0.44774  0.44774  0.00000  0.10452
      11     H     0.44893  0.44893  0.00000  0.10214
      12     C     3.15174  3.15174  0.00000 -0.30349
      13     H     0.44217  0.44217  0.00000  0.11566
      14     H     0.44692  0.44692  0.00000  0.10615
      15     H     0.45426  0.45426  0.00000  0.09148
      16     H     0.44656  0.44656  0.00000  0.10688
      17     H     0.45526  0.45526  0.00000  0.08948

   Total alpha = 28.00000, Total beta = 28.00000, Total charge = -0.00000

*** Psi4 exiting successfully. Buy a developer a beer!
