  ==> Input File <==

--------------------------------------------------------------------------
set {
	reference rhf
	basis 6-31G*
}

set_num_threads( 4 )
memory 2 gb

molecule MOL {
0 1

H	 1.136379	 0.211822	 1.465562
C	 1.135357	 0.094285	 0.374742
C	 0.065331	 0.871482	 -0.349150
O	 1.941633	 -0.601957	 -0.151457
C	 -0.780082	 -0.016796	 -1.273119
H	 0.539812	 1.676510	 -0.898432
H	 -0.578308	 1.316097	 0.408614
C	 0.007416	 -0.579762	 -2.456901
H	 -1.617563	 0.567634	 -1.640649
H	 -1.209899	 -0.832749	 -0.695955
H	 0.416421	 0.219829	 -3.066732
H	 -0.629528	 -1.189333	 -3.089390
H	 0.837434	 -1.199321	 -2.130391

	symmetry c1
}
set optking {
	frozen_dihedral = ("
		6 3 2 4
	")
}

ee = optimize('scf')
oeprop('DIPOLE', 'QUADRUPOLE', 'MULLIKEN_CHARGES')
f=open( 'psi4out.xyz', 'w' )
f.write( "13  " )
f.write( str(ee) + "\n" )
f.write( MOL.save_string_xyz() )
f.close()
--------------------------------------------------------------------------

    Molecular point group: c1
  Charge       = 0
  Multiplicity = 1
  Basis Set: 6-31G*
  Basis Set:
  @DF-RHF Final Energy:  -230.98092176844813
    Total Energy =                       -230.9809217684481837
    Molecular point group: c1
  Basis Set: 6-31G*
  Basis Set:
  Basis Set: 6-31G*
  Basis Set:
  @DF-RHF Final Energy:  -230.98202980617992
    Total Energy =                       -230.9820298061799235
  Basis Set: 6-31G*
  Basis Set:
  Basis Set: 6-31G*
  Basis Set:
  @DF-RHF Final Energy:  -230.98140706005867
    Total Energy =                       -230.9814070600586149
  Basis Set: 6-31G*
  Basis Set:
  Basis Set: 6-31G*
  Basis Set:
  @DF-RHF Final Energy:  -230.98215208627832
    Total Energy =                       -230.9821520862782052
  Basis Set: 6-31G*
  Basis Set:
  Basis Set: 6-31G*
  Basis Set:
  @DF-RHF Final Energy:  -230.98216429408436
    Total Energy =                       -230.9821642940844413
  Basis Set: 6-31G*
  Basis Set:
  Basis Set: 6-31G*
  Basis Set:
  @DF-RHF Final Energy:  -230.98216771261986
    Total Energy =                       -230.9821677126197415
  Basis Set: 6-31G*
  Basis Set:
  Charge       = 0
  Multiplicity = 1
  Basis Set: 6-31G*
  Basis Set:

    Orbital Energies (a.u.)
    -----------------------

    Doubly Occupied:

       1A    -20.564470     2A    -11.329421     3A    -11.237080
       4A    -11.231963     5A    -11.207262     6A     -1.404685
       7A     -1.076814     8A     -0.970389     9A     -0.844679
      10A     -0.776432    11A     -0.681738    12A     -0.648281
      13A     -0.597664    14A     -0.590778    15A     -0.570117
      16A     -0.521691    17A     -0.498281    18A     -0.487057
      19A     -0.478944    20A     -0.407258

  @DF-RHF Final Energy:  -230.98216812850237

   => Energetics <=

    Nuclear Repulsion Energy =            175.8330965658356320
    One-Electron Energy =                -661.3805202676751378
    Two-Electron Energy =                 254.5652555733371116
    DFT Exchange-Correlation Energy =       0.0000000000000000
    Empirical Dispersion Energy =           0.0000000000000000
    PCM Polarization Energy =               0.0000000000000000
    EFP Energy =                            0.0000000000000000
    Total Energy =                       -230.9821681285024226
    Molecular point group: c1
  Basis Set: 6-31G*
  Basis Set:

  -Total Gradient:
     Atom            X                  Y                   Z
    ------   -----------------  -----------------  -----------------
       1       -0.000011194306    -0.000003082824     0.000002263093
       2       -0.000763713160    -0.001008946337     0.000020508268
       3        0.000148534909     0.000877022580     0.000630392382
       4        0.000531282621     0.000627126964    -0.000122810454
       5        0.000001018404     0.000018751817     0.000009551135
       6        0.000072961582    -0.000535115687    -0.000585772690
       7       -0.000017574960     0.000008570871     0.000001753866
       8        0.000033726857     0.000005738841     0.000017318650
       9        0.000006996140     0.000010080554     0.000018106023
      10        0.000004395086    -0.000001263522     0.000012132987
      11        0.000004507957    -0.000009113812     0.000005155296
      12        0.000000295506     0.000000714994     0.000009948005
      13       -0.000011236640     0.000009515564    -0.000018546563

  **** Optimization is complete! (in 7 steps) ****
    Final optimized geometry and variables:
    Molecular point group: c1

    Geometry (in Angstrom), charge = 0, multiplicity = 1:

    H            0.647100414943     0.377674748573     2.285282842441
    C            0.642918896525     0.177319870716     1.208223237520
    C           -0.401607922451     0.920246107281     0.402212992102
    O            1.441966006113    -0.573029810023     0.747198262203
    C           -1.243680572485     0.024340796977    -0.523325878851
    H            0.119983967302     1.667661316204    -0.192539159986
    H           -1.048706185774     1.455947991370     1.089782078579
    C           -0.501583756936    -0.481381750791    -1.760272716455
    H           -2.109671719344     0.599829547299    -0.837593848850
    H           -1.628665940556    -0.818436065763     0.045088401227
    H           -0.147261950492     0.350242311570    -2.363328983743
    H           -1.163748710422    -1.078904827309    -2.379360363010
    H            0.353238148770    -1.086237829959    -1.490680651742

  Mulliken Charges: (a.u.)
   Center  Symbol    Alpha    Beta     Spin     Total
       1     H     0.42672  0.42672  0.00000  0.14655
       2     C     2.84373  2.84373  0.00000  0.31254
       3     C     3.20546  3.20546  0.00000 -0.41091
       4     O     4.23543  4.23543  0.00000 -0.47086
       5     C     3.15436  3.15436  0.00000 -0.30873
       6     H     0.40099  0.40099  0.00000  0.19802
       7     H     0.41384  0.41384  0.00000  0.17231
       8     C     3.24346  3.24346  0.00000 -0.48692
       9     H     0.41625  0.41625  0.00000  0.16749
      10     H     0.41722  0.41722  0.00000  0.16557
      11     H     0.42368  0.42368  0.00000  0.15265
      12     H     0.42069  0.42069  0.00000  0.15862
      13     H     0.39816  0.39816  0.00000  0.20368

   Total alpha = 20.00000, Total beta = 20.00000, Total charge =  0.00000
