  ==> Input File <==

--------------------------------------------------------------------------
set {
	reference rhf
	basis 6-31G*
}

set_num_threads( 1 )
memory 2 gb

molecule MOL {
0 1

O	 0.501689	 0.382464	 -0.980106
C	 1.122059	 0.121804	 -0.000188
C	 0.838326	 0.649498	 1.385066
O	 2.172624	 -0.688929	 0.000216
C	 -0.362007	 1.589354	 1.441732
H	 0.697594	 -0.208524	 2.036791
H	 1.741022	 1.142133	 1.736073
C	 -0.627008	 2.109373	 2.855493
H	 -1.240486	 1.071582	 1.069319
H	 -0.195755	 2.423988	 0.767751
C	 -1.827255	 3.052824	 2.921144
H	 -0.792122	 1.269070	 3.526838
H	 0.257199	 2.625007	 3.224777
H	 -2.734517	 2.555659	 2.590453
H	 -1.993467	 3.406654	 3.933791
H	 -1.677435	 3.921565	 2.286729
C	 3.452279	 -0.082609	 0.000533
H	 3.583069	 0.529321	 -0.880332
H	 4.163299	 -0.894027	 0.001117
H	 3.582335	 0.529955	 0.881077

	symmetry c1
}
set optking {
	frozen_dihedral = ("
		9 5 8 12,
		1 2 3 6,
		9 5 3 6
	")
}

ee = energy('scf')
oeprop('DIPOLE', 'QUADRUPOLE', 'MULLIKEN_CHARGES')
f=open( 'psi4out.xyz', 'w' )
f.write( "20  " )
f.write( str(ee) + "\n" )
f.write( MOL.save_string_xyz() )
f.close()
--------------------------------------------------------------------------

    Molecular point group: c1

    Geometry (in Angstrom), charge = 0, multiplicity = 1:

       Center              X                  Y                   Z               Mass
    ------------   -----------------  -----------------  -----------------  -----------------
           O         -0.181999015884    -0.503940962268    -1.918326866095    15.994914619560
           C          0.438370984116    -0.764600962268    -0.938408866095    12.000000000000
           C          0.154637984116    -0.236906962268     0.446845133905    12.000000000000
           O          1.488935984116    -1.575333962268    -0.938004866095    15.994914619560
           C         -1.045695015884     0.702949037732     0.503511133905    12.000000000000
           H          0.013905984116    -1.094928962268     1.098570133905     1.007825032070
           H          1.057333984116     0.255728037732     0.797852133905     1.007825032070
           C         -1.310696015884     1.222968037732     1.917272133905    12.000000000000
           H         -1.924174015884     0.185177037732     0.131098133905     1.007825032070
           H         -0.879443015884     1.537583037732    -0.170469866095     1.007825032070
           C         -2.510943015884     2.166419037732     1.982923133905    12.000000000000
           H         -1.475810015884     0.382665037732     2.588617133905     1.007825032070
           H         -0.426489015884     1.738602037732     2.286556133905     1.007825032070
           H         -3.418205015884     1.669254037732     1.652232133905     1.007825032070
           H         -2.677155015884     2.520249037732     2.995570133905     1.007825032070
           H         -2.361123015884     3.035160037732     1.348508133905     1.007825032070
           C          2.768590984116    -0.969013962268    -0.937687866095    12.000000000000
           H          2.899380984116    -0.357083962268    -1.818552866095     1.007825032070
           H          3.479610984116    -1.780431962268    -0.937103866095     1.007825032070
           H          2.898646984116    -0.356449962268    -0.057143866095     1.007825032070

  Charge       = 0
  Multiplicity = 1
  Basis Set: 6-31G*
  Basis Set:

    Orbital Energies (a.u.)
    -----------------------

    Doubly Occupied:

       1A    -20.588372     2A    -20.555081     3A    -11.373961
       4A    -11.296614     5A    -11.237717     6A    -11.222001
       7A    -11.220781     8A    -11.211974     9A     -1.464236
      10A     -1.368265    11A     -1.089345    12A     -1.018827
      13A     -0.979187    14A     -0.897500    15A     -0.807790
      16A     -0.768898    17A     -0.695433    18A     -0.682630
      19A     -0.677859    20A     -0.645011    21A     -0.618224
      22A     -0.588823    23A     -0.588100    24A     -0.555051
      25A     -0.538066    26A     -0.514420    27A     -0.493542
      28A     -0.486542    29A     -0.479059    30A     -0.472110
      31A     -0.453409    32A     -0.432133

  @DF-RHF Final Energy:  -383.91851089559589

   => Energetics <=

    Nuclear Repulsion Energy =            383.2864303519792202
    One-Electron Energy =               -1282.3680415402354811
    Two-Electron Energy =                 515.1631002926603742
    DFT Exchange-Correlation Energy =       0.0000000000000000
    Empirical Dispersion Energy =           0.0000000000000000
    PCM Polarization Energy =               0.0000000000000000
    EFP Energy =                            0.0000000000000000
    Total Energy =                       -383.9185108955958867

  Mulliken Charges: (a.u.)
   Center  Symbol    Alpha    Beta     Spin     Total
       1     O     4.25771  4.25771  0.00000 -0.51542
       2     C     2.61432  2.61432  0.00000  0.77136
       3     C     3.21559  3.21559  0.00000 -0.43119
       4     O     4.30885  4.30885  0.00000 -0.61770
       5     C     3.15117  3.15117  0.00000 -0.30234
       6     H     0.39857  0.39857  0.00000  0.20286
       7     H     0.40839  0.40839  0.00000  0.18323
       8     C     3.15392  3.15392  0.00000 -0.30783
       9     H     0.41036  0.41036  0.00000  0.17928
      10     H     0.41314  0.41314  0.00000  0.17371
      11     C     3.23935  3.23935  0.00000 -0.47870
      12     H     0.42272  0.42272  0.00000  0.15456
      13     H     0.42444  0.42444  0.00000  0.15111
      14     H     0.41940  0.41940  0.00000  0.16121
      15     H     0.41875  0.41875  0.00000  0.16251
      16     H     0.42014  0.42014  0.00000  0.15972
      17     C     3.09407  3.09407  0.00000 -0.18814
      18     H     0.40860  0.40860  0.00000  0.18280
      19     H     0.39996  0.39996  0.00000  0.20008
      20     H     0.42056  0.42056  0.00000  0.15889

   Total alpha = 32.00000, Total beta = 32.00000, Total charge =  0.00000
