  ==> Input File <==

--------------------------------------------------------------------------
set {
	reference rhf
	basis 6-31G*
}

set_num_threads( 4 )
memory 2 gb

molecule MOL {
0 1

O	 -0.244009	 1.207436	 0.736335
C	 -0.424154	 0.084033	 0.394443
C	 -1.761208	 -0.603291	 0.345079
O	 0.550821	 -0.724572	 0.000672
H	 -1.962538	 -0.940166	 -0.665201
H	 -2.531840	 0.080592	 0.668070
H	 -1.747136	 -1.477134	 0.986000
C	 1.863949	 -0.193559	 -0.000319
H	 2.028859	 0.409284	 -0.881648
H	 2.526261	 -1.045082	 -0.000003
H	 2.029520	 0.410555	 0.880008

	symmetry c1
}
set optking {
	frozen_dihedral = ("
		2 4 8 9
	")
}

ee = optimize('scf')
oeprop('DIPOLE', 'QUADRUPOLE', 'MULLIKEN_CHARGES')
f=open( 'psi4out.xyz', 'w' )
f.write( "11  " )
f.write( str(ee) + "\n" )
f.write( MOL.save_string_xyz() )
f.close()
--------------------------------------------------------------------------

    Molecular point group: c1
  Charge       = 0
  Multiplicity = 1
  Basis Set: 6-31G*
  Basis Set:
  @DF-RHF Final Energy:  -266.83579269853567
    Total Energy =                       -266.8357926985356130
    Molecular point group: c1
  Basis Set: 6-31G*
  Basis Set:
  Basis Set: 6-31G*
  Basis Set:
  @DF-RHF Final Energy:  -266.83584203526482
    Total Energy =                       -266.8358420352652161
  Basis Set: 6-31G*
  Basis Set:
  Basis Set: 6-31G*
  Basis Set:
  @DF-RHF Final Energy:  -266.83576968234240
    Total Energy =                       -266.8357696823425158
  Basis Set: 6-31G*
  Basis Set:
  Basis Set: 6-31G*
  Basis Set:
  @DF-RHF Final Energy:  -266.83588462362593
    Total Energy =                       -266.8358846236256454
  Basis Set: 6-31G*
  Basis Set:
  Charge       = 0
  Multiplicity = 1
  Basis Set: 6-31G*
  Basis Set:

    Orbital Energies (a.u.)
    -----------------------

    Doubly Occupied:

       1A    -20.605656     2A    -20.546297     3A    -11.376766
       4A    -11.281850     5A    -11.234574     6A     -1.470539
       7A     -1.364653     8A     -1.035975     9A     -0.953192
      10A     -0.777900    11A     -0.696038    12A     -0.680634
      13A     -0.677152    14A     -0.595966    15A     -0.591615
      16A     -0.560646    17A     -0.526076    18A     -0.522334
      19A     -0.457297    20A     -0.442194

  @DF-RHF Final Energy:  -266.83588844046142

   => Energetics <=

    Nuclear Repulsion Energy =            183.1954489426466068
    One-Electron Energy =                -727.2679696026160627
    Two-Electron Energy =                 277.2366322195081807
    DFT Exchange-Correlation Energy =       0.0000000000000000
    Empirical Dispersion Energy =           0.0000000000000000
    PCM Polarization Energy =               0.0000000000000000
    EFP Energy =                            0.0000000000000000
    Total Energy =                       -266.8358884404612468
    Molecular point group: c1
  Basis Set: 6-31G*
  Basis Set:

  -Total Gradient:
     Atom            X                  Y                   Z
    ------   -----------------  -----------------  -----------------
       1        0.000078604625    -0.000082405622    -0.000015384474
       2        0.000089585027    -0.000346835755     0.001200488948
       3        0.000000538317    -0.000027309671     0.000010524750
       4       -0.000060510645     0.000365373934    -0.001925669124
       5       -0.000009108595    -0.000008822414    -0.000001825732
       6        0.000014579992     0.000000498882    -0.000003845458
       7       -0.000011096648    -0.000010369182    -0.000003379547
       8       -0.000528217450     0.001354195722     0.001568959510
       9        0.000462085214    -0.001235531190    -0.000804617495
      10       -0.000001402625     0.000014150498    -0.000027929901
      11       -0.000035057212    -0.000022945204     0.000002678524

  **** Optimization is complete! (in 5 steps) ****
    Final optimized geometry and variables:
    Molecular point group: c1

    Geometry (in Angstrom), charge = 0, multiplicity = 1:

    O           -0.274806483960     1.261021798682     0.432359667181
    C           -0.444983928974     0.133891125254     0.098051404656
    C           -1.776184298647    -0.565691828299     0.058965079975
    O            0.533671207321    -0.671682563923    -0.293890838261
    H           -1.978847788350    -0.909799930637    -0.948644245852
    H           -2.551381152099     0.113214928818     0.381253364236
    H           -1.751614451442    -1.435990361492     0.704443858114
    C            1.852916175616    -0.155253942931    -0.281079233990
    H            2.021964397273     0.452446983486    -1.159810045265
    H            2.507170736435    -1.013237945415    -0.305070962365
    H            2.029051340587     0.430084094258     0.607421134473

  Mulliken Charges: (a.u.)
   Center  Symbol    Alpha    Beta     Spin     Total
       1     O     4.28194  4.28194  0.00000 -0.56389
       2     C     2.62244  2.62244  0.00000  0.75513
       3     C     3.28181  3.28181  0.00000 -0.56362
       4     O     4.29987  4.29987  0.00000 -0.59974
       5     H     0.39983  0.39983  0.00000  0.20033
       6     H     0.39663  0.39663  0.00000  0.20674
       7     H     0.40006  0.40006  0.00000  0.19988
       8     C     3.09358  3.09358  0.00000 -0.18716
       9     H     0.41190  0.41190  0.00000  0.17620
      10     H     0.40902  0.40902  0.00000  0.18196
      11     H     0.40292  0.40292  0.00000  0.19416

   Total alpha = 20.00000, Total beta = 20.00000, Total charge = -0.00000
