                              Psi4 1.0.54 Driver

  ==> Input File <==

--------------------------------------------------------------------------
set {
	reference rhf
	basis cc-pvtz
}

set_num_threads( 4 )
memory 2 gb

molecule MOL {
0 1

H	 1.380902	 0.738359	 -0.911517
C	 0.848385	 0.440008	 0.000011
C	 -0.623497	 0.751021	 0.000090
O	 1.432354	 -0.082369	 0.885080
C	 -1.523725	 -0.474323	 -0.000013
H	 -0.813143	 1.382932	 -0.864897
H	 -0.813071	 1.382716	 0.865253
H	 -1.342980	 -1.087348	 -0.873016
H	 -2.565269	 -0.177464	 0.000070
H	 -1.342898	 -1.087564	 0.872820

	symmetry c1
}
set optking {
	frozen_dihedral = ("
		4 2 3 6
	")
}

ee,wfn = optimize('scf', return_wfn=True)
oeprop( wfn, 'DIPOLE', 'QUADRUPOLE', 'MULLIKEN_CHARGES')
f=open( 'psi4out.xyz', 'w' )
f.write( "10  " )
f.write( str(ee) + "\n" )
f.write( MOL.save_string_xyz() )
f.close()
--------------------------------------------------------------------------

    Molecular point group: c1
  Charge       = 0
  Multiplicity = 1
  Basis Set: CC-PVTZ
  Basis Set:
  @DF-RHF Final Energy:  -192.02060217305183
    Total Energy =                       -192.0206021730518842
    Molecular point group: c1
  Basis Set: CC-PVTZ
  Basis Set:
  Basis Set: CC-PVTZ
  Basis Set:
  @DF-RHF Final Energy:  -192.02112902729047
    Total Energy =                       -192.0211290272905273
  Basis Set: CC-PVTZ
  Basis Set:
  Basis Set: CC-PVTZ
  Basis Set:
  @DF-RHF Final Energy:  -192.02142811585054
    Total Energy =                       -192.0214281158504832
  Basis Set: CC-PVTZ
  Basis Set:
  Basis Set: CC-PVTZ
  Basis Set:
  @DF-RHF Final Energy:  -192.02130909543189
    Total Energy =                       -192.0213090954317749
  Basis Set: CC-PVTZ
  Basis Set:
  Basis Set: CC-PVTZ
  Basis Set:
  @DF-RHF Final Energy:  -192.02148267272236
    Total Energy =                       -192.0214826727222999
  Basis Set: CC-PVTZ
  Basis Set:
  Basis Set: CC-PVTZ
  Basis Set:
  @DF-RHF Final Energy:  -192.02148456193629
    Total Energy =                       -192.0214845619365178
  Basis Set: CC-PVTZ
  Basis Set:
  Charge       = 0
  Multiplicity = 1
  Basis Set: CC-PVTZ
  Basis Set:

    Orbital Energies (a.u.)
    -----------------------

    Doubly Occupied:

       1A    -20.553449     2A    -11.323293     3A    -11.237547
       4A    -11.227237     5A     -1.408939     6A     -1.062406
       7A     -0.905717     8A     -0.785781     9A     -0.685831
      10A     -0.642496    11A     -0.609231    12A     -0.573287
      13A     -0.539586    14A     -0.511362    15A     -0.496451
      16A     -0.414378

  @DF-RHF Final Energy:  -192.02148466602091

   => Energetics <=

    Nuclear Repulsion Energy =            118.7094830934870515
    One-Electron Energy =                -495.5079499773779617
    Two-Electron Energy =                 184.7769822178700565
    DFT Exchange-Correlation Energy =       0.0000000000000000
    Empirical Dispersion Energy =           0.0000000000000000
    PCM Polarization Energy =               0.0000000000000000
    EFP Energy =                            0.0000000000000000
    Total Energy =                       -192.0214846660208536
    Molecular point group: c1
  Basis Set: CC-PVTZ
  Basis Set:

  -Total Gradient:
     Atom            X                  Y                   Z
    ------   -----------------  -----------------  -----------------
       1       -0.000006605198    -0.000007041689     0.000009880512
       2        0.000152763898     0.000576294635     0.000260600210
       3        0.000058305077     0.000290987604     0.000300114155
       4       -0.000115575937    -0.000461080422    -0.000247927059
       5        0.000007856147     0.000005186565     0.000002074468
       6       -0.000090317510    -0.000400773126    -0.000316371733
       7        0.000001978908    -0.000000306251    -0.000005065673
       8        0.000000368321     0.000000806038    -0.000001877275
       9       -0.000003986399    -0.000004016435     0.000000401330
      10       -0.000004787305    -0.000000056920    -0.000001828936

  **** Optimization is complete! (in 7 steps) ****
    Final optimized geometry and variables:
    Molecular point group: c1

    Geometry (in Angstrom), charge = 0, multiplicity = 1:

    H            1.395066245166     0.630958418046    -1.069302855030
    C            0.821145275558     0.308355252894    -0.192527804288
    C           -0.649699730149     0.653507594091    -0.182472762004
    O            1.355344450604    -0.293564804422     0.673738609041
    C           -1.513678880300    -0.602444121962    -0.323848905007
    H           -0.864640549520     1.350428302730    -0.984068518664
    H           -0.865625888746     1.144237673863     0.759392966334
    H           -1.322027321955    -1.107845269900    -1.263787888930
    H           -2.564138724422    -0.342630574240    -0.294008084510
    H           -1.307191368755    -1.295599254159     0.480134665698

  Mulliken Charges: (a.u.)
   Center  Symbol    Alpha    Beta     Spin     Total
       1     H     0.45858  0.45858  0.00000  0.08285
       2     C     2.90683  2.90683  0.00000  0.18634
       3     C     3.08348  3.08348  0.00000 -0.16695
       4     O     4.16815  4.16815  0.00000 -0.33629
       5     C     3.14436  3.14436  0.00000 -0.28872
       6     H     0.45068  0.45068  0.00000  0.09864
       7     H     0.44366  0.44366  0.00000  0.11267
       8     H     0.45409  0.45409  0.00000  0.09183
       9     H     0.44776  0.44776  0.00000  0.10448
      10     H     0.44242  0.44242  0.00000  0.11516

   Total alpha = 16.00000, Total beta = 16.00000, Total charge =  0.00000

*** Psi4 exiting successfully. Buy a developer a beer!
