  ==> Input File <==

--------------------------------------------------------------------------
set {
	reference rhf
	basis 6-31G*
}

set_num_threads( 4 )
memory 2 gb

molecule MOL {
0 1

O	 2.862325	 1.357334	 0.000267
C	 2.843464	 0.164689	 -0.000222
C	 1.546494	 -0.624492	 -0.000609
C	 4.124123	 -0.644674	 -0.000428
C	 0.291004	 0.242674	 0.000989
H	 1.557904	 -1.283758	 -0.867573
H	 1.558622	 -1.285963	 0.864672
C	 0.458881	 1.515824	 0.832053
H	 -0.542716	 -0.339158	 0.381136
H	 0.035389	 0.500470	 -1.021924
C	 -0.794442	 2.392645	 0.842001
H	 0.718514	 1.250080	 1.855781
H	 1.297582	 2.093727	 0.446469
C	 -0.634444	 3.668030	 1.671343
H	 -1.633345	 1.816176	 1.227934
H	 -1.054425	 2.659629	 -0.180802
C	 -1.890594	 4.538514	 1.676623
H	 -0.375722	 3.402390	 2.694242
H	 0.202899	 4.245861	 1.285564
H	 -2.739100	 3.999718	 2.088797
H	 -1.746480	 5.434271	 2.272903
H	 -2.155734	 4.850139	 0.670275
H	 4.165367	 -1.288615	 -0.874074
H	 4.976217	 0.020734	 -0.001915
H	 4.166763	 -1.286207	 0.874930

	symmetry c1
}
set optking {
	frozen_dihedral = ("
		9 5 3 6
	")
}

ee = optimize('scf')
oeprop('DIPOLE', 'QUADRUPOLE', 'MULLIKEN_CHARGES')
f=open( 'psi4out.xyz', 'w' )
f.write( "25  " )
f.write( str(ee) + "\n" )
f.write( MOL.save_string_xyz() )
f.close()
--------------------------------------------------------------------------

    Molecular point group: c1
  Charge       = 0
  Multiplicity = 1
  Basis Set: 6-31G*
  Basis Set:
  @DF-RHF Final Energy:  -387.11376697043301
    Total Energy =                       -387.1137669704324935
    Molecular point group: c1
  Basis Set: 6-31G*
  Basis Set:
  Basis Set: 6-31G*
  Basis Set:
  @DF-RHF Final Energy:  -387.12661023361079
    Total Energy =                       -387.1266102336107906
  Basis Set: 6-31G*
  Basis Set:
  Basis Set: 6-31G*
  Basis Set:
  @DF-RHF Final Energy:  -387.12921537984499
    Total Energy =                       -387.1292153798450499
  Basis Set: 6-31G*
  Basis Set:
  Basis Set: 6-31G*
  Basis Set:
  @DF-RHF Final Energy:  -387.12858568638723
    Total Energy =                       -387.1285856863870549
  Basis Set: 6-31G*
  Basis Set:
  @DF-RHF Final Energy:  -387.13093978863304
    Total Energy =                       -387.1309397886325314
  @DF-RHF Final Energy:  -387.13123052571007
    Total Energy =                       -387.1312305257102935
  @DF-RHF Final Energy:  -387.13165491311111
    Total Energy =                       -387.1316549131113334
  @DF-RHF Final Energy:  -387.13181439243749
    Total Energy =                       -387.1318143924378319
  Basis Set: 6-31G*
  Basis Set:
  @DF-RHF Final Energy:  -387.13182433454040
    Total Energy =                       -387.1318243345406245
  Basis Set: 6-31G*
  Basis Set:
  Basis Set: 6-31G*
  Basis Set:
  @DF-RHF Final Energy:  -387.13183409211399
    Total Energy =                       -387.1318340921137633
  Basis Set: 6-31G*
  Basis Set:
  Basis Set: 6-31G*
  Basis Set:
  @DF-RHF Final Energy:  -387.13183625185223
    Total Energy =                       -387.1318362518520644
  Basis Set: 6-31G*
  Basis Set:
  Charge       = 0
  Multiplicity = 1
  Basis Set: 6-31G*
  Basis Set:

    Orbital Energies (a.u.)
    -----------------------

    Doubly Occupied:

       1A    -20.548321     2A    -11.326573     3A    -11.232610
       4A    -11.228689     5A    -11.221852     6A    -11.212223
       7A    -11.210915     8A    -11.209754     9A    -11.206162
      10A     -1.394825    11A     -1.090583    12A     -1.054336
      13A     -1.013116    14A     -0.967853    15A     -0.889892
      16A     -0.816290    17A     -0.788550    18A     -0.723955
      19A     -0.666510    20A     -0.638370    21A     -0.632580
      22A     -0.620867    23A     -0.597747    24A     -0.584207
      25A     -0.567475    26A     -0.560258    27A     -0.535061
      28A     -0.529738    29A     -0.515621    30A     -0.493300
      31A     -0.482740    32A     -0.475196    33A     -0.460925
      34A     -0.459015    35A     -0.439918    36A     -0.396717

  @DF-RHF Final Energy:  -387.13183685704752

   => Energetics <=

    Nuclear Repulsion Energy =            449.8521082213074465
    One-Electron Energy =               -1416.3823984087248391
    Two-Electron Energy =                 579.3984533303701028
    DFT Exchange-Correlation Energy =       0.0000000000000000
    Empirical Dispersion Energy =           0.0000000000000000
    PCM Polarization Energy =               0.0000000000000000
    EFP Energy =                            0.0000000000000000
    Total Energy =                       -387.1318368570473467
    Molecular point group: c1
  Basis Set: 6-31G*
  Basis Set:

  -Total Gradient:
     Atom            X                  Y                   Z
    ------   -----------------  -----------------  -----------------
       1       -0.000026231931    -0.000045237895     0.000019048437
       2       -0.000040073007     0.000057530248     0.000010315935
       3       -0.004169497406    -0.005379450056     0.005836547477
       4        0.000008601297    -0.000023365413    -0.000046786029
       5       -0.001070784174    -0.001216292614    -0.008608398435
       6        0.003709872537     0.004674555319    -0.003618455276
       7       -0.000013143843    -0.000000650502    -0.000011554148
       8        0.000030362067     0.000040214335    -0.000072491717
       9        0.001577348974     0.001927383905     0.006425748304
      10       -0.000007413793     0.000021225932     0.000027831210
      11       -0.000008743358    -0.000023696856     0.000011983317
      12       -0.000011675919    -0.000011663124     0.000004708803
      13        0.000023010276    -0.000027661735    -0.000002853041
      14        0.000004334659    -0.000010484099     0.000015315553
      15       -0.000009718633    -0.000002478446    -0.000000771030
      16       -0.000008420007     0.000005473290     0.000001553946
      17        0.000002996176     0.000000991860    -0.000020231399
      18       -0.000002577206    -0.000005441939     0.000004293433
      19        0.000002035143    -0.000004952480     0.000006241613
      20        0.000004383099    -0.000000347764     0.000004835023
      21        0.000007217823    -0.000001473435    -0.000006714880
      22       -0.000008603343     0.000001085009    -0.000004380320
      23       -0.000006706518     0.000022542967     0.000008303909
      24        0.000015393910    -0.000004746275     0.000000528956
      25       -0.000001966822     0.000006939767     0.000015380362

  **** Optimization is complete! (in 12 steps) ****
    Final optimized geometry and variables:
    Molecular point group: c1

    Geometry (in Angstrom), charge = 0, multiplicity = 1:

    O            2.043759059486    -0.333779749670    -1.420153904122
    C            1.894596302313    -1.323596432962    -0.770304495032
    C            0.531587535036    -1.981081580516    -0.611068368822
    C            3.066096849263    -2.023440496281    -0.116766639250
    C           -0.668165112030    -1.021031779447    -0.601410961074
    H            0.472122638806    -2.618511753372    -1.493490563457
    H            0.527929898323    -2.625311571979     0.261799343523
    C           -0.506100026578     0.199107102104     0.314645049575
    H           -1.520627523720    -1.579278675905    -0.222105404210
    H           -0.895130413387    -0.695805842974    -1.609826823589
    C           -1.791649139310     1.021978521753     0.420315551078
    H           -0.216468980951    -0.137177214308     1.310730222590
    H            0.295351729615     0.830379121556    -0.048548535899
    C           -1.648465865298     2.250187270274     1.320929833673
    H           -2.597955755882     0.393881231437     0.796527598104
    H           -2.094450367748     1.342319155280    -0.575274642778
    C           -2.932827224081     3.072777518376     1.418193325814
    H           -1.347274666035     1.933006973716     2.317298379178
    H           -0.844605710397     2.879065498809     0.945136051357
    H           -3.748416678171     2.480641855302     1.824024333020
    H           -2.799404883672     3.936601526225     2.062190617722
    H           -3.241960563173     3.433483307385     0.441197665334
    H            3.076068444477    -3.078662577067    -0.373774124168
    H            3.992533121784    -1.560865682997    -0.427467571240
    H            2.974010261140    -1.957080884430     0.964124018180

  Mulliken Charges: (a.u.)
   Center  Symbol    Alpha    Beta     Spin     Total
       1     O     4.26550  4.26550  0.00000 -0.53100
       2     C     2.73403  2.73403  0.00000  0.53193
       3     C     3.21084  3.21084  0.00000 -0.42167
       4     C     3.28872  3.28872  0.00000 -0.57744
       5     C     3.14608  3.14608  0.00000 -0.29216
       6     H     0.40206  0.40206  0.00000  0.19587
       7     H     0.41291  0.41291  0.00000  0.17418
       8     C     3.16340  3.16340  0.00000 -0.32680
       9     H     0.42055  0.42055  0.00000  0.15890
      10     H     0.41083  0.41083  0.00000  0.17833
      11     C     3.15142  3.15142  0.00000 -0.30284
      12     H     0.42992  0.42992  0.00000  0.14016
      13     H     0.40197  0.40197  0.00000  0.19605
      14     C     3.15141  3.15141  0.00000 -0.30281
      15     H     0.42637  0.42637  0.00000  0.14726
      16     H     0.42236  0.42236  0.00000  0.15528
      17     C     3.23929  3.23929  0.00000 -0.47859
      18     H     0.42441  0.42441  0.00000  0.15118
      19     H     0.42077  0.42077  0.00000  0.15846
      20     H     0.42270  0.42270  0.00000  0.15460
      21     H     0.41963  0.41963  0.00000  0.16074
      22     H     0.42140  0.42140  0.00000  0.15719
      23     H     0.40944  0.40944  0.00000  0.18111
      24     H     0.39704  0.39704  0.00000  0.20591
      25     H     0.40693  0.40693  0.00000  0.18615

   Total alpha = 36.00000, Total beta = 36.00000, Total charge =  0.00000
