                              Psi4 1.0.54 Driver

  ==> Input File <==

--------------------------------------------------------------------------
set {
	reference rhf
	basis cc-pvtz
}

set_num_threads( 4 )
memory 2 gb

molecule MOL {
0 1

H	 2.659779	 -0.042428	 0.620055
O	 2.063695	 -0.083403	 -0.105237
C	 0.742924	 0.005675	 0.350750
H	 0.731380	 0.039219	 1.440080
C	 -0.064076	 -1.193495	 -0.124425
C	 -0.047832	 1.190568	 -0.194462
H	 0.194729	 -1.376165	 -1.161308
H	 0.163013	 -2.094508	 0.429933
C	 -1.533112	 -0.752002	 0.006102
H	 0.148003	 1.266545	 -1.259275
H	 0.226235	 2.136493	 0.259722
C	 -1.506634	 0.799189	 0.067162
H	 -2.124360	 -1.110499	 -0.826089
H	 -1.983103	 -1.158030	 0.903403
H	 -2.183808	 1.252169	 -0.644677
H	 -1.813926	 1.138698	 1.049457

	symmetry c1
}
set optking {
	frozen_dihedral = ("
		1 2 3 6
	")
}

ee,wfn = optimize('scf', return_wfn=True)
oeprop( wfn, 'DIPOLE', 'QUADRUPOLE', 'MULLIKEN_CHARGES')
f=open( 'psi4out.xyz', 'w' )
f.write( "16  " )
f.write( str(ee) + "\n" )
f.write( MOL.save_string_xyz() )
f.close()
--------------------------------------------------------------------------

    Molecular point group: c1
  Charge       = 0
  Multiplicity = 1
  Basis Set: CC-PVTZ
  Basis Set:
  @DF-RHF Final Energy:  -270.11505129488035
    Total Energy =                       -270.1150512948805158
    Molecular point group: c1
  Basis Set: CC-PVTZ
  Basis Set:
  Basis Set: CC-PVTZ
  Basis Set:
  @DF-RHF Final Energy:  -270.11542790125662
    Total Energy =                       -270.1154279012566803
  Basis Set: CC-PVTZ
  Basis Set:
  Basis Set: CC-PVTZ
  Basis Set:
  @DF-RHF Final Energy:  -270.11545844815953
    Total Energy =                       -270.1154584481598704
  Basis Set: CC-PVTZ
  Basis Set:
  Basis Set: CC-PVTZ
  Basis Set:
  @DF-RHF Final Energy:  -270.11545977934833
    Total Energy =                       -270.1154597793485550
  Basis Set: CC-PVTZ
  Basis Set:
  Charge       = 0
  Multiplicity = 1
  Basis Set: CC-PVTZ
  Basis Set:

    Orbital Energies (a.u.)
    -----------------------

    Doubly Occupied:

       1A    -20.544925     2A    -11.268292     3A    -11.212629
       4A    -11.212033     5A    -11.206013     6A    -11.205920
       7A     -1.364506     8A     -1.113498     9A     -0.964141
      10A     -0.949206    11A     -0.781599    12A     -0.778402
      13A     -0.718205    14A     -0.653294    15A     -0.621860
      16A     -0.579313    17A     -0.549609    18A     -0.532725
      19A     -0.522017    20A     -0.479185    21A     -0.469145
      22A     -0.456291    23A     -0.452641    24A     -0.412952

  @DF-RHF Final Energy:  -270.11545993445651

   => Energetics <=

    Nuclear Repulsion Energy =            255.3024766859680881
    One-Electron Energy =                -872.7390683739456563
    Two-Electron Energy =                 347.3211317535211720
    DFT Exchange-Correlation Energy =       0.0000000000000000
    Empirical Dispersion Energy =           0.0000000000000000
    PCM Polarization Energy =               0.0000000000000000
    EFP Energy =                            0.0000000000000000
    Total Energy =                       -270.1154599344564531
    Molecular point group: c1
  Basis Set: CC-PVTZ
  Basis Set:

  -Total Gradient:
     Atom            X                  Y                   Z
    ------   -----------------  -----------------  -----------------
       1        0.000004972563    -0.000203271735     0.000024521107
       2       -0.000038393247     0.000210259630    -0.000058157045
       3        0.000065187593     0.000074549889     0.000124384263
       4        0.000004455389    -0.000002389790    -0.000001378048
       5        0.000015062426    -0.000000416616    -0.000006263107
       6       -0.000062739035    -0.000046706895    -0.000085364063
       7       -0.000006393739    -0.000009849648     0.000002299556
       8       -0.000006041029     0.000001146351     0.000002183324
       9       -0.000005848648     0.000000607125     0.000023429528
      10       -0.000000163964    -0.000008752291     0.000004277552
      11        0.000009680175     0.000009060268     0.000002236766
      12        0.000015708821    -0.000009106817    -0.000022981730
      13        0.000002302495    -0.000003558551    -0.000011875638
      14       -0.000009460369    -0.000009482321    -0.000009737481
      15       -0.000001630680    -0.000006606998     0.000008687064
      16        0.000013301256     0.000004518399     0.000003737953

  **** Optimization is complete! (in 5 steps) ****
    Final optimized geometry and variables:
    Molecular point group: c1

    Geometry (in Angstrom), charge = 0, multiplicity = 1:

    H            2.674853974105    -0.002737021911     0.586042257479
    O            2.064815681292    -0.052353161873    -0.123913986844
    C            0.743868368657     0.000554040535     0.348819223043
    H            0.742618732547     0.050412354160     1.435788478534
    C           -0.081257357617    -1.199153097124    -0.105487754484
    C           -0.036454323308     1.184903244550    -0.207255528120
    H            0.177855854900    -1.402013081593    -1.138548391999
    H            0.133512946461    -2.095381025854     0.462980225575
    C           -1.544978198973    -0.739686202942     0.013760875580
    H            0.167059835625     1.248019166399    -1.271219930885
    H            0.251978649079     2.129528587165     0.237332931906
    C           -1.499826812292     0.812378367121     0.050818964783
    H           -2.138291624350    -1.103808083116    -0.814582771935
    H           -2.002872242668    -1.126445972974     0.915756091021
    H           -2.168844474561     1.260762022112    -0.671555523122
    H           -1.809563678641     1.170086268399     1.026120388763

  Mulliken Charges: (a.u.)
   Center  Symbol    Alpha    Beta     Spin     Total
       1     H     0.39150  0.39150  0.00000  0.21700
       2     O     4.20464  4.20464  0.00000 -0.40927
       3     C     2.92107  2.92107  0.00000  0.15786
       4     H     0.47023  0.47023  0.00000  0.05953
       5     C     3.10088  3.10088  0.00000 -0.20175
       6     C     3.09483  3.09483  0.00000 -0.18965
       7     H     0.45206  0.45206  0.00000  0.09588
       8     H     0.44724  0.44724  0.00000  0.10552
       9     C     3.11158  3.11158  0.00000 -0.22315
      10     H     0.45345  0.45345  0.00000  0.09309
      11     H     0.44872  0.44872  0.00000  0.10257
      12     C     3.11406  3.11406  0.00000 -0.22812
      13     H     0.44545  0.44545  0.00000  0.10911
      14     H     0.44924  0.44924  0.00000  0.10153
      15     H     0.44373  0.44373  0.00000  0.11255
      16     H     0.45134  0.45134  0.00000  0.09731

   Total alpha = 24.00000, Total beta = 24.00000, Total charge =  0.00000

*** Psi4 exiting successfully. Buy a developer a beer!
