  ==> Input File <==

--------------------------------------------------------------------------
set {
	reference rhf
	basis 6-31G*
}

set_num_threads( 4 )
memory 2 gb

molecule MOL {
0 1

H	 -3.426445	 1.555291	 -0.281803
C	 -2.705475	 0.951772	 0.234558
C	 -2.076860	 -0.007332	 -0.404944
H	 -2.516829	 1.152568	 1.272346
O	 -1.180634	 -0.819263	 0.215062
H	 -2.246121	 -0.219845	 -1.445802
C	 0.051604	 -1.018856	 -0.387932
C	 1.043764	 0.054862	 -0.001873
H	 -0.017620	 -1.041351	 -1.469781
H	 0.437898	 -1.966374	 -0.042284
F	 2.212596	 -0.199467	 -0.571921
F	 0.652529	 1.252447	 -0.405055
F	 1.230877	 0.110694	 1.300533

	symmetry c1
}
set optking {
	frozen_dihedral = ("
		6 3 5 7
	")
}

ee = optimize('scf')
oeprop('DIPOLE', 'QUADRUPOLE', 'MULLIKEN_CHARGES')
f=open( 'psi4out.xyz', 'w' )
f.write( "13  " )
f.write( str(ee) + "\n" )
f.write( MOL.save_string_xyz() )
f.close()
--------------------------------------------------------------------------

    Molecular point group: c1
  Charge       = 0
  Multiplicity = 1
  Basis Set: 6-31G*
  Basis Set:
  @DF-RHF Final Energy:  -527.53423523946435
    Total Energy =                       -527.5342352394646923
    Molecular point group: c1
  Basis Set: 6-31G*
  Basis Set:
  Basis Set: 6-31G*
  Basis Set:
  @DF-RHF Final Energy:  -527.53435827588771
    Total Energy =                       -527.5343582758877119
  Basis Set: 6-31G*
  Basis Set:
  Basis Set: 6-31G*
  Basis Set:
  @DF-RHF Final Energy:  -527.53460332563270
    Total Energy =                       -527.5346033256325882
  Basis Set: 6-31G*
  Basis Set:
  Basis Set: 6-31G*
  Basis Set:
  @DF-RHF Final Energy:  -527.53460804011536
    Total Energy =                       -527.5346080401153586
  Basis Set: 6-31G*
  Basis Set:
  Charge       = 0
  Multiplicity = 1
  Basis Set: 6-31G*
  Basis Set:

    Orbital Energies (a.u.)
    -----------------------

    Doubly Occupied:

       1A    -26.341533     2A    -26.339704     3A    -26.338087
       4A    -20.604133     5A    -11.500420     6A    -11.316073
       7A    -11.296896     8A    -11.221753     9A     -1.738734
      10A     -1.636507    11A     -1.635327    12A     -1.433080
      13A     -1.080890    14A     -1.017264    15A     -0.922946
      16A     -0.834019    17A     -0.827873    18A     -0.815983
      19A     -0.791076    20A     -0.713679    21A     -0.710193
      22A     -0.688367    23A     -0.674377    24A     -0.662516
      25A     -0.652145    26A     -0.641996    27A     -0.639948
      28A     -0.582367    29A     -0.566208    30A     -0.526595
      31A     -0.489049    32A     -0.362525

  @DF-RHF Final Energy:  -527.53460895027797

   => Energetics <=

    Nuclear Repulsion Energy =            415.8706269158915916
    One-Electron Energy =               -1555.6059462903849635
    Two-Electron Energy =                 612.2007104242151172
    DFT Exchange-Correlation Energy =       0.0000000000000000
    Empirical Dispersion Energy =           0.0000000000000000
    PCM Polarization Energy =               0.0000000000000000
    EFP Energy =                            0.0000000000000000
    Total Energy =                       -527.5346089502783116
    Molecular point group: c1
  Basis Set: 6-31G*
  Basis Set:

  -Total Gradient:
     Atom            X                  Y                   Z
    ------   -----------------  -----------------  -----------------
       1        0.000004548491    -0.000009226580    -0.000001585805
       2        0.000047298601    -0.000032515352     0.000017358789
       3        0.002562643697     0.002569711292    -0.000384648270
       4       -0.000012102146     0.000009333669     0.000003643904
       5       -0.001640742314    -0.002535649485    -0.001063228862
       6       -0.001699906661    -0.001390766007     0.000568778430
       7        0.000768042842     0.001399885810     0.000862658792
       8        0.000038527597     0.000001045587    -0.000057030332
       9       -0.000000162429    -0.000002339406     0.000012660162
      10       -0.000001582563     0.000006656545    -0.000003307339
      11       -0.000018078154    -0.000004448916     0.000015486868
      12       -0.000042432508    -0.000014516756     0.000013457723
      13       -0.000006054449     0.000002829602     0.000015755943

  **** Optimization is complete! (in 5 steps) ****
    Final optimized geometry and variables:
    Molecular point group: c1

    Geometry (in Angstrom), charge = 0, multiplicity = 1:

    H           -3.542352534786     1.464581898830    -0.271372997117
    C           -2.800733297611     0.882227793987     0.240981096485
    C           -2.126392528606    -0.039882166832    -0.404109296827
    H           -2.635966783762     1.067883519411     1.285794590219
    O           -1.243800964842    -0.870271371853     0.221100052389
    H           -2.284085536980    -0.258642337945    -1.447510611738
    C           -0.014868344743    -1.075890024909    -0.391881469678
    C            0.994275854820    -0.014144854192    -0.015606714590
    H           -0.093291637223    -1.096400785849    -1.473733666296
    H            0.367860334393    -2.025914994632    -0.049091197854
    F            2.167651136803    -0.318524328054    -0.553066999114
    F            0.650813364889     1.182036185791    -0.458366859683
    F            1.156554629050     0.070636095936     1.289464547183

  Mulliken Charges: (a.u.)
   Center  Symbol    Alpha    Beta     Spin     Total
       1     H     0.40653  0.40653  0.00000  0.18693
       2     C     3.22043  3.22043  0.00000 -0.44087
       3     C     2.90852  2.90852  0.00000  0.18295
       4     H     0.39997  0.39997  0.00000  0.20007
       5     O     4.30280  4.30280  0.00000 -0.60559
       6     H     0.40892  0.40892  0.00000  0.18215
       7     C     3.05885  3.05885  0.00000 -0.11771
       8     C     2.45703  2.45703  0.00000  1.08594
       9     H     0.40783  0.40783  0.00000  0.18434
      10     H     0.39254  0.39254  0.00000  0.21493
      11     F     4.68365  4.68365  0.00000 -0.36731
      12     F     4.67740  4.67740  0.00000 -0.35481
      13     F     4.67552  4.67552  0.00000 -0.35103

   Total alpha = 32.00000, Total beta = 32.00000, Total charge = -0.00000
