  ==> Input File <==

--------------------------------------------------------------------------
set {
	reference rhf
	basis 6-31G*
}

set_num_threads( 4 )
memory 2 gb

molecule MOL {
0 1

H	 -0.094000	 0.484986	 -2.635939
C	 -0.835651	 0.777908	 -1.898842
O	 -0.774054	 0.001095	 -0.743181
H	 -1.817510	 0.619142	 -2.324372
H	 -0.721430	 1.837969	 -1.692890
C	 0.406953	 0.000033	 0.038965
C	 1.527284	 -0.003667	 -0.998752
C	 0.498933	 1.262172	 0.902524
C	 0.494271	 -1.259566	 0.906664
H	 1.452513	 0.873252	 -1.631882
H	 1.448863	 -0.881882	 -1.629595
H	 2.502020	 -0.005104	 -0.521731
H	 0.364280	 2.147110	 0.289513
H	 1.472180	 1.321775	 1.378800
H	 -0.247853	 1.275162	 1.689097
H	 0.356778	 -2.146106	 0.296587
H	 1.467182	 -1.320941	 1.383330
H	 -0.252763	 -1.267328	 1.693119

	symmetry c1
}
set optking {
	frozen_dihedral = ("
		2 3 6 7
	")
}

ee = optimize('scf')
oeprop('DIPOLE', 'QUADRUPOLE', 'MULLIKEN_CHARGES')
f=open( 'psi4out.xyz', 'w' )
f.write( "18  " )
f.write( str(ee) + "\n" )
f.write( MOL.save_string_xyz() )
f.close()
--------------------------------------------------------------------------

    Molecular point group: c1
  Charge       = 0
  Multiplicity = 1
  Basis Set: 6-31G*
  Basis Set:
  @DF-RHF Final Energy:  -271.16307152739654
    Total Energy =                       -271.1630715273967098
    Molecular point group: c1
  Basis Set: 6-31G*
  Basis Set:
  Basis Set: 6-31G*
  Basis Set:
  @DF-RHF Final Energy:  -271.16884849498706
    Total Energy =                       -271.1688484949870031
  Basis Set: 6-31G*
  Basis Set:
  Basis Set: 6-31G*
  Basis Set:
  @DF-RHF Final Energy:  -271.17325646195007
    Total Energy =                       -271.1732564619501886
  Basis Set: 6-31G*
  Basis Set:
  Basis Set: 6-31G*
  Basis Set:
  @DF-RHF Final Energy:  -271.17439539467074
    Total Energy =                       -271.1743953946708530
  Basis Set: 6-31G*
  Basis Set:
  @DF-RHF Final Energy:  -271.17466565347740
    Total Energy =                       -271.1746656534775184
  @DF-RHF Final Energy:  -271.17477366256787
    Total Energy =                       -271.1747736625678726
  Basis Set: 6-31G*
  Basis Set:
  @DF-RHF Final Energy:  -271.17481590476501
    Total Energy =                       -271.1748159047650688
  Basis Set: 6-31G*
  Basis Set:
  Basis Set: 6-31G*
  Basis Set:
  @DF-RHF Final Energy:  -271.17481156861248
    Total Energy =                       -271.1748115686125402
  Basis Set: 6-31G*
  Basis Set:
  Basis Set: 6-31G*
  Basis Set:
  @DF-RHF Final Energy:  -271.17481749763158
    Total Energy =                       -271.1748174976316932
  Basis Set: 6-31G*
  Basis Set:
  Charge       = 0
  Multiplicity = 1
  Basis Set: 6-31G*
  Basis Set:

    Orbital Energies (a.u.)
    -----------------------

    Doubly Occupied:

       1A    -20.546120     2A    -11.281387     3A    -11.261301
       4A    -11.211572     5A    -11.205852     6A    -11.203536
       7A     -1.369435     8A     -1.073161     9A     -0.948642
      10A     -0.937100    11A     -0.912379    12A     -0.752060
      13A     -0.655885    14A     -0.645140    15A     -0.637794
      16A     -0.589538    17A     -0.574113    18A     -0.552096
      19A     -0.535126    20A     -0.525110    21A     -0.514964
      22A     -0.489923    23A     -0.485350    24A     -0.440617
      25A     -0.401377

  @DF-RHF Final Energy:  -271.17481805731569

   => Energetics <=

    Nuclear Repulsion Energy =            272.3112069691755437
    One-Electron Energy =                -907.4728990100168176
    Two-Electron Energy =                 363.9868739835254701
    DFT Exchange-Correlation Energy =       0.0000000000000000
    Empirical Dispersion Energy =           0.0000000000000000
    PCM Polarization Energy =               0.0000000000000000
    EFP Energy =                            0.0000000000000000
    Total Energy =                       -271.1748180573157470
    Molecular point group: c1
  Basis Set: 6-31G*
  Basis Set:

  -Total Gradient:
     Atom            X                  Y                   Z
    ------   -----------------  -----------------  -----------------
       1       -0.000001108667     0.000001683689     0.000002317802
       2        0.000689190260    -0.001680540412    -0.001162799786
       3       -0.001037639990     0.003253337707     0.001730969640
       4       -0.000000487212    -0.000002351361     0.000000784279
       5       -0.000000046760     0.000001997085    -0.000002060393
       6        0.000369533794    -0.003407544693    -0.000522109657
       7       -0.000019560961     0.001843850014    -0.000060760037
       8       -0.000000363253    -0.000007163570     0.000012547417
       9       -0.000006564516    -0.000004378576    -0.000002756694
      10        0.000000365159     0.000002685253    -0.000010639480
      11        0.000005120376    -0.000002535192     0.000010965496
      12       -0.000002347594     0.000002617480     0.000000524808
      13        0.000004804690    -0.000009594610    -0.000000402294
      14       -0.000002005648    -0.000001061017     0.000009667150
      15       -0.000002999053     0.000014841566    -0.000003721681
      16        0.000002514994    -0.000005877968     0.000001641334
      17        0.000000772183    -0.000000597598    -0.000002084845
      18        0.000000822200     0.000000632203    -0.000002083059

  **** Optimization is complete! (in 10 steps) ****
    Final optimized geometry and variables:
    Molecular point group: c1

    Geometry (in Angstrom), charge = 0, multiplicity = 1:

    H           -0.599944597432     0.195506947999    -2.363756359778
    C           -1.176001039904     0.590962909789    -1.533003578905
    O           -0.998292033180    -0.151061339403    -0.367152854284
    H           -2.226377125304     0.525088071501    -1.783840577456
    H           -0.922535216951     1.640180410442    -1.404103419142
    C            0.249261444106    -0.115650438074     0.306682664545
    C            1.438887304160    -0.128146731103    -0.657975748483
    C            0.300060780543     1.130843771537     1.196042251112
    C            0.252467880058    -1.378024779226     1.164316105655
    H            1.501059080977     0.782127996209    -1.244030716861
    H            1.376357110695    -0.970823230223    -1.339040766812
    H            2.363253620558    -0.218476588404    -0.097426571711
    H            0.263718537306     2.040336478082     0.604973396001
    H            1.213951850834     1.154476293326     1.781605916474
    H           -0.544544869067     1.137331401764     1.876000345475
    H            0.214955814313    -2.260375122727     0.535056504963
    H            1.143816993329    -1.429242262037     1.781529946329
    H           -0.617011318829    -1.389178402989     1.811629503839

  Mulliken Charges: (a.u.)
   Center  Symbol    Alpha    Beta     Spin     Total
       1     H     0.42772  0.42772  0.00000  0.14457
       2     C     3.07850  3.07850  0.00000 -0.15700
       3     O     4.32024  4.32024  0.00000 -0.64047
       4     H     0.41261  0.41261  0.00000  0.17479
       5     H     0.43183  0.43183  0.00000  0.13633
       6     C     2.84220  2.84220  0.00000  0.31559
       7     C     3.25416  3.25416  0.00000 -0.50831
       8     C     3.23851  3.23851  0.00000 -0.47702
       9     C     3.23269  3.23269  0.00000 -0.46537
      10     H     0.41831  0.41831  0.00000  0.16338
      11     H     0.41405  0.41405  0.00000  0.17190
      12     H     0.41655  0.41655  0.00000  0.16691
      13     H     0.42144  0.42144  0.00000  0.15712
      14     H     0.42336  0.42336  0.00000  0.15328
      15     H     0.41366  0.41366  0.00000  0.17268
      16     H     0.41604  0.41604  0.00000  0.16793
      17     H     0.42518  0.42518  0.00000  0.14964
      18     H     0.41296  0.41296  0.00000  0.17408

   Total alpha = 25.00000, Total beta = 25.00000, Total charge =  0.00000
