  ==> Input File <==

--------------------------------------------------------------------------
set {
	reference rhf
	basis 6-31G*
}

set_num_threads( 4 )
memory 2 gb

molecule MOL {
0 1

O	 1.365575	 0.107038	 -0.888608
C	 0.576249	 0.131685	 -0.000108
C	 -0.766779	 -0.556801	 -0.000461
O	 0.781324	 0.785503	 1.136170
C	 -1.945214	 0.412366	 0.000161
H	 -0.796911	 -1.211249	 -0.867467
H	 -0.796854	 -1.212390	 0.865687
C	 -3.287791	 -0.317055	 0.000105
H	 -1.876087	 1.060580	 -0.866812
H	 -1.875822	 1.059691	 0.867761
H	 -3.394745	 -0.949193	 -0.877058
H	 -4.111778	 0.388953	 0.000015
H	 -3.394954	 -0.949187	 0.877259
C	 2.009619	 1.477966	 1.266531
H	 2.841755	 0.792494	 1.194275
H	 1.987155	 1.937334	 2.242411
H	 2.103586	 2.232913	 0.499239

	symmetry c1
}
set optking {
	frozen_dihedral = ("
		1 2 3 6
	")
}

ee = optimize('scf')
oeprop('DIPOLE', 'QUADRUPOLE', 'MULLIKEN_CHARGES')
f=open( 'psi4out.xyz', 'w' )
f.write( "17  " )
f.write( str(ee) + "\n" )
f.write( MOL.save_string_xyz() )
f.close()
--------------------------------------------------------------------------

    Molecular point group: c1
  Charge       = 0
  Multiplicity = 1
  Basis Set: 6-31G*
  Basis Set:
  @DF-RHF Final Energy:  -344.90523140756267
    Total Energy =                       -344.9052314075628374
    Molecular point group: c1
  Basis Set: 6-31G*
  Basis Set:
  Basis Set: 6-31G*
  Basis Set:
  @DF-RHF Final Energy:  -344.90545196126470
    Total Energy =                       -344.9054519612649301
  Basis Set: 6-31G*
  Basis Set:
  Basis Set: 6-31G*
  Basis Set:
  @DF-RHF Final Energy:  -344.90457921939924
    Total Energy =                       -344.9045792193994657
  Basis Set: 6-31G*
  Basis Set:
  Basis Set: 6-31G*
  Basis Set:
  @DF-RHF Final Energy:  -344.90557916595736
    Total Energy =                       -344.9055791659576471
  Basis Set: 6-31G*
  Basis Set:
  Basis Set: 6-31G*
  Basis Set:
  @DF-RHF Final Energy:  -344.90558453329135
    Total Energy =                       -344.9055845332910621
  Basis Set: 6-31G*
  Basis Set:
  Charge       = 0
  Multiplicity = 1
  Basis Set: 6-31G*
  Basis Set:

    Orbital Energies (a.u.)
    -----------------------

    Doubly Occupied:

       1A    -20.604486     2A    -20.544096     3A    -11.371224
       4A    -11.281050     5A    -11.234614     6A    -11.231737
       7A    -11.218721     8A     -1.469023     9A     -1.361696
      10A     -1.084554    11A     -0.999117    12A     -0.941714
      13A     -0.831138    14A     -0.774257    15A     -0.696981
      16A     -0.679993    17A     -0.673056    18A     -0.636858
      19A     -0.595758    20A     -0.579616    21A     -0.547987
      22A     -0.547772    23A     -0.525668    24A     -0.508678
      25A     -0.489255    26A     -0.484035    27A     -0.454622
      28A     -0.431773

  @DF-RHF Final Energy:  -344.90558548667371

   => Energetics <=

    Nuclear Repulsion Energy =            314.1747487244702484
    One-Electron Energy =               -1092.5617156034816162
    Two-Electron Energy =                 433.4813813923378234
    DFT Exchange-Correlation Energy =       0.0000000000000000
    Empirical Dispersion Energy =           0.0000000000000000
    PCM Polarization Energy =               0.0000000000000000
    EFP Energy =                            0.0000000000000000
    Total Energy =                       -344.9055854866736013
    Molecular point group: c1
  Basis Set: 6-31G*
  Basis Set:

  -Total Gradient:
     Atom            X                  Y                   Z
    ------   -----------------  -----------------  -----------------
       1        0.000022669912    -0.000030994253     0.000057012118
       2       -0.000013409109     0.000064391982    -0.000096781960
       3        0.000011977348    -0.000003436347     0.000020442824
       4        0.000001072660     0.000003865217    -0.000004314155
       5        0.000012180186    -0.000008200552     0.000066791044
       6       -0.000012807025    -0.000013728657     0.000002178268
       7       -0.000003758443    -0.000002918005    -0.000043141290
       8       -0.000011861013     0.000003017542    -0.000026022738
       9        0.000006901015    -0.000020272448     0.000029754681
      10       -0.000011780062     0.000014929578     0.000003662974
      11        0.000000844656    -0.000016806500     0.000001860641
      12       -0.000007533164     0.000001223145    -0.000013648944
      13        0.000004861242     0.000016409196     0.000000244531
      14       -0.000010072518    -0.000011810512     0.000001396741
      15        0.000004497762     0.000000711624     0.000000479619
      16        0.000006186806     0.000003175835     0.000001086877
      17        0.000000029747     0.000000443153    -0.000001001237

  **** Optimization is complete! (in 6 steps) ****
    Final optimized geometry and variables:
    Molecular point group: c1

    Geometry (in Angstrom), charge = 0, multiplicity = 1:

    O            1.500925726124    -0.187271881720    -1.122054398053
    C            0.729911160926    -0.180820887885    -0.216993305180
    C           -0.605867129139    -0.880989789131    -0.211720152284
    O            0.951843948204     0.467541373349     0.919930274737
    C           -1.782786915620     0.105216697015    -0.212918624870
    H           -0.639100630460    -1.515855943068    -1.087714443030
    H           -0.658469544114    -1.510572564204     0.671121044126
    C           -3.130373283416    -0.613286755535    -0.248045139043
    H           -1.698308987960     0.760385278589    -1.075874259037
    H           -1.723916919181     0.734854489193     0.668144478747
    H           -3.223429436758    -1.231960685661    -1.135626286165
    H           -3.948922132607     0.099045724699    -0.253183923992
    H           -3.254984519622    -1.255334297724     0.619122213178
    C            2.169904437663     1.181976817707     1.024890872570
    H            3.012094560796     0.512178391935     0.927617463723
    H            2.163245852503     1.634967081821     2.004039318407
    H            2.231062445238     1.942917801045     0.260245128489

  Mulliken Charges: (a.u.)
   Center  Symbol    Alpha    Beta     Spin     Total
       1     O     4.28484  4.28484  0.00000 -0.56968
       2     C     2.61620  2.61620  0.00000  0.76759
       3     C     3.19456  3.19456  0.00000 -0.38912
       4     O     4.30275  4.30275  0.00000 -0.60550
       5     C     3.16423  3.16423  0.00000 -0.32845
       6     H     0.39922  0.39922  0.00000  0.20155
       7     H     0.40469  0.40469  0.00000  0.19061
       8     C     3.24110  3.24110  0.00000 -0.48220
       9     H     0.41302  0.41302  0.00000  0.17397
      10     H     0.40776  0.40776  0.00000  0.18447
      11     H     0.41829  0.41829  0.00000  0.16342
      12     H     0.41524  0.41524  0.00000  0.16951
      13     H     0.41936  0.41936  0.00000  0.16127
      14     C     3.09233  3.09233  0.00000 -0.18466
      15     H     0.40860  0.40860  0.00000  0.18279
      16     H     0.40881  0.40881  0.00000  0.18239
      17     H     0.40899  0.40899  0.00000  0.18202

   Total alpha = 28.00000, Total beta = 28.00000, Total charge =  0.00000
