                              Psi4 1.0.54 Driver

  ==> Input File <==

--------------------------------------------------------------------------
set {
	reference rhf
	basis cc-pvtz
}

set_num_threads( 4 )
memory 2 gb

molecule MOL {
0 1

H	 0.358041	 -2.415741	 -4.480909
O	 1.295892	 -2.461102	 -4.495290
C	 1.845653	 -1.363718	 -3.815007
C	 1.682955	 -1.443106	 -2.304407
H	 2.897821	 -1.357654	 -4.065777
H	 1.420251	 -0.434058	 -4.188122
C	 0.234958	 -1.371006	 -1.824868
H	 2.138195	 -2.365338	 -1.955981
H	 2.248794	 -0.625614	 -1.864031
C	 0.113298	 -1.420414	 -0.302504
H	 -0.327829	 -2.190593	 -2.259092
H	 -0.219738	 -0.451363	 -2.189278
C	 -1.311023	 -1.277304	 0.237018
H	 0.542339	 -2.351484	 0.059793
H	 0.721226	 -0.624226	 0.118180
C	 -2.041121	 -0.006551	 -0.194127
H	 -1.888548	 -2.136293	 -0.093331
H	 -1.289731	 -1.328757	 1.323321
C	 -3.489218	 0.042606	 0.286507
H	 -2.022185	 0.066287	 -1.279394
H	 -1.518764	 0.869305	 0.178730
C	 -4.219984	 1.311773	 -0.139038
H	 -4.022855	 -0.824300	 -0.093339
H	 -3.510372	 -0.038577	 1.370031
H	 -4.244251	 1.405725	 -1.219696
H	 -5.244345	 1.313233	 0.215630
H	 -3.732090	 2.196311	 0.257073

	symmetry c1
}
set optking {
	frozen_dihedral = ("
		14 10 13 16
	")
}

ee,wfn = optimize('scf', return_wfn=True)
oeprop( wfn, 'DIPOLE', 'QUADRUPOLE', 'MULLIKEN_CHARGES')
f=open( 'psi4out.xyz', 'w' )
f.write( "27  " )
f.write( str(ee) + "\n" )
f.write( MOL.save_string_xyz() )
f.close()
--------------------------------------------------------------------------

    Molecular point group: c1
  Charge       = 0
  Multiplicity = 1
  Basis Set: CC-PVTZ
  Basis Set:
  @DF-RHF Final Energy:  -388.42644810142463
    Total Energy =                       -388.4264481014251942
    Molecular point group: c1
  Basis Set: CC-PVTZ
  Basis Set:
  Basis Set: CC-PVTZ
  Basis Set:
  @DF-RHF Final Energy:  -388.11807120678276
    Total Energy =                       -388.1180712067829290
  Basis Set: CC-PVTZ
  Basis Set:
  Basis Set: CC-PVTZ
  Basis Set:
  @DF-RHF Final Energy:  -388.27380014277583
    Total Energy =                       -388.2738001427762811
  Basis Set: CC-PVTZ
  Basis Set:
  Basis Set: CC-PVTZ
  Basis Set:
  @DF-RHF Final Energy:  -388.39834573371979
    Total Energy =                       -388.3983457337195659
  Basis Set: CC-PVTZ
  Basis Set:
  @DF-RHF Final Energy:  -388.42495281789360
    Total Energy =                       -388.4249528178938817
  @DF-RHF Final Energy:  -388.42730022872820
    Total Energy =                       -388.4273002287276313
  @DF-RHF Final Energy:  -388.42758353483981
    Total Energy =                       -388.4275835348395276
  Basis Set: CC-PVTZ
  Basis Set:
  @DF-RHF Final Energy:  -388.42759561436492
    Total Energy =                       -388.4275956143649182
  Basis Set: CC-PVTZ
  Basis Set:
  Basis Set: CC-PVTZ
  Basis Set:
  @DF-RHF Final Energy:  -388.42759695752574
    Total Energy =                       -388.4275969575257932
  Basis Set: CC-PVTZ
  Basis Set:
  Basis Set: CC-PVTZ
  Basis Set:
  @DF-RHF Final Energy:  -388.42759897177621
    Total Energy =                       -388.4275989717758648
  Basis Set: CC-PVTZ
  Basis Set:
  Charge       = 0
  Multiplicity = 1
  Basis Set: CC-PVTZ
  Basis Set:

    Orbital Energies (a.u.)
    -----------------------

    Doubly Occupied:

       1A    -20.545213     2A    -11.264901     3A    -11.216854
       4A    -11.214895     5A    -11.214195     6A    -11.213358
       7A    -11.213302     8A    -11.212225     9A    -11.207720
      10A     -1.363153    11A     -1.096527    12A     -1.062669
      13A     -1.012621    14A     -0.949377    15A     -0.889337
      16A     -0.820686    17A     -0.803628    18A     -0.776214
      19A     -0.696752    20A     -0.650747    21A     -0.639876
      22A     -0.614536    23A     -0.608003    24A     -0.585641
      25A     -0.575818    26A     -0.554747    27A     -0.547024
      28A     -0.521972    29A     -0.508627    30A     -0.501454
      31A     -0.484548    32A     -0.474453    33A     -0.466706
      34A     -0.460178    35A     -0.454583    36A     -0.442806
      37A     -0.425791

  @DF-RHF Final Energy:  -388.42759899409361

   => Energetics <=

    Nuclear Repulsion Energy =            460.0563001141413224
    One-Electron Energy =               -1438.3855265223796778
    Two-Electron Energy =                 589.9016274141440590
    DFT Exchange-Correlation Energy =       0.0000000000000000
    Empirical Dispersion Energy =           0.0000000000000000
    PCM Polarization Energy =               0.0000000000000000
    EFP Energy =                            0.0000000000000000
    Total Energy =                       -388.4275989940942964
    Molecular point group: c1
  Basis Set: CC-PVTZ
  Basis Set:

  -Total Gradient:
     Atom            X                  Y                   Z
    ------   -----------------  -----------------  -----------------
       1       -0.000014906815     0.000008671749    -0.000005306299
       2       -0.000008404375     0.000008039279     0.000013482358
       3        0.000027257088    -0.000019594726     0.000009448593
       4       -0.000005176024     0.000003610371    -0.000002895958
       5        0.000005892311     0.000001156503     0.000004649923
       6       -0.000006780396     0.000001243094     0.000000713669
       7        0.000003600647     0.000014114650    -0.000006393033
       8        0.000005939001    -0.000001312175    -0.000003033854
       9        0.000001824415    -0.000000311079    -0.000007645754
      10        0.000532168204     0.000524092956     0.001205779061
      11        0.000003787426     0.000003750105     0.000003057128
      12       -0.000003202988    -0.000007143787     0.000002037864
      13        0.000499106273     0.000496947931     0.001116526885
      14       -0.000600169483    -0.000575275307    -0.001330045262
      15        0.000000365835    -0.000004867502    -0.000011039953
      16       -0.000447960194    -0.000431344551    -0.000991663636
      17       -0.000002585921     0.000000216535    -0.000003020565
      18       -0.000000129088     0.000003706436     0.000004112714
      19       -0.000003624263    -0.000007915476    -0.000010744396
      20       -0.000004396363    -0.000002856664    -0.000002373399
      21        0.000008743624     0.000000423285     0.000000262941
      22        0.000010476490    -0.000008499068     0.000011579252
      23       -0.000010200480    -0.000006735629    -0.000004481582
      24        0.000000848079     0.000001189101     0.000012452865
      25       -0.000000994220    -0.000003061159    -0.000013269817
      26       -0.000001041202    -0.000006920578     0.000005179399
      27        0.000009562426     0.000008675710     0.000002630855

  **** Optimization is complete! (in 11 steps) ****
    Final optimized geometry and variables:
    Molecular point group: c1

    Geometry (in Angstrom), charge = 0, multiplicity = 1:

    H            0.575956481565    -2.135913203146    -2.733080343222
    O            1.289992034238    -2.715306442007    -2.542931264420
    C            2.254211581979    -2.058138041690    -1.763564311394
    C            1.809665433129    -1.812980433064    -0.329537597969
    H            3.125034684624    -2.699684402020    -1.768307677940
    H            2.543533398869    -1.118737430947    -2.230704982177
    C            0.630649496778    -0.851838576121    -0.194018847747
    H            1.558514862790    -2.767619503829     0.122488633148
    H            2.660026778188    -1.417032198227     0.220719001140
    C            0.249243623938    -0.590085028068     1.262836399824
    H           -0.234239897562    -1.259006415878    -0.712453491824
    H            0.878964301060     0.083367136120    -0.687341862047
    C           -1.012812242081     0.251327483145     1.462192834188
    H            0.096596147519    -1.550194028837     1.747531069248
    H            1.085234464894    -0.115978179433     1.771074629941
    C           -0.973066853473     1.645618386935     0.839658668417
    H           -1.866580869870    -0.290021783662     1.060658415317
    H           -1.193239050744     0.347941706399     2.529129531241
    C           -2.200858773487     2.485877497193     1.181340186478
    H           -0.891324743868     1.568211598306    -0.239993080096
    H           -0.079087442097     2.166529802382     1.176937385412
    C           -2.173174316089     3.873654596614     0.549697164397
    H           -3.095633073210     1.960990822013     0.857458592910
    H           -2.280018074801     2.583303091790     2.260547391602
    H           -2.132392326112     3.810732801758    -0.532765946554
    H           -3.056596924341     4.443501559378     0.813965764344
    H           -1.306097651556     4.436505488352     0.879363182473

  Mulliken Charges: (a.u.)
   Center  Symbol    Alpha    Beta     Spin     Total
       1     H     0.39231  0.39231  0.00000  0.21538
       2     O     4.20581  4.20581  0.00000 -0.41161
       3     C     2.97921  2.97921  0.00000  0.04157
       4     C     3.08839  3.08839  0.00000 -0.17678
       5     H     0.44868  0.44868  0.00000  0.10264
       6     H     0.47011  0.47011  0.00000  0.05977
       7     C     3.10624  3.10624  0.00000 -0.21248
       8     H     0.45012  0.45012  0.00000  0.09976
       9     H     0.45592  0.45592  0.00000  0.08816
      10     C     3.09795  3.09795  0.00000 -0.19589
      11     H     0.45707  0.45707  0.00000  0.08585
      12     H     0.45057  0.45057  0.00000  0.09886
      13     C     3.09782  3.09782  0.00000 -0.19564
      14     H     0.44720  0.44720  0.00000  0.10559
      15     H     0.45228  0.45228  0.00000  0.09545
      16     C     3.08936  3.08936  0.00000 -0.17872
      17     H     0.45317  0.45317  0.00000  0.09366
      18     H     0.44803  0.44803  0.00000  0.10394
      19     C     3.08434  3.08434  0.00000 -0.16868
      20     H     0.45387  0.45387  0.00000  0.09226
      21     H     0.45474  0.45474  0.00000  0.09051
      22     C     3.14972  3.14972  0.00000 -0.29944
      23     H     0.45451  0.45451  0.00000  0.09099
      24     H     0.45351  0.45351  0.00000  0.09299
      25     H     0.45578  0.45578  0.00000  0.08844
      26     H     0.44814  0.44814  0.00000  0.10373
      27     H     0.45516  0.45516  0.00000  0.08967

   Total alpha = 37.00000, Total beta = 37.00000, Total charge = -0.00000

*** Psi4 exiting successfully. Buy a developer a beer!
