  ==> Input File <==

--------------------------------------------------------------------------
set {
	reference rhf
	basis cc-pvtz
}

set_num_threads( 4 )
memory 2 gb

molecule MOL {
0 1

H	 -0.366580	 2.045936	 -0.305741
C	 0.351829	 1.335402	 0.083179
N	 -0.000018	 0.000080	 -0.334836
H	 1.327156	 1.599860	 -0.305475
H	 0.380566	 1.445403	 1.171445
C	 -0.467932	 -0.032584	 -1.699522
C	 1.074185	 -0.936808	 -0.109957
H	 -0.788177	 -1.034299	 -1.956624
H	 -1.316727	 0.629473	 -1.815349
H	 0.298797	 0.272042	 -2.418132
H	 1.352739	 -0.935978	 0.936269
H	 0.752392	 -1.937547	 -0.368984
H	 1.967919	 -0.706390	 -0.697543

	symmetry c1
}
set optking {
	frozen_dihedral = ("
		6 3 2 1
	")
}

ee = optimize('scf')
oeprop('DIPOLE', 'QUADRUPOLE', 'MULLIKEN_CHARGES')
f=open( 'psi4out.xyz', 'w' )
f.write( "13  " )
f.write( str(ee) + "\n" )
f.write( MOL.save_string_xyz() )
f.close()
--------------------------------------------------------------------------

    Molecular point group: c1
  Charge       = 0
  Multiplicity = 1
  Basis Set: CC-PVTZ
  Basis Set:
  @DF-RHF Final Energy:  -173.33226555024095
    Total Energy =                       -173.3322655502408338
    Molecular point group: c1
  Basis Set: CC-PVTZ
  Basis Set:
  Basis Set: CC-PVTZ
  Basis Set:
  @DF-RHF Final Energy:  -173.33290711089475
    Total Energy =                       -173.3329071108946948
  Basis Set: CC-PVTZ
  Basis Set:
  Basis Set: CC-PVTZ
  Basis Set:
  @DF-RHF Final Energy:  -173.33296575662953
    Total Energy =                       -173.3329657566296191
  Basis Set: CC-PVTZ
  Basis Set:
  Charge       = 0
  Multiplicity = 1
  Basis Set: CC-PVTZ
  Basis Set:

    Orbital Energies (a.u.)
    -----------------------

    Doubly Occupied:

       1A    -15.537770     2A    -11.234480     3A    -11.234281
       4A    -11.234247     5A     -1.225949     6A     -0.953174
       7A     -0.952381     8A     -0.806156     9A     -0.641767
      10A     -0.632290    11A     -0.631159    12A     -0.545489
      13A     -0.542948    14A     -0.517187    15A     -0.503901
      16A     -0.502855    17A     -0.345450

  @DF-RHF Final Energy:  -173.33296762907344

   => Energetics <=

    Nuclear Repulsion Energy =            139.3166742999022176
    One-Electron Energy =                -509.2163151801148615
    Two-Electron Energy =                 196.5666732511393207
    DFT Exchange-Correlation Energy =       0.0000000000000000
    Empirical Dispersion Energy =           0.0000000000000000
    PCM Polarization Energy =               0.0000000000000000
    EFP Energy =                            0.0000000000000000
    Total Energy =                       -173.3329676290733232
    Molecular point group: c1
  Basis Set: CC-PVTZ
  Basis Set:

  -Total Gradient:
     Atom            X                  Y                   Z
    ------   -----------------  -----------------  -----------------
       1        0.001853789053     0.000412774530    -0.002879825852
       2       -0.003265745948    -0.000312053791     0.003974861132
       3        0.003799483303    -0.000427319121    -0.001911047403
       4        0.000001359965    -0.000014476575    -0.000031109990
       5       -0.000014552409    -0.000067155187    -0.000052222817
       6       -0.002463713856     0.000467127264     0.000713599162
       7        0.000130661339    -0.000052208254     0.000018337139
       8        0.000026462224    -0.000000330644     0.000062756392
       9       -0.000015256200     0.000012730901     0.000011054537
      10       -0.000011623068    -0.000022732242     0.000061305806
      11        0.000010818719    -0.000004439465     0.000008544718
      12       -0.000006272683     0.000001183168     0.000006630707
      13       -0.000045410439     0.000006899416     0.000017116469

  **** Optimization is complete! (in 4 steps) ****
    Final optimized geometry and variables:
    Molecular point group: c1

    Geometry (in Angstrom), charge = 0, multiplicity = 1:

    H           -0.626760178259     1.951171574821     0.247865022457
    C            0.100876281602     1.240220132027     0.616183829892
    N           -0.244510454343    -0.091337422415     0.179549354165
    H            1.076904505307     1.564571224688     0.241454169814
    H            0.125136901812     1.290887411464     1.697708850578
    C           -0.730137721929    -0.132786929384    -1.177080765991
    C            0.810754097479    -1.039651226077     0.428812664774
    H           -1.039071438441    -1.140589427985    -1.425044112490
    H           -1.591062078531     0.514735195457    -1.281845430764
    H            0.018845176331     0.177819303109    -1.912701262706
    H            1.085987956805    -1.018093992923     1.476219139648
    H            0.474859410963    -2.041728546155     0.193262876750
    H            1.711471664854    -0.836766985649    -0.158936080029

  Mulliken Charges: (a.u.)
   Center  Symbol    Alpha    Beta     Spin     Total
       1     H     0.45435  0.45435  0.00000  0.09130
       2     C     3.08820  3.08820  0.00000 -0.17641
       3     N     3.59572  3.59572  0.00000 -0.19145
       4     H     0.47375  0.47375  0.00000  0.05250
       5     H     0.45117  0.45117  0.00000  0.09766
       6     C     3.08841  3.08841  0.00000 -0.17681
       7     C     3.08907  3.08907  0.00000 -0.17815
       8     H     0.45298  0.45298  0.00000  0.09404
       9     H     0.45243  0.45243  0.00000  0.09515
      10     H     0.47448  0.47448  0.00000  0.05104
      11     H     0.45308  0.45308  0.00000  0.09384
      12     H     0.45290  0.45290  0.00000  0.09420
      13     H     0.47346  0.47346  0.00000  0.05308

   Total alpha = 17.00000, Total beta = 17.00000, Total charge = -0.00000
