                              Psi4 1.0.54 Driver

  ==> Input File <==

--------------------------------------------------------------------------
set {
	reference rhf
	basis cc-pvtz
}

set_num_threads( 4 )
memory 2 gb

molecule MOL {
0 1

H	 -2.338114	 1.147605	 3.777606
O	 -1.638141	 0.589257	 3.493917
C	 -1.340866	 0.835032	 2.144977
C	 -0.209998	 -0.082209	 1.725539
H	 -2.215143	 0.653548	 1.523304
H	 -1.047814	 1.873168	 2.002771
C	 0.196029	 0.106276	 0.266738
H	 -0.518669	 -1.108708	 1.896544
H	 0.639577	 0.099959	 2.375889
C	 1.330220	 -0.826136	 -0.155230
H	 -0.670187	 -0.054840	 -0.367633
H	 0.505436	 1.136948	 0.106853
C	 2.719700	 -0.407669	 0.328325
H	 1.339388	 -0.911200	 -1.239363
H	 1.119001	 -1.821953	 0.224128
C	 3.241564	 0.893452	 -0.276737
H	 3.418299	 -1.204729	 0.093035
H	 2.711776	 -0.323368	 1.411960
H	 3.254204	 0.841071	 -1.360784
H	 2.634460	 1.745075	 0.005842
H	 4.254264	 1.092401	 0.054971

	symmetry c1
}
set optking {
	frozen_dihedral = ("
		4 7 10 14
	")
}

ee,wfn = optimize('scf', return_wfn=True)
oeprop( wfn, 'DIPOLE', 'QUADRUPOLE', 'MULLIKEN_CHARGES')
f=open( 'psi4out.xyz', 'w' )
f.write( "21  " )
f.write( str(ee) + "\n" )
f.write( MOL.save_string_xyz() )
f.close()
--------------------------------------------------------------------------

    Molecular point group: c1
  Charge       = 0
  Multiplicity = 1
  Basis Set: CC-PVTZ
  Basis Set:
  @DF-RHF Final Energy:  -310.33051617953629
    Total Energy =                       -310.3305161795363460
    Molecular point group: c1
  Basis Set: CC-PVTZ
  Basis Set:
  Basis Set: CC-PVTZ
  Basis Set:
  @DF-RHF Final Energy:  -310.33076109672800
    Total Energy =                       -310.3307610967278833
  Basis Set: CC-PVTZ
  Basis Set:
  Basis Set: CC-PVTZ
  Basis Set:
  @DF-RHF Final Energy:  -310.33090506464367
    Total Energy =                       -310.3309050646439005
  Basis Set: CC-PVTZ
  Basis Set:
  Basis Set: CC-PVTZ
  Basis Set:
  @DF-RHF Final Energy:  -310.33091298266658
    Total Energy =                       -310.3309129826665753
  Basis Set: CC-PVTZ
  Basis Set:
  Basis Set: CC-PVTZ
  Basis Set:
  @DF-RHF Final Energy:  -310.33091756235598
    Total Energy =                       -310.3309175623560350
  Basis Set: CC-PVTZ
  Basis Set:
  Charge       = 0
  Multiplicity = 1
  Basis Set: CC-PVTZ
  Basis Set:

    Orbital Energies (a.u.)
    -----------------------

    Doubly Occupied:

       1A    -20.545470     2A    -11.265041     3A    -11.213256
       4A    -11.212252     5A    -11.211417     6A    -11.208699
       7A    -11.205644     8A     -1.363309     9A     -1.086726
      10A     -1.032307    11A     -0.956302    12A     -0.875655
      13A     -0.817433    14A     -0.769570    15A     -0.694346
      16A     -0.660885    17A     -0.626571    18A     -0.614940
      19A     -0.575863    20A     -0.564866    21A     -0.553501
      22A     -0.526304    23A     -0.499797    24A     -0.492276
      25A     -0.481922    26A     -0.457394    27A     -0.449988
      28A     -0.447237    29A     -0.437239

  @DF-RHF Final Energy:  -310.33091789363493

   => Energetics <=

    Nuclear Repulsion Energy =            316.7876925697171373
    One-Electron Energy =               -1048.5447975346232852
    Two-Electron Energy =                 421.4261870712709310
    DFT Exchange-Correlation Energy =       0.0000000000000000
    Empirical Dispersion Energy =           0.0000000000000000
    PCM Polarization Energy =               0.0000000000000000
    EFP Energy =                            0.0000000000000000
    Total Energy =                       -310.3309178936352168
    Molecular point group: c1
  Basis Set: CC-PVTZ
  Basis Set:

  -Total Gradient:
     Atom            X                  Y                   Z
    ------   -----------------  -----------------  -----------------
       1       -0.000001089822    -0.000001924412     0.000004470981
       2       -0.000013296114     0.000005956768     0.000007912647
       3        0.000010178564    -0.000005338564     0.000001492111
       4       -0.000964274375    -0.001022582758    -0.000443560766
       5        0.000001759512     0.000000544060     0.000001611221
       6       -0.000000336572    -0.000003268183    -0.000000026004
       7        0.001082298217     0.001078557108     0.000617691187
       8        0.000002414744     0.000002418731    -0.000001466337
       9       -0.000008333066     0.000002147539    -0.000002029559
      10        0.001101731822     0.001538101117    -0.000238386948
      11       -0.000000870530     0.000003913801     0.000000122520
      12       -0.000000724183     0.000006740493     0.000004715167
      13        0.000010724677    -0.000004590188    -0.000026299477
      14       -0.001200718453    -0.001593017514     0.000075742155
      15        0.000004281062    -0.000009701301    -0.000000423025
      16       -0.000005823024     0.000012050703     0.000010374529
      17       -0.000005043372     0.000006138323     0.000007107220
      18       -0.000007506785    -0.000000951593    -0.000025765736
      19       -0.000006232054    -0.000005920702     0.000013815705
      20        0.000005537035    -0.000006877420    -0.000005080908
      21       -0.000004677286    -0.000002396009    -0.000002016681

  **** Optimization is complete! (in 6 steps) ****
    Final optimized geometry and variables:
    Molecular point group: c1

    Geometry (in Angstrom), charge = 0, multiplicity = 1:

    H           -2.998459821844     0.880410301486     2.620610792476
    O           -2.279530142770     0.340897939206     2.348235160068
    C           -1.951585861025     0.611941654427     1.011267258535
    C           -0.791558844481    -0.276548018461     0.609405262798
    H           -2.805222779224     0.422194020991     0.363915020699
    H           -1.676090848020     1.657682067363     0.891525389594
    C           -0.362672806563    -0.062688245536    -0.840641303090
    H           -1.083446930893    -1.311281419516     0.757226086099
    H            0.032076881466    -0.084906912689     1.288301495879
    C            0.796433024143    -0.962501843388    -1.283698761335
    H           -1.214732767014    -0.264399859456    -1.484099733489
    H           -0.110015877586     0.980821624820    -1.000710670560
    C            2.187507968819    -0.557576263524    -0.789180124528
    H            0.807438145650    -1.016086244501    -2.368767051940
    H            0.590001004130    -1.974247281092    -0.945223866908
    C            2.723165446277     0.737580446502    -1.394876113936
    H            2.877679118171    -1.361219120066    -1.026696144451
    H            2.186186570602    -0.476297279503     0.293196804006
    H            2.750278063305     0.678166645098    -2.478149241516
    H            2.117038510023     1.594670807964    -1.126886193102
    H            3.731966698644     0.934204193296    -1.050172133251

  Mulliken Charges: (a.u.)
   Center  Symbol    Alpha    Beta     Spin     Total
       1     H     0.39741  0.39741  0.00000  0.20517
       2     O     4.19496  4.19496  0.00000 -0.38992
       3     C     2.96372  2.96372  0.00000  0.07256
       4     C     3.08557  3.08557  0.00000 -0.17114
       5     H     0.47388  0.47388  0.00000  0.05224
       6     H     0.47445  0.47445  0.00000  0.05111
       7     C     3.11047  3.11047  0.00000 -0.22094
       8     H     0.45047  0.45047  0.00000  0.09906
       9     H     0.45045  0.45045  0.00000  0.09910
      10     C     3.10286  3.10286  0.00000 -0.20572
      11     H     0.44775  0.44775  0.00000  0.10449
      12     H     0.45324  0.45324  0.00000  0.09353
      13     C     3.09092  3.09092  0.00000 -0.18183
      14     H     0.44719  0.44719  0.00000  0.10562
      15     H     0.44926  0.44926  0.00000  0.10147
      16     C     3.15067  3.15067  0.00000 -0.30135
      17     H     0.44757  0.44757  0.00000  0.10487
      18     H     0.45228  0.45228  0.00000  0.09543
      19     H     0.45504  0.45504  0.00000  0.08991
      20     H     0.45502  0.45502  0.00000  0.08996
      21     H     0.44681  0.44681  0.00000  0.10638

   Total alpha = 29.00000, Total beta = 29.00000, Total charge =  0.00000

*** Psi4 exiting successfully. Buy a developer a beer!
