                              Psi4 1.0.54 Driver

  ==> Input File <==

--------------------------------------------------------------------------
set {
	reference rhf
	basis cc-pvtz
}

set_num_threads( 4 )
memory 2 gb

molecule MOL {
0 1

H	 4.350750	 -0.135346	 -1.839792
C	 3.556900	 -0.664599	 -1.326176
C	 2.267697	 0.149402	 -1.322720
H	 3.417518	 -1.616581	 -1.827517
H	 3.897032	 -0.870253	 -0.316705
C	 1.124569	 -0.557498	 -0.609616
H	 1.960912	 0.366292	 -2.339876
H	 2.449046	 1.108530	 -0.843384
N	 -0.089360	 0.229224	 -0.643975
H	 0.925810	 -1.504468	 -1.102477
H	 1.430168	 -0.800378	 0.412491
C	 -1.215959	 -0.382435	 0.027143
H	 0.083746	 1.133086	 -0.256178
C	 -2.451944	 0.502410	 -0.038737
H	 -1.426122	 -1.328554	 -0.462619
H	 -0.995048	 -0.618988	 1.072284
C	 -3.752217	 -0.292550	 0.005776
H	 -2.407325	 1.093801	 -0.946480
H	 -2.431979	 1.206234	 0.790023
H	 -3.817783	 -0.982946	 -0.828547
H	 -4.612613	 0.364348	 -0.042306
H	 -3.830160	 -0.871666	 0.919868

	symmetry c1
}
set optking {
	frozen_dihedral = ("
		15 12 14 18
	")
}

ee,wfn = optimize('scf', return_wfn=True)
oeprop( wfn, 'DIPOLE', 'QUADRUPOLE', 'MULLIKEN_CHARGES')
f=open( 'psi4out.xyz', 'w' )
f.write( "22  " )
f.write( str(ee) + "\n" )
f.write( MOL.save_string_xyz() )
f.close()
--------------------------------------------------------------------------

    Molecular point group: c1
  Charge       = 0
  Multiplicity = 1
  Basis Set: CC-PVTZ
  Basis Set:
  @DF-RHF Final Energy:  -290.48751199026384
    Total Energy =                       -290.4875119902636698
    Molecular point group: c1
  Basis Set: CC-PVTZ
  Basis Set:
  Basis Set: CC-PVTZ
  Basis Set:
  @DF-RHF Final Energy:  -290.48772327897160
    Total Energy =                       -290.4877232789715436
  Basis Set: CC-PVTZ
  Basis Set:
  Basis Set: CC-PVTZ
  Basis Set:
  @DF-RHF Final Energy:  -290.48781113847440
    Total Energy =                       -290.4878111384741715
  Basis Set: CC-PVTZ
  Basis Set:
  Basis Set: CC-PVTZ
  Basis Set:
  @DF-RHF Final Energy:  -290.48781339557399
    Total Energy =                       -290.4878133955743351
  Basis Set: CC-PVTZ
  Basis Set:
  Charge       = 0
  Multiplicity = 1
  Basis Set: CC-PVTZ
  Basis Set:

    Orbital Energies (a.u.)
    -----------------------

    Doubly Occupied:

       1A    -15.528964     2A    -11.236299     3A    -11.236075
       4A    -11.211884     5A    -11.211605     6A    -11.207809
       7A    -11.207610     8A     -1.207753     9A     -1.059868
      10A     -1.026953    11A     -0.928753    12A     -0.869172
      13A     -0.812770    14A     -0.794479    15A     -0.666877
      16A     -0.628184    17A     -0.617259    18A     -0.613970
      19A     -0.573759    20A     -0.563395    21A     -0.532588
      22A     -0.528370    23A     -0.516117    24A     -0.486869
      25A     -0.480602    26A     -0.474335    27A     -0.464372
      28A     -0.451805    29A     -0.361264

  @DF-RHF Final Energy:  -290.48781372775164

   => Energetics <=

    Nuclear Repulsion Energy =            313.6224829404735033
    One-Electron Energy =               -1013.2210771028543377
    Two-Electron Energy =                 409.1107804346292482
    DFT Exchange-Correlation Energy =       0.0000000000000000
    Empirical Dispersion Energy =           0.0000000000000000
    PCM Polarization Energy =               0.0000000000000000
    EFP Energy =                            0.0000000000000000
    Total Energy =                       -290.4878137277515293
    Molecular point group: c1
  Basis Set: CC-PVTZ
  Basis Set:

  -Total Gradient:
     Atom            X                  Y                   Z
    ------   -----------------  -----------------  -----------------
       1       -0.000002429333     0.000001647177     0.000000925901
       2       -0.000002188336    -0.000003117773     0.000001886803
       3        0.000002084220     0.000002894302    -0.000001772946
       4        0.000000460349    -0.000000109326    -0.000000771447
       5        0.000001577127    -0.000001273251     0.000001474569
       6        0.000036665766    -0.000027743949     0.000002519075
       7       -0.000002278281    -0.000001820589    -0.000001167921
       8        0.000000375854     0.000002169937     0.000000969013
       9       -0.000034440952    -0.000003529628    -0.000002708347
      10       -0.000002180588     0.000002794713    -0.000003765241
      11       -0.000005883704     0.000006433143    -0.000004317840
      12        0.002112335116     0.002864176122    -0.004259802906
      13        0.000000719269     0.000012185240     0.000008958593
      14       -0.003073667394    -0.004273661108    -0.001724681714
      15       -0.001304387680    -0.001715880090     0.003825904859
      16        0.000015578977    -0.000002869615     0.000017585857
      17       -0.000003719403     0.000026348362    -0.000012548928
      18        0.002235825507     0.003106966033     0.002135409288
      19        0.000010371828     0.000005825918     0.000007563302
      20        0.000006148084     0.000001603249     0.000002638961
      21       -0.000005786954    -0.000001326004     0.000002589433
      22        0.000014820523    -0.000001712865     0.000003111637

  **** Optimization is complete! (in 5 steps) ****
    Final optimized geometry and variables:
    Molecular point group: c1

    Geometry (in Angstrom), charge = 0, multiplicity = 1:

    H            4.451738726117     0.030897736159    -1.237797171778
    C            3.654246902646    -0.498456884062    -0.729936090065
    C            2.356590431887     0.301214246686    -0.763965199008
    H            3.534363624628    -1.460185022887    -1.217533402459
    H            3.977731882397    -0.683341581061     0.288985414218
    C            1.207872959760    -0.406940800031    -0.061241184314
    H            2.066965858184     0.498460819835    -1.790070068560
    H            2.518323676651     1.269747474269    -0.296657112354
    N           -0.013582020414     0.365723233055    -0.130829583308
    H            1.027691043189    -1.363386453881    -0.542932876053
    H            1.496200430576    -0.630888016844     0.970028176401
    C           -1.146843257083    -0.253908610726     0.519497865824
    H            0.140108188479     1.274178227104     0.255302207283
    C           -2.379834223857     0.647515470114     0.503468967782
    H           -1.372164278915    -1.193038190870     0.023169844966
    H           -0.923745697607    -0.526954027079     1.555740858336
    C           -3.690479199017    -0.120799299023     0.612263728682
    H           -2.356107235596     1.253035243785    -0.395892639755
    H           -2.311185445431     1.352120864273     1.329117129598
    H           -3.831397321093    -0.774207636847    -0.241672432303
    H           -4.537298424410     0.553758986396     0.658254442039
    H           -3.711010297920    -0.736049325845     1.506154532203

  Mulliken Charges: (a.u.)
   Center  Symbol    Alpha    Beta     Spin     Total
       1     H     0.44769  0.44769  0.00000  0.10462
       2     C     3.15362  3.15362  0.00000 -0.30723
       3     C     3.08006  3.08006  0.00000 -0.16012
       4     H     0.45473  0.45473  0.00000  0.09054
       5     H     0.45615  0.45615  0.00000  0.08771
       6     C     3.02236  3.02236  0.00000 -0.04471
       7     H     0.44914  0.44914  0.00000  0.10173
       8     H     0.45973  0.45973  0.00000  0.08054
       9     N     3.63648  3.63648  0.00000 -0.27296
      10     H     0.45905  0.45905  0.00000  0.08190
      11     H     0.47410  0.47410  0.00000  0.05179
      12     C     3.02247  3.02247  0.00000 -0.04493
      13     H     0.44546  0.44546  0.00000  0.10908
      14     C     3.08649  3.08649  0.00000 -0.17298
      15     H     0.46134  0.46134  0.00000  0.07732
      16     H     0.47516  0.47516  0.00000  0.04968
      17     C     3.15123  3.15123  0.00000 -0.30247
      18     H     0.45036  0.45036  0.00000  0.09929
      19     H     0.45660  0.45660  0.00000  0.08680
      20     H     0.45357  0.45357  0.00000  0.09286
      21     H     0.44853  0.44853  0.00000  0.10295
      22     H     0.45570  0.45570  0.00000  0.08860

   Total alpha = 29.00000, Total beta = 29.00000, Total charge = -0.00000

*** Psi4 exiting successfully. Buy a developer a beer!
