                              Psi4 1.0.54 Driver

  ==> Input File <==

--------------------------------------------------------------------------
set {
	reference rhf
	basis cc-pvtz
}

set_num_threads( 4 )
memory 2 gb

molecule MOL {
0 1

O	 2.595335	 1.775341	 0.472827
C	 1.997853	 1.469326	 1.452358
C	 0.728090	 0.644069	 1.402518
C	 2.470359	 1.887518	 2.826431
C	 0.288398	 0.247429	 0.000314
H	 0.885782	 -0.236886	 2.020676
H	 -0.051614	 1.212327	 1.904663
C	 -0.993089	 -0.581367	 -0.000217
H	 1.086607	 -0.307973	 -0.478753
H	 0.148515	 1.142576	 -0.594899
C	 -2.258482	 0.271340	 0.000669
H	 -1.002280	 -1.233920	 -0.870484
H	 -1.002061	 -1.235367	 0.868958
C	 -3.544441	 -0.550271	 -0.000253
H	 -2.250545	 0.925250	 -0.867923
H	 -2.250598	 0.923423	 0.870642
C	 -4.804551	 0.308747	 0.000556
H	 -3.553737	 -1.201524	 -0.870151
H	 -3.553831	 -1.203282	 0.868313
H	 -4.842050	 0.949078	 -0.874436
H	 -5.698404	 -0.304480	 -0.000254
H	 -4.842277	 0.947103	 0.876982
H	 2.650972	 1.013203	 3.442061
H	 3.377429	 2.465783	 2.741430
H	 1.706421	 2.477337	 3.320955

	symmetry c1
}
set optking {
	frozen_dihedral = ("
		9 5 8 12
	")
}

ee,wfn = optimize('scf', return_wfn=True)
oeprop( wfn, 'DIPOLE', 'QUADRUPOLE', 'MULLIKEN_CHARGES')
f=open( 'psi4out.xyz', 'w' )
f.write( "25  " )
f.write( str(ee) + "\n" )
f.write( MOL.save_string_xyz() )
f.close()
--------------------------------------------------------------------------

    Molecular point group: c1
  Charge       = 0
  Multiplicity = 1
  Basis Set: CC-PVTZ
  Basis Set:
  @DF-RHF Final Energy:  -387.27159378105773
    Total Energy =                       -387.2715937810570495
    Molecular point group: c1
  Basis Set: CC-PVTZ
  Basis Set:
  Basis Set: CC-PVTZ
  Basis Set:
  @DF-RHF Final Energy:  -387.27181941764695
    Total Energy =                       -387.2718194176467250
  Basis Set: CC-PVTZ
  Basis Set:
  Basis Set: CC-PVTZ
  Basis Set:
  @DF-RHF Final Energy:  -387.27167599335536
    Total Energy =                       -387.2716759933555295
  Basis Set: CC-PVTZ
  Basis Set:
  Basis Set: CC-PVTZ
  Basis Set:
  @DF-RHF Final Energy:  -387.27186373117894
    Total Energy =                       -387.2718637311785415
  Basis Set: CC-PVTZ
  Basis Set:
  Basis Set: CC-PVTZ
  Basis Set:
  @DF-RHF Final Energy:  -387.27186647034705
    Total Energy =                       -387.2718664703475042
  Basis Set: CC-PVTZ
  Basis Set:
  Charge       = 0
  Multiplicity = 1
  Basis Set: CC-PVTZ
  Basis Set:

    Orbital Energies (a.u.)
    -----------------------

    Doubly Occupied:

       1A    -20.538894     2A    -11.320504     3A    -11.230211
       4A    -11.226614     5A    -11.215212     6A    -11.215018
       7A    -11.214595     8A    -11.213775     9A    -11.208187
      10A     -1.398922    11A     -1.095484    12A     -1.057382
      13A     -1.015443    14A     -0.969502    15A     -0.896171
      16A     -0.816361    17A     -0.790161    18A     -0.733335
      19A     -0.661035    20A     -0.645788    21A     -0.642714
      22A     -0.623632    23A     -0.599218    24A     -0.576267
      25A     -0.571666    26A     -0.567600    27A     -0.542799
      28A     -0.526619    29A     -0.518328    30A     -0.495293
      31A     -0.487363    32A     -0.478868    33A     -0.464259
      34A     -0.460514    35A     -0.447625    36A     -0.402410

  @DF-RHF Final Energy:  -387.27186685121404

   => Energetics <=

    Nuclear Repulsion Energy =            444.1643534312834731
    One-Electron Energy =               -1405.1369059905450740
    Two-Electron Energy =                 573.7006857080473310
    DFT Exchange-Correlation Energy =       0.0000000000000000
    Empirical Dispersion Energy =           0.0000000000000000
    PCM Polarization Energy =               0.0000000000000000
    EFP Energy =                            0.0000000000000000
    Total Energy =                       -387.2718668512143267
    Molecular point group: c1
  Basis Set: CC-PVTZ
  Basis Set:

  -Total Gradient:
     Atom            X                  Y                   Z
    ------   -----------------  -----------------  -----------------
       1        0.000007564284     0.000009616202    -0.000023362458
       2       -0.000002757989    -0.000014488379     0.000003377023
       3       -0.000014563410     0.000012352181    -0.000004412847
       4        0.000005242216    -0.000017299349     0.000008865482
       5        0.000994161075    -0.001930286009     0.003408722279
       6        0.000000608332    -0.000003599396    -0.000007033778
       7        0.000002558453    -0.000012638238    -0.000004469647
       8       -0.001579964210     0.002828773717    -0.002415745848
       9       -0.000601007798     0.001168510613    -0.002452259916
      10       -0.000002978073     0.000006414994    -0.000016449085
      11        0.000025557540    -0.000008574680     0.000033124888
      12        0.001155750374    -0.002042946001     0.001464423661
      13        0.000010459559    -0.000008701012     0.000012395173
      14        0.000018515300    -0.000006993841     0.000009315507
      15        0.000014557593     0.000008885240     0.000001974128
      16        0.000000530097    -0.000000113042     0.000001945919
      17       -0.000008359783    -0.000002440534    -0.000025751823
      18       -0.000008061632    -0.000009893933     0.000000855684
      19        0.000003295896     0.000005397183     0.000002950040
      20       -0.000002916959     0.000007467756    -0.000002174578
      21       -0.000012333017    -0.000000339447    -0.000004784962
      22        0.000004651345    -0.000004137917     0.000006297067
      23       -0.000006586102     0.000006226736     0.000004322661
      24       -0.000001766148     0.000001275485    -0.000005368770
      25       -0.000002156941     0.000007531671     0.000003244199

  **** Optimization is complete! (in 6 steps) ****
    Final optimized geometry and variables:
    Molecular point group: c1

    Geometry (in Angstrom), charge = 0, multiplicity = 1:

    O            3.018887007977     1.104187891644    -0.161222801336
    C            2.408378324187     0.794456202338     0.808995215643
    C            1.126662610245    -0.010948208447     0.738419121845
    C            2.875552080983     1.187142593408     2.192554858733
    C            0.703795858608    -0.396847533020    -0.672469485166
    H            1.263994388805    -0.897928242757     1.352513056843
    H            0.352464877832     0.567434214264     1.235982175476
    C           -0.617162878599    -1.173854025336    -0.725011630212
    H            1.491758888953    -0.974858300691    -1.138838994447
    H            0.620990657151     0.501481302983    -1.274074441152
    C           -1.864569542794    -0.293847932149    -0.723132189016
    H           -0.621358057999    -1.805445852952    -1.607801425525
    H           -0.664643369714    -1.862017891418     0.116750415911
    C           -3.166306450039    -1.090134422204    -0.738495367806
    H           -1.835965485538     0.362856000156    -1.588951369540
    H           -1.857558883215     0.355516174054     0.149076658869
    C           -4.409744572151    -0.207343585971    -0.757619190062
    H           -3.175571436263    -1.743580322521    -1.606567942392
    H           -3.199883351719    -1.740465899851     0.131438802625
    H           -4.423076047294     0.430883672308    -1.634822780568
    H           -5.314928868763    -0.803553928562    -0.769207118101
    H           -4.448048817145     0.434298354173     0.116584876103
    H            3.038943043863     0.302012682470     2.797394640311
    H            3.791384750368     1.753575940612     2.122748317576
    H            2.116065030029     1.781049749449     2.689084531526

  Mulliken Charges: (a.u.)
   Center  Symbol    Alpha    Beta     Spin     Total
       1     O     4.17091  4.17091  0.00000 -0.34181
       2     C     2.86156  2.86156  0.00000  0.27687
       3     C     3.10956  3.10956  0.00000 -0.21912
       4     C     3.15075  3.15075  0.00000 -0.30151
       5     C     3.09402  3.09402  0.00000 -0.18803
       6     H     0.44502  0.44502  0.00000  0.10997
       7     H     0.44597  0.44597  0.00000  0.10806
       8     C     3.10127  3.10127  0.00000 -0.20253
       9     H     0.44006  0.44006  0.00000  0.11988
      10     H     0.44668  0.44668  0.00000  0.10663
      11     C     3.08497  3.08497  0.00000 -0.16994
      12     H     0.44462  0.44462  0.00000  0.11076
      13     H     0.45754  0.45754  0.00000  0.08492
      14     C     3.08487  3.08487  0.00000 -0.16973
      15     H     0.45244  0.45244  0.00000  0.09512
      16     H     0.45712  0.45712  0.00000  0.08575
      17     C     3.14963  3.14963  0.00000 -0.29927
      18     H     0.45360  0.45360  0.00000  0.09280
      19     H     0.45468  0.45468  0.00000  0.09063
      20     H     0.45445  0.45445  0.00000  0.09110
      21     H     0.44817  0.44817  0.00000  0.10367
      22     H     0.45589  0.45589  0.00000  0.08821
      23     H     0.45030  0.45030  0.00000  0.09939
      24     H     0.43535  0.43535  0.00000  0.12930
      25     H     0.45056  0.45056  0.00000  0.09889

   Total alpha = 36.00000, Total beta = 36.00000, Total charge = -0.00000

*** Psi4 exiting successfully. Buy a developer a beer!
