  ==> Input File <==

--------------------------------------------------------------------------
set {
	reference rhf
	basis 6-31G*
}

set_num_threads( 4 )
memory 2 gb

molecule MOL {
0 1

H	 -1.898702	 -1.161766	 1.430713
N	 -1.107234	 -0.549249	 1.387339
C	 -0.563778	 -0.502042	 0.037919
H	 -0.426083	 -0.910341	 2.027967
C	 0.575259	 0.508231	 -0.048326
H	 -1.363659	 -0.196715	 -0.630035
H	 -0.212337	 -1.473721	 -0.318556
C	 1.954651	 -0.143624	 0.035137
H	 0.475158	 1.060484	 -0.977307
H	 0.469181	 1.234488	 0.755973
H	 2.103292	 -0.853109	 -0.774172
H	 2.742821	 0.599562	 -0.030094
H	 2.083613	 -0.679371	 0.971560

	symmetry c1
}
set optking {
	frozen_dihedral = ("
		6 3 5 9
	")
}

ee = optimize('scf')
oeprop('DIPOLE', 'QUADRUPOLE', 'MULLIKEN_CHARGES')
f=open( 'psi4out.xyz', 'w' )
f.write( "13  " )
f.write( str(ee) + "\n" )
f.write( MOL.save_string_xyz() )
f.close()
--------------------------------------------------------------------------

    Molecular point group: c1
  Charge       = 0
  Multiplicity = 1
  Basis Set: 6-31G*
  Basis Set:
  @DF-RHF Final Energy:  -173.27734565034433
    Total Energy =                       -173.2773456503443583
    Molecular point group: c1
  Basis Set: 6-31G*
  Basis Set:
  Basis Set: 6-31G*
  Basis Set:
  @DF-RHF Final Energy:  -173.27779047830788
    Total Energy =                       -173.2777904783079634
  Basis Set: 6-31G*
  Basis Set:
  Basis Set: 6-31G*
  Basis Set:
  @DF-RHF Final Energy:  -173.27790492646591
    Total Energy =                       -173.2779049264659648
  Basis Set: 6-31G*
  Basis Set:
  Basis Set: 6-31G*
  Basis Set:
  @DF-RHF Final Energy:  -173.27790693450939
    Total Energy =                       -173.2779069345094172
  Basis Set: 6-31G*
  Basis Set:
  Charge       = 0
  Multiplicity = 1
  Basis Set: 6-31G*
  Basis Set:

    Orbital Energies (a.u.)
    -----------------------

    Doubly Occupied:

       1A    -15.533274     2A    -11.240159     3A    -11.211868
       4A    -11.210795     5A     -1.176544     6A     -1.032540
       7A     -0.903443     8A     -0.795947     9A     -0.666241
      10A     -0.631567    11A     -0.584873    12A     -0.563575
      13A     -0.553347    14A     -0.485373    15A     -0.477476
      16A     -0.466246    17A     -0.380497

  @DF-RHF Final Energy:  -173.27790716796710

   => Energetics <=

    Nuclear Repulsion Energy =            132.6430137042008255
    One-Electron Energy =                -496.0143107003387968
    Two-Electron Energy =                 190.0933898281708991
    DFT Exchange-Correlation Energy =       0.0000000000000000
    Empirical Dispersion Energy =           0.0000000000000000
    PCM Polarization Energy =               0.0000000000000000
    EFP Energy =                            0.0000000000000000
    Total Energy =                       -173.2779071679670722
    Molecular point group: c1
  Basis Set: 6-31G*
  Basis Set:

  -Total Gradient:
     Atom            X                  Y                   Z
    ------   -----------------  -----------------  -----------------
       1       -0.000033376846    -0.000013519222     0.000035164251
       2       -0.000000025372     0.000004925335    -0.000046669112
       3       -0.002526296759     0.003576834027     0.004298300180
       4        0.000008574536    -0.000008138785    -0.000002257521
       5        0.003244046979    -0.004211708549    -0.003147718296
       6        0.001640992387    -0.002269054680    -0.003094779318
       7        0.000002973849    -0.000030788747     0.000006952751
       8       -0.000037711677     0.000018330802     0.000014639030
       9       -0.002303066523     0.002888984694     0.001919758481
      10        0.000016270667     0.000024680572     0.000023394003
      11       -0.000010714044     0.000017895198    -0.000004056737
      12        0.000001990777     0.000000757578     0.000009119603
      13       -0.000003657975     0.000000801776    -0.000011847313

  **** Optimization is complete! (in 5 steps) ****
    Final optimized geometry and variables:
    Molecular point group: c1

    Geometry (in Angstrom), charge = 0, multiplicity = 1:

    H           -2.073154875847    -1.001765434272     1.075846903595
    N           -1.307832237247    -0.357034458233     1.022567629295
    C           -0.789899839099    -0.289820288029    -0.337327338870
    H           -0.603324006389    -0.697670295278     1.649450782834
    C            0.377769206112     0.702326016055    -0.445638680781
    H           -1.595814444891     0.015390028414    -0.995792583308
    H           -0.462574950006    -1.263607856566    -0.711914756935
    C            1.757007483543     0.053570606594    -0.332801207694
    H            0.300063112914     1.260296856702    -1.374544850907
    H            0.254550721938     1.439305908407     0.342620055023
    H            1.931169988269    -0.645475913609    -1.145684411842
    H            2.544949164877     0.799579706334    -0.362656844199
    H            1.862396225431    -0.494782249415     0.600012118130

  Mulliken Charges: (a.u.)
   Center  Symbol    Alpha    Beta     Spin     Total
       1     H     0.33303  0.33303  0.00000  0.33394
       2     N     3.92001  3.92001  0.00000 -0.84002
       3     C     3.06329  3.06329  0.00000 -0.12658
       4     H     0.33504  0.33504  0.00000  0.32992
       5     C     3.16151  3.16151  0.00000 -0.32302
       6     H     0.41822  0.41822  0.00000  0.16355
       7     H     0.43437  0.43437  0.00000  0.13126
       8     C     3.24058  3.24058  0.00000 -0.48116
       9     H     0.41968  0.41968  0.00000  0.16064
      10     H     0.40950  0.40950  0.00000  0.18101
      11     H     0.42132  0.42132  0.00000  0.15736
      12     H     0.41810  0.41810  0.00000  0.16381
      13     H     0.42536  0.42536  0.00000  0.14929

   Total alpha = 17.00000, Total beta = 17.00000, Total charge = -0.00000
