  ==> Input File <==

--------------------------------------------------------------------------
set {
	reference rhf
	basis cc-pvtz
}

set_num_threads( 4 )
memory 2 gb

molecule MOL {
0 1

H	 -1.544511	 0.861424	 -2.852122
O	 -1.832103	 0.493980	 -2.036539
C	 -0.947566	 0.843930	 -1.009277
C	 0.351817	 0.069418	 -1.106882
H	 -0.737170	 1.908760	 -1.009338
H	 -1.438294	 0.607095	 -0.076122
O	 1.172093	 0.457955	 -0.054438
H	 0.835263	 0.272705	 -2.063883
H	 0.142890	 -0.997511	 -1.067045
C	 2.395478	 -0.199028	 -0.000366
H	 2.505946	 -0.901710	 -0.823354
H	 3.174616	 0.545641	 -0.071768
H	 2.513730	 -0.742241	 0.934223

	symmetry c1
}
set optking {
	frozen_dihedral = ("
		4 7 10 13
	")
}

ee = optimize('scf')
oeprop('DIPOLE', 'QUADRUPOLE', 'MULLIKEN_CHARGES')
f=open( 'psi4out.xyz', 'w' )
f.write( "13  " )
f.write( str(ee) + "\n" )
f.write( MOL.save_string_xyz() )
f.close()
--------------------------------------------------------------------------

    Molecular point group: c1
  Charge       = 0
  Multiplicity = 1
  Basis Set: CC-PVTZ
  Basis Set:
  @DF-RHF Final Energy:  -268.05823759039288
    Total Energy =                       -268.0582375903928778
    Molecular point group: c1
  Basis Set: CC-PVTZ
  Basis Set:
  Basis Set: CC-PVTZ
  Basis Set:
  @DF-RHF Final Energy:  -268.05861779692077
    Total Energy =                       -268.0586177969206574
  Basis Set: CC-PVTZ
  Basis Set:
  Basis Set: CC-PVTZ
  Basis Set:
  @DF-RHF Final Energy:  -268.05869787932301
    Total Energy =                       -268.0586978793230060
  Basis Set: CC-PVTZ
  Basis Set:
  Charge       = 0
  Multiplicity = 1
  Basis Set: CC-PVTZ
  Basis Set:

    Orbital Energies (a.u.)
    -----------------------

    Doubly Occupied:

       1A    -20.552498     2A    -20.552409     3A    -11.269733
       4A    -11.267343     5A    -11.266883     6A     -1.387498
       7A     -1.368304     8A     -1.019370     9A     -0.914257
      10A     -0.842413    11A     -0.711060    12A     -0.673363
      13A     -0.660745    14A     -0.638139    15A     -0.598076
      16A     -0.570147    17A     -0.550473    18A     -0.491253
      19A     -0.483093    20A     -0.441070    21A     -0.418979

  @DF-RHF Final Energy:  -268.05869845032703

   => Energetics <=

    Nuclear Repulsion Energy =            190.1573578371775568
    One-Electron Energy =                -743.0779058831059274
    Two-Electron Energy =                 284.8618495956014272
    DFT Exchange-Correlation Energy =       0.0000000000000000
    Empirical Dispersion Energy =           0.0000000000000000
    PCM Polarization Energy =               0.0000000000000000
    EFP Energy =                            0.0000000000000000
    Total Energy =                       -268.0586984503269719
    Molecular point group: c1
  Basis Set: CC-PVTZ
  Basis Set:

  -Total Gradient:
     Atom            X                  Y                   Z
    ------   -----------------  -----------------  -----------------
       1       -0.000017475226    -0.000004629145    -0.000012628732
       2       -0.000066003884     0.000025200829    -0.000060748746
       3        0.000016927445    -0.000035362930    -0.000035218558
       4       -0.000071606815    -0.000012832898     0.000049358335
       5       -0.000009377594     0.000005347225     0.000010461584
       6        0.000032645270     0.000000713039    -0.000002318242
       7        0.000140487187    -0.000043053869     0.000028569949
       8        0.000008540135     0.000017129510     0.000040686762
       9       -0.000004878175     0.000011749556    -0.000015302436
      10       -0.000049656331     0.000023749000    -0.000021442236
      11        0.000002021375    -0.000006097247     0.000001852277
      12        0.000008359431     0.000001780230     0.000001388120
      13        0.000010017179     0.000016306700     0.000015341923

  **** Optimization is complete! (in 4 steps) ****
    Final optimized geometry and variables:
    Molecular point group: c1

    Geometry (in Angstrom), charge = 0, multiplicity = 1:

    H           -1.779922664335     0.542372796707    -1.975227603125
    O           -2.061368343164     0.169955309541    -1.159756986521
    C           -1.166211517156     0.509848543355    -0.137979943925
    C            0.129156091861    -0.268800133533    -0.252436500756
    H           -0.951877615374     1.573875592920    -0.132734516960
    H           -1.649084816370     0.268653210458     0.798138966745
    O            0.957334073856     0.113682507615     0.797439780519
    H            0.602259922567    -0.059580678257    -1.212734687811
    H           -0.085680570201    -1.334151885914    -0.217834212343
    C            2.195005073083    -0.526846389103     0.875850298674
    H            2.329663538372    -1.246423535258     0.075389613299
    H            2.991037843699     0.205989229376     0.813621284290
    H            2.277921312933    -1.049325141747     1.821640405498

  Mulliken Charges: (a.u.)
   Center  Symbol    Alpha    Beta     Spin     Total
       1     H     0.39418  0.39418  0.00000  0.21165
       2     O     4.20213  4.20213  0.00000 -0.40427
       3     C     2.97535  2.97535  0.00000  0.04930
       4     C     2.96484  2.96484  0.00000  0.07031
       5     H     0.46705  0.46705  0.00000  0.06590
       6     H     0.45290  0.45290  0.00000  0.09421
       7     O     4.18057  4.18057  0.00000 -0.36113
       8     H     0.48167  0.48167  0.00000  0.03666
       9     H     0.46948  0.46948  0.00000  0.06104
      10     C     3.02704  3.02704  0.00000 -0.05408
      11     H     0.47134  0.47134  0.00000  0.05732
      12     H     0.45715  0.45715  0.00000  0.08571
      13     H     0.45631  0.45631  0.00000  0.08739

   Total alpha = 21.00000, Total beta = 21.00000, Total charge = -0.00000
