  ==> Input File <==

--------------------------------------------------------------------------
set {
	reference rhf
	basis cc-pvtz
}

set_num_threads( 4 )
memory 2 gb

molecule MOL {
0 1

H	 1.651322	 -0.822465	 0.000000
O	 0.729993	 -1.034364	 0.000000
C	 0.037305	 0.100061	 0.000000
C	 -1.164416	 0.024911	 -0.893474
O	 0.360035	 1.038691	 0.641572
H	 -0.849212	 -0.195698	 -1.905129
H	 -1.695407	 0.961877	 -0.864021
H	 -1.808162	 -0.781241	 -0.566091

	symmetry c1
}
set optking {
	frozen_dihedral = ("
		4 3 2 1
	")
}

ee = optimize('scf')
oeprop('DIPOLE', 'QUADRUPOLE', 'MULLIKEN_CHARGES')
f=open( 'psi4out.xyz', 'w' )
f.write( "8  " )
f.write( str(ee) + "\n" )
f.write( MOL.save_string_xyz() )
f.close()
--------------------------------------------------------------------------

    Molecular point group: c1
  Charge       = 0
  Multiplicity = 1
  Basis Set: CC-PVTZ
  Basis Set:
  @DF-RHF Final Energy:  -227.89625387296022
    Total Energy =                       -227.8962538729601306
    Molecular point group: c1
  Basis Set: CC-PVTZ
  Basis Set:
  Basis Set: CC-PVTZ
  Basis Set:
  @DF-RHF Final Energy:  -227.89361495379779
    Total Energy =                       -227.8936149537977656
  Basis Set: CC-PVTZ
  Basis Set:
  Basis Set: CC-PVTZ
  Basis Set:
  @DF-RHF Final Energy:  -227.89683451443173
    Total Energy =                       -227.8968345144317595
  Basis Set: CC-PVTZ
  Basis Set:
  Basis Set: CC-PVTZ
  Basis Set:
  @DF-RHF Final Energy:  -227.89696009173485
    Total Energy =                       -227.8969600917348828
  Basis Set: CC-PVTZ
  Basis Set:
  @DF-RHF Final Energy:  -227.89704220771875
    Total Energy =                       -227.8970422077187834
  @DF-RHF Final Energy:  -227.89706396023951
    Total Energy =                       -227.8970639602394499
  Basis Set: CC-PVTZ
  Basis Set:
  @DF-RHF Final Energy:  -227.89106401092138
    Total Energy =                       -227.8910640109213546
  Basis Set: CC-PVTZ
  Basis Set:
  Basis Set: CC-PVTZ
  Basis Set:
  @DF-RHF Final Energy:  -227.89689534145651
    Total Energy =                       -227.8968953414563998
  Basis Set: CC-PVTZ
  Basis Set:
  Basis Set: CC-PVTZ
  Basis Set:
  @DF-RHF Final Energy:  -227.89706623029167
    Total Energy =                       -227.8970662302916708
  Basis Set: CC-PVTZ
  Basis Set:
  Charge       = 0
  Multiplicity = 1
  Basis Set: CC-PVTZ
  Basis Set:

    Orbital Energies (a.u.)
    -----------------------

    Doubly Occupied:

       1A    -20.600150     2A    -20.545643     3A    -11.379030
       4A    -11.239853     5A     -1.474623     6A     -1.372394
       7A     -1.026921     8A     -0.832680     9A     -0.707645
      10A     -0.683250    11A     -0.659869    12A     -0.584170
      13A     -0.580418    14A     -0.546246    15A     -0.489571
      16A     -0.452660

  @DF-RHF Final Energy:  -227.89706645382631

   => Energetics <=

    Nuclear Repulsion Energy =            122.5491411123906005
    One-Electron Energy =                -554.5421683752642821
    Two-Electron Energy =                 204.0959608090474546
    DFT Exchange-Correlation Energy =       0.0000000000000000
    Empirical Dispersion Energy =           0.0000000000000000
    PCM Polarization Energy =               0.0000000000000000
    EFP Energy =                            0.0000000000000000
    Total Energy =                       -227.8970664538262270
    Molecular point group: c1
  Basis Set: CC-PVTZ
  Basis Set:

  -Total Gradient:
     Atom            X                  Y                   Z
    ------   -----------------  -----------------  -----------------
       1       -0.000110895164    -0.000830370121    -0.011322443382
       2        0.001882056673     0.001728659424     0.011527878978
       3       -0.005796021645    -0.002707770252     0.005586545984
       4        0.004027671692     0.001863567880    -0.005762297353
       5       -0.000009387522    -0.000054701149    -0.000021635069
       6        0.000002379911     0.000001259513    -0.000001211395
       7       -0.000003446281     0.000000938258    -0.000010870989
       8        0.000007642334    -0.000001583553     0.000004033225

  **** Optimization is complete! (in 10 steps) ****
    Final optimized geometry and variables:
    Molecular point group: c1

    Geometry (in Angstrom), charge = 0, multiplicity = 1:

    H            1.595187550695    -0.916861374443     0.134361774657
    O            0.665054950108    -1.077655280551     0.155491250243
    C            0.007893179768     0.087998304265     0.076280283457
    C           -1.206153306121    -0.002443225444    -0.799468366191
    O            0.414075453258     1.077018164515     0.572974108043
    H           -0.862242953250    -0.088890343996    -1.823293025075
    H           -1.808349970473     0.884860596554    -0.690723871366
    H           -1.783699191037    -0.887687050812    -0.570742141291

  Mulliken Charges: (a.u.)
   Center  Symbol    Alpha    Beta     Spin     Total
       1     H     0.37827  0.37827  0.00000  0.24346
       2     O     4.17050  4.17050  0.00000 -0.34100
       3     C     2.80413  2.80413  0.00000  0.39175
       4     C     3.13625  3.13625  0.00000 -0.27249
       5     O     4.18136  4.18136  0.00000 -0.36271
       6     H     0.44694  0.44694  0.00000  0.10613
       7     H     0.43861  0.43861  0.00000  0.12278
       8     H     0.44395  0.44395  0.00000  0.11209

   Total alpha = 16.00000, Total beta = 16.00000, Total charge = -0.00000
