                              Psi4 1.0.54 Driver

  ==> Input File <==

--------------------------------------------------------------------------
set {
	reference rhf
	basis cc-pvtz
}

set_num_threads( 4 )
memory 2 gb

molecule MOL {
0 1

O	 1.847685	 1.294399	 -0.000190
C	 1.704209	 0.119472	 -0.000093
C	 0.380337	 -0.600947	 -0.000234
O	 2.715427	 -0.733672	 0.000025
C	 -0.824290	 0.329213	 -0.000115
H	 0.371455	 -1.255476	 -0.865660
H	 0.371410	 -1.255787	 0.864952
C	 -2.004038	 -0.248877	 0.775788
H	 -1.119935	 0.531084	 -1.023402
H	 -0.537644	 1.284980	 0.423716
C	 -3.221947	 0.670378	 0.787538
H	 -2.284893	 -1.208423	 0.347253
H	 -1.699944	 -0.452010	 1.800240
C	 -4.401236	 0.092448	 1.562579
H	 -3.527127	 0.873163	 -0.235154
H	 -2.942998	 1.628520	 1.216853
H	 -4.726144	 -0.850659	 1.135710
H	 -5.247842	 0.769099	 1.550916
H	 -4.137524	 -0.088962	 2.599295
C	 4.020999	 -0.192556	 0.000019
H	 4.182809	 0.412891	 -0.879449
H	 4.692590	 -1.035653	 0.000152
H	 4.182726	 0.413087	 0.879368

	symmetry c1
}
set optking {
	frozen_dihedral = ("
		9 5 3 6
	")
}

ee,wfn = optimize('scf', return_wfn=True)
oeprop( wfn, 'DIPOLE', 'QUADRUPOLE', 'MULLIKEN_CHARGES')
f=open( 'psi4out.xyz', 'w' )
f.write( "23  " )
f.write( str(ee) + "\n" )
f.write( MOL.save_string_xyz() )
f.close()
--------------------------------------------------------------------------

    Molecular point group: c1
  Charge       = 0
  Multiplicity = 1
  Basis Set: CC-PVTZ
  Basis Set:
  @DF-RHF Final Energy:  -423.12814258644795
    Total Energy =                       -423.1281425864476660
    Molecular point group: c1
  Basis Set: CC-PVTZ
  Basis Set:
  Basis Set: CC-PVTZ
  Basis Set:
  @DF-RHF Final Energy:  -423.12840159787680
    Total Energy =                       -423.1284015978767457
  Basis Set: CC-PVTZ
  Basis Set:
  Basis Set: CC-PVTZ
  Basis Set:
  @DF-RHF Final Energy:  -423.12836805840101
    Total Energy =                       -423.1283680584008380
  Basis Set: CC-PVTZ
  Basis Set:
  Basis Set: CC-PVTZ
  Basis Set:
  @DF-RHF Final Energy:  -423.12844304537265
    Total Energy =                       -423.1284430453731602
  Basis Set: CC-PVTZ
  Basis Set:
  Basis Set: CC-PVTZ
  Basis Set:
  @DF-RHF Final Energy:  -423.12846999160405
    Total Energy =                       -423.1284699916043337
  Basis Set: CC-PVTZ
  Basis Set:
  Charge       = 0
  Multiplicity = 1
  Basis Set: CC-PVTZ
  Basis Set:

    Orbital Energies (a.u.)
    -----------------------

    Doubly Occupied:

       1A    -20.596264     2A    -20.534438     3A    -11.364787
       4A    -11.278505     5A    -11.233988     6A    -11.216362
       7A    -11.215350     8A    -11.214046     9A    -11.207476
      10A     -1.472352    11A     -1.365881    12A     -1.093260
      13A     -1.044224    14A     -0.987810    15A     -0.932353
      16A     -0.844275    17A     -0.795257    18A     -0.768944
      19A     -0.700127    20A     -0.685744    21A     -0.675638
      22A     -0.650296    23A     -0.611199    24A     -0.600882
      25A     -0.572621    26A     -0.559172    27A     -0.557978
      28A     -0.526857    29A     -0.524225    30A     -0.504757
      31A     -0.486005    32A     -0.468589    33A     -0.465779
      34A     -0.461791    35A     -0.459480    36A     -0.438786

  @DF-RHF Final Energy:  -423.12847030362872

   => Energetics <=

    Nuclear Repulsion Energy =            453.2277240859667131
    One-Electron Energy =               -1474.4813934943995264
    Two-Electron Energy =                 598.1251991048045511
    DFT Exchange-Correlation Energy =       0.0000000000000000
    Empirical Dispersion Energy =           0.0000000000000000
    PCM Polarization Energy =               0.0000000000000000
    EFP Energy =                            0.0000000000000000
    Total Energy =                       -423.1284703036283190
    Molecular point group: c1
  Basis Set: CC-PVTZ
  Basis Set:

  -Total Gradient:
     Atom            X                  Y                   Z
    ------   -----------------  -----------------  -----------------
       1       -0.000011561431     0.000038208377     0.000005612684
       2        0.000029738040    -0.000050720641    -0.000037469452
       3       -0.002875028059    -0.003731826795     0.002399970450
       4        0.000004087592    -0.000022404762     0.000021395866
       5        0.003170861283     0.004104364431    -0.000522510300
       6        0.001904581903     0.002449516281    -0.001865512673
       7        0.000004649426    -0.000015538585    -0.000010382316
       8       -0.000006360383    -0.000000935772    -0.000056318703
       9       -0.002203204861    -0.002810144298     0.000090206958
      10       -0.000005388283     0.000030378351    -0.000015774783
      11       -0.000023124666    -0.000005994004    -0.000003875214
      12       -0.000013884695    -0.000020497773    -0.000011774777
      13        0.000020695926     0.000001769287    -0.000003080522
      14        0.000013113520     0.000012271967     0.000013427923
      15       -0.000002062724    -0.000004332779    -0.000012439397
      16        0.000000933861     0.000015571950     0.000002654872
      17       -0.000001551658    -0.000008112116    -0.000011859949
      18       -0.000010228871     0.000011767593     0.000004773105
      19        0.000000306314    -0.000006209991     0.000018832739
      20        0.000007864114     0.000015751616    -0.000017054705
      21        0.000000967665    -0.000000090945    -0.000003292977
      22       -0.000005357871    -0.000010765695    -0.000000191764
      23       -0.000000046145     0.000007974303     0.000014662932

  **** Optimization is complete! (in 6 steps) ****
    Final optimized geometry and variables:
    Molecular point group: c1

    Geometry (in Angstrom), charge = 0, multiplicity = 1:

    O            1.821858006297     1.219375628972    -0.334368561214
    C            1.657533224056     0.047238989930    -0.331269621169
    C            0.324283304070    -0.660954365631    -0.293678014754
    O            2.654917979566    -0.821903244071    -0.362507171211
    C           -0.882273228818     0.277930742606    -0.287923801422
    H            0.314857603125    -1.312420573561    -1.160241986750
    H            0.336519868149    -1.306043143165     0.577593918265
    C           -2.081489695352    -0.322861517476     0.443910477230
    H           -1.177863067521     0.485136186394    -1.310902159458
    H           -0.608368660337     1.221403384010     0.163307994389
    C           -3.315499974245     0.573486819541     0.409252270762
    H           -2.328773578909    -1.288893046043     0.008587136881
    H           -1.809254773257    -0.517100811126     1.478856454568
    C           -4.507198862146    -0.018096975563     1.154551805536
    H           -3.593870781469     0.760570884398    -0.624211444704
    H           -3.066554890213     1.540777905934     0.836568670359
    H           -4.801893544648    -0.971391384455     0.728235531785
    H           -5.365198093519     0.642732418676     1.110200527718
    H           -4.271734904953    -0.183970308335     2.200608585817
    C            3.968448203711    -0.301956817907    -0.399579222736
    H            4.114407230621     0.302945779891    -1.282194008053
    H            4.625957036593    -1.155865497642    -0.420781368507
    H            4.165856446002     0.298746271872     0.475907662303

  Mulliken Charges: (a.u.)
   Center  Symbol    Alpha    Beta     Spin     Total
       1     O     4.19605  4.19605  0.00000 -0.39210
       2     C     2.80327  2.80327  0.00000  0.39347
       3     C     3.10548  3.10548  0.00000 -0.21096
       4     O     4.14735  4.14735  0.00000 -0.29470
       5     C     3.08973  3.08973  0.00000 -0.17946
       6     H     0.43738  0.43738  0.00000  0.12523
       7     H     0.43924  0.43924  0.00000  0.12152
       8     C     3.09019  3.09019  0.00000 -0.18038
       9     H     0.45272  0.45272  0.00000  0.09456
      10     H     0.43689  0.43689  0.00000  0.12622
      11     C     3.08471  3.08471  0.00000 -0.16941
      12     H     0.45517  0.45517  0.00000  0.08967
      13     H     0.45532  0.45532  0.00000  0.08937
      14     C     3.14994  3.14994  0.00000 -0.29987
      15     H     0.45405  0.45405  0.00000  0.09191
      16     H     0.45246  0.45246  0.00000  0.09508
      17     H     0.45559  0.45559  0.00000  0.08883
      18     H     0.44793  0.44793  0.00000  0.10413
      19     H     0.45509  0.45509  0.00000  0.08981
      20     C     3.03710  3.03710  0.00000 -0.07421
      21     H     0.45442  0.45442  0.00000  0.09117
      22     H     0.44550  0.44550  0.00000  0.10899
      23     H     0.45443  0.45443  0.00000  0.09114

   Total alpha = 36.00000, Total beta = 36.00000, Total charge =  0.00000

*** Psi4 exiting successfully. Buy a developer a beer!
