  ==> Input File <==

--------------------------------------------------------------------------
set {
	reference rhf
	basis 6-31G*
}

set_num_threads( 4 )
memory 2 gb

molecule MOL {
0 1

H	 -2.646374	 -0.642757	 1.268656
C	 -2.083525	 -0.384536	 0.393091
O	 -0.807605	 -0.127164	 0.768327
F	 -2.118945	 -1.383102	 -0.486752
F	 -2.621877	 0.670592	 -0.209486
C	 0.084052	 0.273579	 -0.209957
C	 -0.656371	 1.251762	 -1.112781
Cl	 0.666450	 -1.116190	 -1.140853
H	 0.943277	 0.775263	 0.199701
F	 0.138432	 1.688795	 -2.066421
F	 -1.039359	 2.287239	 -0.392679
F	 -1.717479	 0.712458	 -1.661574

	symmetry c1
}
set optking {
	frozen_dihedral = ("
		9 6 3 2
	")
}

ee = optimize('scf')
oeprop('DIPOLE', 'QUADRUPOLE', 'MULLIKEN_CHARGES')
f=open( 'psi4out.xyz', 'w' )
f.write( "12  " )
f.write( str(ee) + "\n" )
f.write( MOL.save_string_xyz() )
f.close()
--------------------------------------------------------------------------

    Molecular point group: c1
  Charge       = 0
  Multiplicity = 1
  Basis Set: 6-31G*
  Basis Set:
  @DF-RHF Final Energy: -1146.19906584679575
    Total Energy =                      -1146.1990658467968842
    Molecular point group: c1
  Basis Set: 6-31G*
  Basis Set:
  Basis Set: 6-31G*
  Basis Set:
  @DF-RHF Final Energy: -1146.25615526309275
    Total Energy =                      -1146.2561552630916140
  Basis Set: 6-31G*
  Basis Set:
  Basis Set: 6-31G*
  Basis Set:
  @DF-RHF Final Energy: -1146.27813114463970
    Total Energy =                      -1146.2781311446401560
  Basis Set: 6-31G*
  Basis Set:
  Basis Set: 6-31G*
  Basis Set:
  @DF-RHF Final Energy: -1146.29269145032640
    Total Energy =                      -1146.2926914503266289
  Basis Set: 6-31G*
  Basis Set:
  @DF-RHF Final Energy: -1146.30023617162260
    Total Energy =                      -1146.3002361716226005
  @DF-RHF Final Energy: -1146.30381243200281
    Total Energy =                      -1146.3038124320028146
  @DF-RHF Final Energy: -1146.30509686841810
    Total Energy =                      -1146.3050968684178770
  @DF-RHF Final Energy: -1146.30537977524045
    Total Energy =                      -1146.3053797752409082
  @DF-RHF Final Energy: -1146.30546160002859
    Total Energy =                      -1146.3054616000281385
  @DF-RHF Final Energy: -1146.30548564966011
    Total Energy =                      -1146.3054856496594311
  @DF-RHF Final Energy: -1146.30550368296144
    Total Energy =                      -1146.3055036829605342
  @DF-RHF Final Energy: -1146.30552961854619
    Total Energy =                      -1146.3055296185452789
  Basis Set: 6-31G*
  Basis Set:
  @DF-RHF Final Energy: -1146.30554207188243
    Total Energy =                      -1146.3055420718828827
  Basis Set: 6-31G*
  Basis Set:
  Basis Set: 6-31G*
  Basis Set:
  @DF-RHF Final Energy: -1146.30554361361283
    Total Energy =                      -1146.3055436136123717
  Basis Set: 6-31G*
  Basis Set:
  Basis Set: 6-31G*
  Basis Set:
  @DF-RHF Final Energy: -1146.30554477493342
    Total Energy =                      -1146.3055447749325140
  Basis Set: 6-31G*
  Basis Set:
  Charge       = 0
  Multiplicity = 1
  Basis Set: 6-31G*
  Basis Set:

    Orbital Energies (a.u.)
    -----------------------

    Doubly Occupied:

       1A   -104.842432     2A    -26.360223     3A    -26.360084
       4A    -26.359348     5A    -26.340338     6A    -26.338862
       7A    -20.646728     8A    -11.530221     9A    -11.485830
      10A    -11.403133    11A    -10.577272    12A     -8.046637
      13A     -8.043097    14A     -8.042972    15A     -1.762917
      16A     -1.711510    17A     -1.659143    18A     -1.657270
      19A     -1.633331    20A     -1.478026    21A     -1.177908
      22A     -1.048493    23A     -0.995886    24A     -0.916789
      25A     -0.860290    26A     -0.852091    27A     -0.846403
      28A     -0.828039    29A     -0.807800    30A     -0.749160
      31A     -0.732318    32A     -0.728520    33A     -0.703313
      34A     -0.695638    35A     -0.679541    36A     -0.673589
      37A     -0.664061    38A     -0.658769    39A     -0.651676
      40A     -0.637454    41A     -0.588937    42A     -0.561827
      43A     -0.521029    44A     -0.476188    45A     -0.466523

  @DF-RHF Final Energy: -1146.30554533496547

   => Energetics <=

    Nuclear Repulsion Energy =            760.7478235858941389
    One-Electron Energy =               -3104.5035091679460493
    Two-Electron Energy =                1197.4501402470868925
    DFT Exchange-Correlation Energy =       0.0000000000000000
    Empirical Dispersion Energy =           0.0000000000000000
    PCM Polarization Energy =               0.0000000000000000
    EFP Energy =                            0.0000000000000000
    Total Energy =                      -1146.3055453349652453
    Molecular point group: c1
  Basis Set: 6-31G*
  Basis Set:

  -Total Gradient:
     Atom            X                  Y                   Z
    ------   -----------------  -----------------  -----------------
       1       -0.000001139778    -0.000008728854    -0.000003409434
       2       -0.000787245015     0.003214050386     0.000595255192
       3        0.000879643275    -0.004478385071    -0.000946454058
       4       -0.000031129440    -0.000116656336     0.000012354956
       5        0.000027542503     0.000115613897    -0.000051546651
       6        0.001696733628    -0.001954713021     0.000799937427
       7        0.000094761294     0.000067168577    -0.000014092139
       8       -0.000015416110     0.000016055677     0.000004964087
       9       -0.001790981677     0.003187391983    -0.000435771778
      10       -0.000035958620    -0.000025138660     0.000015750465
      11       -0.000044799382    -0.000058334396     0.000049874018
      12        0.000007989338     0.000041675836    -0.000026862084

  **** Optimization is complete! (in 16 steps) ****
    Final optimized geometry and variables:
    Molecular point group: c1

    Geometry (in Angstrom), charge = 0, multiplicity = 1:

    H           -1.625492038924    -1.202712138500     2.171609035364
    C           -1.290998996301    -0.753152572597     1.256541412085
    O            0.014006543995    -0.411321418100     1.436132983634
    F           -1.442643490846    -1.601024934539     0.249670760592
    F           -2.033899967479     0.313767781476     0.989593720726
    C            0.880322683605    -0.002810324355     0.439683426310
    C            0.328101757241     1.017750052812    -0.560857264351
    CL           1.604092756096    -1.377935326068    -0.418464747050
    H            1.673131376813     0.512956879754     0.951285582144
    F            1.321602603241     1.446261665027    -1.313162913724
    F           -0.152262440983     2.051997670015     0.097445550003
    F           -0.607485562272     0.542785834567    -1.345202117959

  Mulliken Charges: (a.u.)
   Center  Symbol    Alpha    Beta     Spin     Total
       1     H     0.40437  0.40437  0.00000  0.19126
       2     C     2.56061  2.56061  0.00000  0.87879
       3     O     4.31351  4.31351  0.00000 -0.62701
       4     F     4.68066  4.68066  0.00000 -0.36133
       5     F     4.68334  4.68334  0.00000 -0.36667
       6     C     3.01708  3.01708  0.00000 -0.03417
       7     C     2.45446  2.45446  0.00000  1.09109
       8    CL     8.50457  8.50457  0.00000 -0.00913
       9     H     0.36650  0.36650  0.00000  0.26699
      10     F     4.67397  4.67397  0.00000 -0.34794
      11     F     4.67455  4.67455  0.00000 -0.34910
      12     F     4.66639  4.66639  0.00000 -0.33278

   Total alpha = 45.00000, Total beta = 45.00000, Total charge = -0.00000
