  ==> Input File <==

--------------------------------------------------------------------------
set {
	reference rhf
	basis cc-pvtz
}

set_num_threads( 4 )
memory 2 gb

molecule MOL {
0 1

O	 1.847685	 1.294399	 -0.000190
C	 1.704209	 0.119472	 -0.000093
C	 0.380337	 -0.600947	 -0.000234
O	 2.715427	 -0.733672	 0.000025
C	 -0.824290	 0.329213	 -0.000115
H	 0.371455	 -1.255476	 -0.865660
H	 0.371410	 -1.255787	 0.864952
C	 -2.146151	 -0.432825	 -0.000068
H	 -0.773936	 0.979158	 -0.866319
H	 -0.773838	 0.979034	 0.866186
C	 -3.366283	 0.483552	 0.000557
H	 -2.189286	 -1.084450	 -0.869996
H	 -2.188867	 -1.085083	 0.869399
C	 -3.761513	 0.955790	 -1.394504
H	 -3.165751	 1.346034	 0.629898
H	 -4.204219	 -0.036529	 0.456120
H	 -2.955208	 1.509960	 -1.863548
H	 -4.629711	 1.603590	 -1.358122
H	 -4.002273	 0.116492	 -2.038591
C	 4.020999	 -0.192556	 0.000019
H	 4.182809	 0.412891	 -0.879449
H	 4.692590	 -1.035653	 0.000152
H	 4.182726	 0.413087	 0.879368

	symmetry c1
}
set optking {
	frozen_dihedral = ("
		15 11 8 12
	")
}

ee = optimize('scf')
oeprop('DIPOLE', 'QUADRUPOLE', 'MULLIKEN_CHARGES')
f=open( 'psi4out.xyz', 'w' )
f.write( "23  " )
f.write( str(ee) + "\n" )
f.write( MOL.save_string_xyz() )
f.close()
--------------------------------------------------------------------------

    Molecular point group: c1
  Charge       = 0
  Multiplicity = 1
  Basis Set: CC-PVTZ
  Basis Set:
  @DF-RHF Final Energy:  -423.12830206909388
    Total Energy =                       -423.1283020690939338
    Molecular point group: c1
  Basis Set: CC-PVTZ
  Basis Set:
  Basis Set: CC-PVTZ
  Basis Set:
  @DF-RHF Final Energy:  -423.12845962778090
    Total Energy =                       -423.1284596277803303
  Basis Set: CC-PVTZ
  Basis Set:
  Basis Set: CC-PVTZ
  Basis Set:
  @DF-RHF Final Energy:  -423.12848888822646
    Total Energy =                       -423.1284888882275936
  Basis Set: CC-PVTZ
  Basis Set:
  Basis Set: CC-PVTZ
  Basis Set:
  @DF-RHF Final Energy:  -423.12835189778275
    Total Energy =                       -423.1283518977834319
  Basis Set: CC-PVTZ
  Basis Set:
  Basis Set: CC-PVTZ
  Basis Set:
  @DF-RHF Final Energy:  -423.12850045757676
    Total Energy =                       -423.1285004575770472
  Basis Set: CC-PVTZ
  Basis Set:
  Charge       = 0
  Multiplicity = 1
  Basis Set: CC-PVTZ
  Basis Set:

    Orbital Energies (a.u.)
    -----------------------

    Doubly Occupied:

       1A    -20.596320     2A    -20.534147     3A    -11.364583
       4A    -11.278488     5A    -11.233674     6A    -11.217013
       7A    -11.215900     8A    -11.214648     9A    -11.206871
      10A     -1.472214    11A     -1.365780    12A     -1.094155
      13A     -1.043314    14A     -0.986628    15A     -0.931834
      16A     -0.851850    17A     -0.788615    18A     -0.769465
      19A     -0.698859    20A     -0.686582    21A     -0.676018
      22A     -0.643925    23A     -0.617768    24A     -0.597882
      25A     -0.587824    26A     -0.564012    27A     -0.534181
      28A     -0.530906    29A     -0.522893    30A     -0.508940
      31A     -0.492625    32A     -0.468378    33A     -0.463582
      34A     -0.461885    35A     -0.456713    36A     -0.438426

  @DF-RHF Final Energy:  -423.12850061135157

   => Energetics <=

    Nuclear Repulsion Energy =            456.9232952805792820
    One-Electron Energy =               -1481.8697974417582373
    Two-Electron Energy =                 601.8180015498278408
    DFT Exchange-Correlation Energy =       0.0000000000000000
    Empirical Dispersion Energy =           0.0000000000000000
    PCM Polarization Energy =               0.0000000000000000
    EFP Energy =                            0.0000000000000000
    Total Energy =                       -423.1285006113512281
    Molecular point group: c1
  Basis Set: CC-PVTZ
  Basis Set:

  -Total Gradient:
     Atom            X                  Y                   Z
    ------   -----------------  -----------------  -----------------
       1       -0.000002277299    -0.000001977808     0.000004745793
       2        0.000003038225     0.000006385942     0.000006257322
       3       -0.000011646267    -0.000007592457    -0.000042762668
       4       -0.000002804267    -0.000003298662    -0.000012192459
       5       -0.000017945465     0.000011579686     0.000040208994
       6        0.000004859747    -0.000009173481     0.000011628998
       7        0.000003497238     0.000003648092     0.000011803478
       8       -0.001389723465    -0.001851402004     0.001199998847
       9       -0.000003269279     0.000007720098    -0.000004989475
      10        0.000008538283     0.000001986062    -0.000000458633
      11       -0.000904318498    -0.001124549310     0.002184258705
      12        0.001307419716     0.001733200796    -0.001372054935
      13       -0.000011470611     0.000017529837     0.000002696808
      14        0.000016899244    -0.000021211610     0.000005105393
      15        0.000987372603     0.001243591679    -0.002028984221
      16        0.000013596642    -0.000010211282    -0.000004408978
      17        0.000000928288     0.000002221762    -0.000001662169
      18       -0.000002147326     0.000001068310     0.000006233709
      19       -0.000000976200    -0.000000198561    -0.000008256565
      20        0.000001786348     0.000001458088     0.000003075959
      21       -0.000000679013    -0.000000353601     0.000000043884
      22       -0.000000636466    -0.000000317612    -0.000000075439
      23       -0.000000042172    -0.000000103967    -0.000000212345

  **** Optimization is complete! (in 6 steps) ****
    Final optimized geometry and variables:
    Molecular point group: c1

    Geometry (in Angstrom), charge = 0, multiplicity = 1:

    O            1.741900687156     1.152718214968     0.171193880131
    C            1.597588634610    -0.022115105437     0.160525226554
    C            0.273197833369    -0.741525007256     0.157526474396
    O            2.608295071043    -0.875802688634     0.148665262496
    C           -0.930479929063     0.189633274971     0.178979559364
    H            0.259054111571    -1.382611837858    -0.717847886550
    H            0.268669407874    -1.409727505743     1.012527232897
    C           -2.253253004623    -0.576067510702     0.184644652968
    H           -0.881301643681     0.851335962375    -0.677356007473
    H           -0.873753213614     0.826098313164     1.054628941720
    C           -3.485151314729     0.335890621931     0.154837952431
    H           -2.277507909065    -1.236768256196    -0.678729710534
    H           -2.289434784572    -1.209403416333     1.065916279554
    C           -3.859223039786     0.812361907735    -1.247554734981
    H           -3.300875718974     1.205986050446     0.778165525422
    H           -4.333032485657    -0.185808317905     0.585242395427
    H           -3.046753633347     1.356110550074    -1.716055984083
    H           -4.718576938684     1.472412418098    -1.217119003434
    H           -4.109173366835    -0.026115126279    -1.889163752512
    C            3.914150169647    -0.335554443363     0.148785383383
    H            4.073083080060     0.278111943469    -0.725513514199
    H            4.585227389513    -1.179015326791     0.138335704737
    H            4.079732517436     0.261625548939     1.033204211254

  Mulliken Charges: (a.u.)
   Center  Symbol    Alpha    Beta     Spin     Total
       1     O     4.19713  4.19713  0.00000 -0.39426
       2     C     2.80610  2.80610  0.00000  0.38780
       3     C     3.10225  3.10225  0.00000 -0.20449
       4     O     4.14644  4.14644  0.00000 -0.29288
       5     C     3.08494  3.08494  0.00000 -0.16988
       6     H     0.43979  0.43979  0.00000  0.12043
       7     H     0.43959  0.43959  0.00000  0.12083
       8     C     3.09688  3.09688  0.00000 -0.19377
       9     H     0.44545  0.44545  0.00000  0.10909
      10     H     0.44633  0.44633  0.00000  0.10734
      11     C     3.09056  3.09056  0.00000 -0.18113
      12     H     0.45678  0.45678  0.00000  0.08644
      13     H     0.44846  0.44846  0.00000  0.10308
      14     C     3.14890  3.14890  0.00000 -0.29780
      15     H     0.45412  0.45412  0.00000  0.09176
      16     H     0.44739  0.44739  0.00000  0.10522
      17     H     0.45368  0.45368  0.00000  0.09265
      18     H     0.44755  0.44755  0.00000  0.10491
      19     H     0.45587  0.45587  0.00000  0.08826
      20     C     3.03776  3.03776  0.00000 -0.07552
      21     H     0.45435  0.45435  0.00000  0.09131
      22     H     0.44533  0.44533  0.00000  0.10933
      23     H     0.45436  0.45436  0.00000  0.09128

   Total alpha = 36.00000, Total beta = 36.00000, Total charge = -0.00000
