  ==> Input File <==

--------------------------------------------------------------------------
set {
	reference rhf
	basis 6-31G*
}

set_num_threads( 4 )
memory 2 gb

molecule MOL {
0 1

H	 -1.002282	 1.099202	 3.129799
O	 -0.773941	 0.700175	 2.302558
C	 -0.308862	 1.685292	 1.414632
C	 0.031547	 1.023609	 0.088541
H	 0.581738	 2.167556	 1.813558
H	 -1.060537	 2.459056	 1.275434
C	 -1.134819	 0.293262	 -0.585751
H	 0.837004	 0.316089	 0.264451
H	 0.423619	 1.788444	 -0.579685
C	 -1.917817	 -0.639439	 0.339494
H	 -0.758119	 -0.268455	 -1.433105
H	 -1.813832	 1.041889	 -0.986690
H	 -2.777680	 -1.057197	 -0.174994
H	 -1.310268	 -1.471279	 0.680599
H	 -2.283753	 -0.111424	 1.216626

	symmetry c1
}
set optking {
	frozen_dihedral = ("
		8 4 7 11
	")
}

ee = optimize('scf')
oeprop('DIPOLE', 'QUADRUPOLE', 'MULLIKEN_CHARGES')
f=open( 'psi4out.xyz', 'w' )
f.write( "15  " )
f.write( str(ee) + "\n" )
f.write( MOL.save_string_xyz() )
f.close()
--------------------------------------------------------------------------

    Molecular point group: c1
  Charge       = 0
  Multiplicity = 1
  Basis Set: 6-31G*
  Basis Set:
  @DF-RHF Final Energy:  -232.13292049400712
    Total Energy =                       -232.1329204940071236
    Molecular point group: c1
  Basis Set: 6-31G*
  Basis Set:
  Basis Set: 6-31G*
  Basis Set:
  @DF-RHF Final Energy:  -232.13928319268996
    Total Energy =                       -232.1392831926899589
  Basis Set: 6-31G*
  Basis Set:
  Basis Set: 6-31G*
  Basis Set:
  @DF-RHF Final Energy:  -232.14094037501954
    Total Energy =                       -232.1409403750196248
  Basis Set: 6-31G*
  Basis Set:
  Basis Set: 6-31G*
  Basis Set:
  @DF-RHF Final Energy:  -232.14133849559670
    Total Energy =                       -232.1413384955968695
  Basis Set: 6-31G*
  Basis Set:
  Basis Set: 6-31G*
  Basis Set:
  @DF-RHF Final Energy:  -232.14142599035091
    Total Energy =                       -232.1414259903509674
  Basis Set: 6-31G*
  Basis Set:
  Basis Set: 6-31G*
  Basis Set:
  @DF-RHF Final Energy:  -232.14145120518702
    Total Energy =                       -232.1414512051869110
  Basis Set: 6-31G*
  Basis Set:
  Charge       = 0
  Multiplicity = 1
  Basis Set: 6-31G*
  Basis Set:

    Orbital Energies (a.u.)
    -----------------------

    Doubly Occupied:

       1A    -20.553306     2A    -11.269036     3A    -11.213200
       4A    -11.212049     5A    -11.195867     6A     -1.360176
       7A     -1.062118     8A     -0.969335     9A     -0.864740
      10A     -0.775814    11A     -0.702870    12A     -0.648099
      13A     -0.606265    14A     -0.570399    15A     -0.554997
      16A     -0.537775    17A     -0.506047    18A     -0.472880
      19A     -0.464577    20A     -0.453137    21A     -0.426558

  @DF-RHF Final Energy:  -232.14145281909714

   => Energetics <=

    Nuclear Repulsion Energy =            192.7731010385858781
    One-Electron Energy =                -696.9906175605626686
    Two-Electron Energy =                 272.0760637028795372
    DFT Exchange-Correlation Energy =       0.0000000000000000
    Empirical Dispersion Energy =           0.0000000000000000
    PCM Polarization Energy =               0.0000000000000000
    EFP Energy =                            0.0000000000000000
    Total Energy =                       -232.1414528190972533
    Molecular point group: c1
  Basis Set: 6-31G*
  Basis Set:

  -Total Gradient:
     Atom            X                  Y                   Z
    ------   -----------------  -----------------  -----------------
       1        0.000001195096     0.000022000257    -0.000033256896
       2        0.000041800269    -0.000040244824    -0.000079712318
       3       -0.000092190481     0.000057717598     0.000056092535
       4       -0.001589633299    -0.001389261180     0.003786444396
       5        0.000030411216    -0.000010449240    -0.000041438681
       6       -0.000012927714     0.000029071091    -0.000002544579
       7        0.000008680292     0.003078389057    -0.002767872607
       8        0.001312221984     0.000609700969    -0.002723291398
       9       -0.000009908163     0.000025473254     0.000054620351
      10        0.000023202724     0.000066144133     0.000055297305
      11        0.000276910417    -0.002421532723     0.001753305553
      12        0.000007631432    -0.000012230151     0.000014931737
      13       -0.000024324644    -0.000033134908    -0.000033654155
      14        0.000013750433     0.000003557865    -0.000027829129
      15        0.000013180437     0.000014798801    -0.000011092118

  **** Optimization is complete! (in 7 steps) ****
    Final optimized geometry and variables:
    Molecular point group: c1

    Geometry (in Angstrom), charge = 0, multiplicity = 1:

    H            0.072948659132     0.593571955739     2.469975404152
    O            0.297504686633     0.141382146718     1.669187264724
    C            0.481929075091     1.076932922882     0.636704036043
    C            0.811531730890     0.349595556127    -0.657985300169
    H            1.300743400325     1.748785510426     0.886944978886
    H           -0.411262217875     1.687195643922     0.505335723927
    C           -0.363633963118    -0.311785947073    -1.391153801110
    H            1.590428651951    -0.381636776447    -0.460040386644
    H            1.254890359558     1.078139203949    -1.334616661730
    C           -1.207138449518    -1.280410852775    -0.558539156459
    H            0.045101210106    -0.865046167402    -2.233204026472
    H           -1.007413412856     0.461043370205    -1.805797246236
    H           -1.955605693583    -1.757143078557    -1.185385369326
    H           -0.591031740786    -2.057902089847    -0.119247907553
    H           -1.718512694233    -0.778260524342     0.252874698172

  Mulliken Charges: (a.u.)
   Center  Symbol    Alpha    Beta     Spin     Total
       1     H     0.28113  0.28113  0.00000  0.43773
       2     O     4.36803  4.36803  0.00000 -0.73605
       3     C     2.99891  2.99891  0.00000  0.00217
       4     C     3.15975  3.15975  0.00000 -0.31951
       5     H     0.42893  0.42893  0.00000  0.14214
       6     H     0.43235  0.43235  0.00000  0.13531
       7     C     3.15426  3.15426  0.00000 -0.30852
       8     H     0.41286  0.41286  0.00000  0.17427
       9     H     0.42285  0.42285  0.00000  0.15429
      10     C     3.23259  3.23259  0.00000 -0.46517
      11     H     0.42170  0.42170  0.00000  0.15660
      12     H     0.42564  0.42564  0.00000  0.14873
      13     H     0.42664  0.42664  0.00000  0.14672
      14     H     0.41778  0.41778  0.00000  0.16444
      15     H     0.41658  0.41658  0.00000  0.16685

   Total alpha = 21.00000, Total beta = 21.00000, Total charge =  0.00000
