  ==> Input File <==

--------------------------------------------------------------------------
set {
	reference rhf
	basis 6-31G*
}

set_num_threads( 4 )
memory 2 gb

molecule MOL {
0 1

H	 -4.031818	 -0.453427	 -0.000094
C	 -2.967712	 -0.297022	 -0.000064
C	 -2.458620	 0.992929	 0.000032
C	 -2.109895	 -1.385637	 -0.000122
H	 -3.124998	 1.836319	 0.000077
C	 -1.090278	 1.193236	 0.000070
H	 -2.506361	 -2.384847	 -0.000198
C	 -0.739812	 -1.187531	 -0.000085
H	 -0.678594	 2.184290	 0.000146
C	 -0.226438	 0.104061	 0.000012
H	 -0.072310	 -2.027032	 -0.000131
C	 1.239129	 0.373821	 0.000060
O	 1.825106	 0.057799	 1.145208
O	 1.832541	 0.826662	 -0.928195
C	 3.221043	 0.282157	 1.232921
H	 3.745180	 -0.299469	 0.488753
H	 3.507265	 -0.031845	 2.224553
H	 3.445639	 1.329194	 1.090830

	symmetry c1
}
set optking {
	frozen_dihedral = ("
		13 12 10 6
	")
}

ee = optimize('scf')
oeprop('DIPOLE', 'QUADRUPOLE', 'MULLIKEN_CHARGES')
f=open( 'psi4out.xyz', 'w' )
f.write( "18  " )
f.write( str(ee) + "\n" )
f.write( MOL.save_string_xyz() )
f.close()
--------------------------------------------------------------------------

    Molecular point group: c1
  Charge       = 0
  Multiplicity = 1
  Basis Set: 6-31G*
  Basis Set:
  @DF-RHF Final Energy:  -457.33952546857631
    Total Energy =                       -457.3395254685760847
    Molecular point group: c1
  Basis Set: 6-31G*
  Basis Set:
  Basis Set: 6-31G*
  Basis Set:
  @DF-RHF Final Energy:  -457.33797368061113
    Total Energy =                       -457.3379736806109577
  Basis Set: 6-31G*
  Basis Set:
  Basis Set: 6-31G*
  Basis Set:
  @DF-RHF Final Energy:  -457.34000771816017
    Total Energy =                       -457.3400077181607912
  Basis Set: 6-31G*
  Basis Set:
  Basis Set: 6-31G*
  Basis Set:
  @DF-RHF Final Energy:  -457.34007075303253
    Total Energy =                       -457.3400707530329328
  Basis Set: 6-31G*
  Basis Set:
  Basis Set: 6-31G*
  Basis Set:
  @DF-RHF Final Energy:  -457.34007259446986
    Total Energy =                       -457.3400725944702572
  Basis Set: 6-31G*
  Basis Set:
  Charge       = 0
  Multiplicity = 1
  Basis Set: 6-31G*
  Basis Set:

    Orbital Energies (a.u.)
    -----------------------

    Doubly Occupied:

       1A    -20.609831     2A    -20.550145     3A    -11.380262
       4A    -11.283639     5A    -11.250915     6A    -11.244238
       7A    -11.243620     8A    -11.240969     9A    -11.239542
      10A    -11.238963    11A     -1.475218    12A     -1.367621
      13A     -1.166630    14A     -1.048923    15A     -1.025800
      16A     -0.979685    17A     -0.859750    18A     -0.838098
      19A     -0.780130    20A     -0.737784    21A     -0.685097
      22A     -0.679900    23A     -0.676329    24A     -0.630593
      25A     -0.629798    26A     -0.597312    27A     -0.591016
      28A     -0.549380    29A     -0.536090    30A     -0.517179
      31A     -0.507685    32A     -0.502079    33A     -0.459444
      34A     -0.444464    35A     -0.342638    36A     -0.342426

  @DF-RHF Final Energy:  -457.34007298461114

   => Energetics <=

    Nuclear Repulsion Energy =            491.8897981280416047
    One-Electron Energy =               -1597.9533605935885134
    Two-Electron Energy =                 648.7234894809361094
    DFT Exchange-Correlation Energy =       0.0000000000000000
    Empirical Dispersion Energy =           0.0000000000000000
    PCM Polarization Energy =               0.0000000000000000
    EFP Energy =                            0.0000000000000000
    Total Energy =                       -457.3400729846108561
    Molecular point group: c1
  Basis Set: 6-31G*
  Basis Set:

  -Total Gradient:
     Atom            X                  Y                   Z
    ------   -----------------  -----------------  -----------------
       1       -0.000003557458     0.000009195126     0.000007893885
       2        0.000018744923    -0.000077578756    -0.000012244056
       3        0.000062301952     0.000047445857     0.000016631703
       4       -0.000082011829     0.000037385144    -0.000025430645
       5       -0.000006549970    -0.000006131598    -0.000008351813
       6       -0.000098080675    -0.000013670614     0.004607230517
       7        0.000009754466     0.000003402701     0.000005339328
       8        0.000070071672     0.000069782794    -0.000011153508
       9        0.000008143527    -0.000008943097     0.000000635346
      10       -0.000182563390     0.001334893710    -0.006096442674
      11       -0.000005292722    -0.000000142805    -0.000002003408
      12        0.000970508971    -0.005605153350    -0.000059607063
      13       -0.000761563584     0.004192132752     0.001599531123
      14       -0.000007584016     0.000000408382    -0.000033486020
      15        0.000008754911     0.000030352038     0.000012107256
      16       -0.000005673940    -0.000002348706    -0.000001347966
      17       -0.000003927077    -0.000004405656    -0.000002097866
      18        0.000008524234    -0.000006623924     0.000002795859

  **** Optimization is complete! (in 6 steps) ****
    Final optimized geometry and variables:
    Molecular point group: c1

    Geometry (in Angstrom), charge = 0, multiplicity = 1:

    H           -4.004204203202    -0.592183682828    -0.117652355344
    C           -2.942413022539    -0.423752159516    -0.136362726527
    C           -2.446306936025     0.869771819579    -0.154464654092
    C           -2.069933141845    -1.500496359033    -0.137467837260
    H           -3.120908311086     1.706738240114    -0.145844966774
    C           -1.079144703886     1.088095093818    -0.186118011877
    H           -2.452420867239    -2.505022655435    -0.118994340047
    C           -0.702363001379    -1.284743975120    -0.150270424463
    H           -0.691312001033     2.090205292355    -0.214797265491
    C           -0.206842326062     0.009994521908    -0.196207484382
    H           -0.025167680300    -2.119514284420    -0.128945981121
    C            1.268788410663     0.266241134662    -0.188637949091
    O            1.824010795561    -0.076567866060     0.962809437809
    O            1.869844048574     0.765058755640    -1.084220330641
    C            3.220868187825     0.131561544447     1.087306353160
    H            3.757323136620    -0.430879099519     0.336785364725
    H            3.481856613647    -0.215339470054     2.074669287243
    H            3.456952268854     1.180512152512     0.982534672078

  Mulliken Charges: (a.u.)
   Center  Symbol    Alpha    Beta     Spin     Total
       1     H     0.39634  0.39634  0.00000  0.20732
       2     C     3.09638  3.09638  0.00000 -0.19276
       3     C     3.10087  3.10087  0.00000 -0.20175
       4     C     3.10106  3.10106  0.00000 -0.20211
       5     H     0.39570  0.39570  0.00000  0.20860
       6     C     3.09839  3.09839  0.00000 -0.19677
       7     H     0.39595  0.39595  0.00000  0.20810
       8     C     3.09529  3.09529  0.00000 -0.19059
       9     H     0.38801  0.38801  0.00000  0.22398
      10     C     3.01387  3.01387  0.00000 -0.02774
      11     H     0.39121  0.39121  0.00000  0.21758
      12     C     2.63653  2.63653  0.00000  0.72695
      13     O     4.29569  4.29569  0.00000 -0.59138
      14     O     4.27778  4.27778  0.00000 -0.55556
      15     C     3.09434  3.09434  0.00000 -0.18868
      16     H     0.40848  0.40848  0.00000  0.18304
      17     H     0.40651  0.40651  0.00000  0.18698
      18     H     0.40760  0.40760  0.00000  0.18480

   Total alpha = 36.00000, Total beta = 36.00000, Total charge = -0.00000
