                              Psi4 1.0.54 Driver

  ==> Input File <==

--------------------------------------------------------------------------
set {
	reference rhf
	basis cc-pvtz
}

set_num_threads( 4 )
memory 2 gb

molecule MOL {
0 1

H	 -1.873735	 0.117947	 -0.664589
N	 -1.173824	 -0.310545	 -0.096857
C	 -0.022588	 0.563366	 0.065815
H	 -1.593948	 -0.513948	 0.786170
C	 1.270420	 -0.230572	 -0.014245
H	 -0.045354	 1.293678	 -0.735129
H	 -0.043155	 1.123061	 1.001180
H	 1.336273	 -0.754933	 -0.959364
H	 2.130728	 0.422015	 0.082222
H	 1.323344	 -0.967006	 0.781773

	symmetry c1
}
set optking {
	frozen_dihedral = ("
		1 2 3 6
	")
}

ee,wfn = optimize('scf', return_wfn=True)
oeprop( wfn, 'DIPOLE', 'QUADRUPOLE', 'MULLIKEN_CHARGES')
f=open( 'psi4out.xyz', 'w' )
f.write( "10  " )
f.write( str(ee) + "\n" )
f.write( MOL.save_string_xyz() )
f.close()
--------------------------------------------------------------------------

    Molecular point group: c1
  Charge       = 0
  Multiplicity = 1
  Basis Set: CC-PVTZ
  Basis Set:
  @DF-RHF Final Energy:  -134.30222744358244
    Total Energy =                       -134.3022274435824386
    Molecular point group: c1
  Basis Set: CC-PVTZ
  Basis Set:
  Basis Set: CC-PVTZ
  Basis Set:
  @DF-RHF Final Energy:  -134.30220456613230
    Total Energy =                       -134.3022045661323318
  Basis Set: CC-PVTZ
  Basis Set:
  Basis Set: CC-PVTZ
  Basis Set:
  @DF-RHF Final Energy:  -134.30261050458373
    Total Energy =                       -134.3026105045837539
  Basis Set: CC-PVTZ
  Basis Set:
  Basis Set: CC-PVTZ
  Basis Set:
  @DF-RHF Final Energy:  -134.30262511405692
    Total Energy =                       -134.3026251140569514
  Basis Set: CC-PVTZ
  Basis Set:
  Charge       = 0
  Multiplicity = 1
  Basis Set: CC-PVTZ
  Basis Set:

    Orbital Energies (a.u.)
    -----------------------

    Doubly Occupied:

       1A    -15.524856     2A    -11.241377     3A    -11.199924
       4A     -1.174755     5A     -0.987072     6A     -0.821765
       7A     -0.673172     8A     -0.625504     9A     -0.573017
      10A     -0.524153    11A     -0.511857    12A     -0.478815
      13A     -0.381057

  @DF-RHF Final Energy:  -134.30262707021348

   => Energetics <=

    Nuclear Repulsion Energy =             83.2121185337421281
    One-Electron Energy =                -345.5948445538157898
    Two-Electron Energy =                 128.0800989498602007
    DFT Exchange-Correlation Energy =       0.0000000000000000
    Empirical Dispersion Energy =           0.0000000000000000
    PCM Polarization Energy =               0.0000000000000000
    EFP Energy =                            0.0000000000000000
    Total Energy =                       -134.3026270702134752
    Molecular point group: c1
  Basis Set: CC-PVTZ
  Basis Set:

  -Total Gradient:
     Atom            X                  Y                   Z
    ------   -----------------  -----------------  -----------------
       1        0.000757892420    -0.000986695248    -0.002209001143
       2       -0.001291804099     0.001495479235     0.003029567603
       3        0.001595587762    -0.001936542891    -0.002291138864
       4        0.000032445092     0.000009324279     0.000031160118
       5       -0.000055475949    -0.000021265969     0.000052265323
       6       -0.001018614799     0.001448837663     0.001434258914
       7       -0.000002921709     0.000005900248    -0.000011750690
       8        0.000004477972    -0.000002855029    -0.000013389570
       9       -0.000034015788     0.000006488883    -0.000009733755
      10        0.000012429098    -0.000018671170    -0.000012237937

  **** Optimization is complete! (in 5 steps) ****
    Final optimized geometry and variables:
    Molecular point group: c1

    Geometry (in Angstrom), charge = 0, multiplicity = 1:

    H           -1.920132497530     0.293575806466    -0.475521860169
    N           -1.204736684659    -0.208319142273     0.000424643417
    C            0.038572251087     0.548247454913     0.081379898355
    H           -1.546658893774    -0.475930117124     0.896569363720
    C            1.253368249119    -0.346050257148    -0.107725404664
    H            0.023701256270     1.318197055110    -0.681602637578
    H            0.126640297224     1.076501792076     1.028973097258
    H            1.216672533066    -0.836512478956    -1.072574890555
    H            2.172270866562     0.227815957698    -0.042967002562
    H            1.283625710470    -1.116716279051     0.654915215711

  Mulliken Charges: (a.u.)
   Center  Symbol    Alpha    Beta     Spin     Total
       1     H     0.42471  0.42471  0.00000  0.15058
       2     N     3.69720  3.69720  0.00000 -0.39439
       3     C     3.03074  3.03074  0.00000 -0.06147
       4     H     0.42763  0.42763  0.00000  0.14473
       5     C     3.12424  3.12424  0.00000 -0.24848
       6     H     0.45755  0.45755  0.00000  0.08490
       7     H     0.46387  0.46387  0.00000  0.07227
       8     H     0.45424  0.45424  0.00000  0.09152
       9     H     0.46063  0.46063  0.00000  0.07875
      10     H     0.45920  0.45920  0.00000  0.08160

   Total alpha = 13.00000, Total beta = 13.00000, Total charge = -0.00000

*** Psi4 exiting successfully. Buy a developer a beer!
