                              Psi4 1.0.54 Driver

  ==> Input File <==

--------------------------------------------------------------------------
set {
	reference rhf
	basis cc-pvtz
}

set_num_threads( 4 )
memory 2 gb

molecule MOL {
0 1

H	 -3.258660	 -0.290394	 1.471450
C	 -3.307964	 -0.275695	 0.374072
C	 -2.653809	 0.914422	 -0.273689
O	 -3.855140	 -1.148880	 -0.205112
C	 -1.216901	 1.136108	 0.207794
H	 -2.700131	 0.790676	 -1.347875
H	 -3.256452	 1.781007	 -0.010713
C	 -0.247837	 0.040196	 -0.230469
H	 -0.872882	 2.093195	 -0.169002
H	 -1.209325	 1.218376	 1.291938
C	 1.181757	 0.280428	 0.247371
H	 -0.259600	 -0.030819	 -1.314870
H	 -0.591284	 -0.923375	 0.136958
C	 2.151032	 -0.811012	 -0.202643
H	 1.515939	 1.247397	 -0.115449
H	 1.191514	 0.341223	 1.333422
C	 3.580021	 -0.656538	 0.320835
H	 2.170545	 -0.847575	 -1.289412
H	 1.766632	 -1.772905	 0.124928
C	 4.463181	 -1.888757	 0.139870
H	 3.532552	 -0.415639	 1.378241
H	 4.048524	 0.196844	 -0.162435
H	 4.016251	 -2.760151	 0.607761
H	 4.626275	 -2.121876	 -0.905472
H	 5.435519	 -1.734200	 0.593343

	symmetry c1
}
set optking {
	frozen_dihedral = ("
		20 17 14 18
	")
}

ee,wfn = optimize('scf', return_wfn=True)
oeprop( wfn, 'DIPOLE', 'QUADRUPOLE', 'MULLIKEN_CHARGES')
f=open( 'psi4out.xyz', 'w' )
f.write( "25  " )
f.write( str(ee) + "\n" )
f.write( MOL.save_string_xyz() )
f.close()
--------------------------------------------------------------------------

    Molecular point group: c1
  Charge       = 0
  Multiplicity = 1
  Basis Set: CC-PVTZ
  Basis Set:
  @DF-RHF Final Energy:  -387.26112926126649
    Total Energy =                       -387.2611292612664329
    Molecular point group: c1
  Basis Set: CC-PVTZ
  Basis Set:
  Basis Set: CC-PVTZ
  Basis Set:
  @DF-RHF Final Energy:  -387.25527954638636
    Total Energy =                       -387.2552795463868733
  Basis Set: CC-PVTZ
  Basis Set:
  Basis Set: CC-PVTZ
  Basis Set:
  @DF-RHF Final Energy:  -387.26161382700531
    Total Energy =                       -387.2616138270057036
  Basis Set: CC-PVTZ
  Basis Set:
  Basis Set: CC-PVTZ
  Basis Set:
  @DF-RHF Final Energy:  -387.26163966366425
    Total Energy =                       -387.2616396636643685
  Basis Set: CC-PVTZ
  Basis Set:
  Basis Set: CC-PVTZ
  Basis Set:
  @DF-RHF Final Energy:  -387.26163474966035
    Total Energy =                       -387.2616347496605158
  Basis Set: CC-PVTZ
  Basis Set:
  Basis Set: CC-PVTZ
  Basis Set:
  @DF-RHF Final Energy:  -387.26162443450306
    Total Energy =                       -387.2616244345035739
  Basis Set: CC-PVTZ
  Basis Set:
  Basis Set: CC-PVTZ
  Basis Set:
  @DF-RHF Final Energy:  -387.26164370011821
    Total Energy =                       -387.2616437001181566
  Basis Set: CC-PVTZ
  Basis Set:
  Charge       = 0
  Multiplicity = 1
  Basis Set: CC-PVTZ
  Basis Set:

    Orbital Energies (a.u.)
    -----------------------

    Doubly Occupied:

       1A    -20.551392     2A    -11.320991     3A    -11.233807
       4A    -11.232864     5A    -11.221705     6A    -11.218082
       7A    -11.215832     8A    -11.214726     9A    -11.208339
      10A     -1.406407    11A     -1.105336    12A     -1.071345
      13A     -1.016351    14A     -0.944620    15A     -0.868628
      16A     -0.814665    17A     -0.794631    18A     -0.787634
      19A     -0.667931    20A     -0.666627    21A     -0.641229
      22A     -0.617912    23A     -0.606427    24A     -0.594319
      25A     -0.569131    26A     -0.551603    27A     -0.542425
      28A     -0.522941    29A     -0.505416    30A     -0.502886
      31A     -0.488903    32A     -0.477089    33A     -0.466953
      34A     -0.465327    35A     -0.441949    36A     -0.411892

  @DF-RHF Final Energy:  -387.26164405022308

   => Energetics <=

    Nuclear Repulsion Energy =            436.1125216280676682
    One-Electron Energy =               -1388.8116939895953692
    Two-Electron Energy =                 565.4375283113045043
    DFT Exchange-Correlation Energy =       0.0000000000000000
    Empirical Dispersion Energy =           0.0000000000000000
    PCM Polarization Energy =               0.0000000000000000
    EFP Energy =                            0.0000000000000000
    Total Energy =                       -387.2616440502231399
    Molecular point group: c1
  Basis Set: CC-PVTZ
  Basis Set:

  -Total Gradient:
     Atom            X                  Y                   Z
    ------   -----------------  -----------------  -----------------
       1       -0.000000843917     0.000001519129    -0.000000979563
       2       -0.000001175622     0.000004013265    -0.000001543793
       3       -0.000017208250     0.000005897650    -0.000009203452
       4        0.000002866720    -0.000004868067     0.000001404409
       5        0.000009082387    -0.000004291484     0.000000376288
       6        0.000000027117    -0.000002582376     0.000000205228
       7        0.000004199654     0.000001782582     0.000001838592
       8       -0.000002672297    -0.000006292347     0.000011578011
       9        0.000000538541     0.000003004421     0.000001542010
      10       -0.000000834741    -0.000002640764     0.000000880564
      11        0.000007874095     0.000000048469     0.000002575881
      12       -0.000000806280     0.000000499911     0.000001824209
      13        0.000001977393    -0.000001073264    -0.000000399130
      14        0.000169474480    -0.002854260834     0.001265202941
      15        0.000002842258    -0.000001645627     0.000000300095
      16       -0.000005142951     0.000002316118     0.000002214443
      17        0.000411871652     0.000869159225    -0.002391492057
      18       -0.000242511881     0.002234407304    -0.000529643715
      19        0.000001368675     0.000005423920     0.000004086152
      20       -0.000342330145    -0.000253714649     0.001634227559
      21        0.000003104600     0.000001484890     0.000006586424
      22       -0.000000134629    -0.000001729783    -0.000002659125
      23        0.000000219862     0.000000278280     0.000004587225
      24       -0.000000910336    -0.000002136582    -0.000000477028
      25       -0.000000876392     0.000005400612    -0.000003032167

  **** Optimization is complete! (in 8 steps) ****
    Final optimized geometry and variables:
    Molecular point group: c1

    Geometry (in Angstrom), charge = 0, multiplicity = 1:

    H           -3.216796140565     0.424590534067     1.531608676348
    C           -3.310027433406     0.268874426263     0.448107216654
    C           -2.607360415319     1.292418175859    -0.401937627263
    O           -3.935885119895    -0.644180984193     0.033469835656
    C           -1.140940941053     1.486494768063    -0.005182896778
    H           -2.705022720874     1.003461671407    -1.440360420984
    H           -3.141909992862     2.229737669958    -0.264142366292
    C           -0.263064808362     0.269544700810    -0.289104777625
    H           -0.751161581902     2.344792094704    -0.541628049041
    H           -1.084282499425     1.739579233384     1.050692742294
    C            1.198078949394     0.484323760953     0.094696027485
    H           -0.327772305163     0.024313342208    -1.345804371452
    H           -0.649495884853    -0.595570548366     0.243799170947
    C            2.082006663287    -0.728670665303    -0.185834064691
    H            1.587384251407     1.344732422715    -0.444735273606
    H            1.258696892653     0.735461853087     1.150862039259
    C            3.551831809563    -0.493222369912     0.156178410054
    H            1.997060100780    -0.982633243393    -1.239553209728
    H            1.709412865534    -1.582231757105     0.374071183376
    C            4.386299658044    -1.769600293533     0.132841674059
    H            3.621433784642    -0.046908148504     1.144722888840
    H            3.970841718371     0.232791272457    -0.534515874373
    H            4.022533144366    -2.484509070604     0.862947472588
    H            4.349649061457    -2.246701558129    -0.841179542018
    H            5.425972748081    -1.563752209686     0.360176252991

  Mulliken Charges: (a.u.)
   Center  Symbol    Alpha    Beta     Spin     Total
       1     H     0.46420  0.46420  0.00000  0.07160
       2     C     2.90473  2.90473  0.00000  0.19055
       3     C     3.08899  3.08899  0.00000 -0.17798
       4     O     4.16626  4.16626  0.00000 -0.33251
       5     C     3.11673  3.11673  0.00000 -0.23347
       6     H     0.44291  0.44291  0.00000  0.11418
       7     H     0.44050  0.44050  0.00000  0.11900
       8     C     3.09064  3.09064  0.00000 -0.18129
       9     H     0.44307  0.44307  0.00000  0.11386
      10     H     0.44982  0.44982  0.00000  0.10036
      11     C     3.08986  3.08986  0.00000 -0.17971
      12     H     0.44989  0.44989  0.00000  0.10023
      13     H     0.44840  0.44840  0.00000  0.10319
      14     C     3.08692  3.08692  0.00000 -0.17385
      15     H     0.45358  0.45358  0.00000  0.09285
      16     H     0.45421  0.45421  0.00000  0.09158
      17     C     3.08501  3.08501  0.00000 -0.17002
      18     H     0.45358  0.45358  0.00000  0.09284
      19     H     0.45360  0.45360  0.00000  0.09281
      20     C     3.14981  3.14981  0.00000 -0.29962
      21     H     0.45601  0.45601  0.00000  0.08798
      22     H     0.45336  0.45336  0.00000  0.09328
      23     H     0.45472  0.45472  0.00000  0.09057
      24     H     0.45472  0.45472  0.00000  0.09055
      25     H     0.44848  0.44848  0.00000  0.10304

   Total alpha = 36.00000, Total beta = 36.00000, Total charge = -0.00000

*** Psi4 exiting successfully. Buy a developer a beer!
