  ==> Input File <==

--------------------------------------------------------------------------
set {
	reference rhf
	basis 6-31G*
}

set_num_threads( 4 )
memory 2 gb

molecule MOL {
0 1

H	 1.580948	 1.091045	 1.093777
C	 0.701172	 1.200664	 0.474678
O	 0.000000	 0.000000	 0.521119
H	 0.102958	 2.026811	 0.855871
H	 1.012677	 1.441536	 -0.540524
C	 -1.165642	 0.000000	 -0.238270
H	 -1.228672	 0.883184	 -0.872070
H	 -2.003012	 0.000000	 0.445920
H	 -1.228672	 -0.883184	 -0.872070

	symmetry c1
}
set optking {
	frozen_dihedral = ("
		2 3 6 7
	")
}

ee = optimize('scf')
oeprop('DIPOLE', 'QUADRUPOLE', 'MULLIKEN_CHARGES')
f=open( 'psi4out.xyz', 'w' )
f.write( "9  " )
f.write( str(ee) + "\n" )
f.write( MOL.save_string_xyz() )
f.close()
--------------------------------------------------------------------------

    Molecular point group: c1
  Charge       = 0
  Multiplicity = 1
  Basis Set: 6-31G*
  Basis Set:
  @DF-RHF Final Energy:  -154.06011991017573
    Total Energy =                       -154.0601199101756720
    Molecular point group: c1
  Basis Set: 6-31G*
  Basis Set:
  Basis Set: 6-31G*
  Basis Set:
  @DF-RHF Final Energy:  -154.06065914017591
    Total Energy =                       -154.0606591401759431
  Basis Set: 6-31G*
  Basis Set:
  Basis Set: 6-31G*
  Basis Set:
  @DF-RHF Final Energy:  -154.06079830811944
    Total Energy =                       -154.0607983081194448
  Basis Set: 6-31G*
  Basis Set:
  Charge       = 0
  Multiplicity = 1
  Basis Set: 6-31G*
  Basis Set:

    Orbital Energies (a.u.)
    -----------------------

    Doubly Occupied:

       1A    -20.552277     2A    -11.265634     3A    -11.264662
       4A     -1.374111     5A     -0.974889     6A     -0.872862
       7A     -0.656450     8A     -0.653264     9A     -0.642820
      10A     -0.558775    11A     -0.528062    12A     -0.472983
      13A     -0.411673

  @DF-RHF Final Energy:  -154.06079929955777

   => Energetics <=

    Nuclear Repulsion Energy =             84.4871102093343040
    One-Electron Energy =                -376.6388933897941342
    Two-Electron Energy =                 138.0909838809020016
    DFT Exchange-Correlation Energy =       0.0000000000000000
    Empirical Dispersion Energy =           0.0000000000000000
    PCM Polarization Energy =               0.0000000000000000
    EFP Energy =                            0.0000000000000000
    Total Energy =                       -154.0607992995578002
    Molecular point group: c1
  Basis Set: 6-31G*
  Basis Set:

  -Total Gradient:
     Atom            X                  Y                   Z
    ------   -----------------  -----------------  -----------------
       1        0.000016288823     0.000023498804     0.000012006400
       2        0.000743263453    -0.000388837082    -0.001001519293
       3       -0.001230778466     0.000838534990     0.001674563990
       4       -0.000027051094    -0.000060567489    -0.000017010091
       5       -0.000027696909    -0.000004034033     0.000003935931
       6        0.001195679224    -0.001190867375    -0.001810503076
       7       -0.000685383556     0.000781618536     0.001151057267
       8       -0.000025643575    -0.000006043159    -0.000011613257
       9        0.000041322101     0.000006696808    -0.000000917870

  **** Optimization is complete! (in 4 steps) ****
    Final optimized geometry and variables:
    Molecular point group: c1

    Geometry (in Angstrom), charge = 0, multiplicity = 1:

    H            1.756746018925     0.655042993811     0.846539423021
    C            0.876518967465     0.788697207430     0.232580908922
    O            0.157430428108    -0.402666755116     0.270590960771
    H            0.298863721351     1.622135217672     0.628129136257
    H            1.189921053003     1.035214426900    -0.779883290550
    C           -1.020733320312    -0.421037965249    -0.480251486464
    H           -1.106560286416     0.450589790969    -1.122738910891
    H           -1.883893133060    -0.437676840688     0.178760787072
    H           -1.036476919244    -1.312347587534    -1.096310918586

  Mulliken Charges: (a.u.)
   Center  Symbol    Alpha    Beta     Spin     Total
       1     H     0.41271  0.41271  0.00000  0.17459
       2     C     3.07889  3.07889  0.00000 -0.15779
       3     O     4.30022  4.30022  0.00000 -0.60044
       4     H     0.43029  0.43029  0.00000  0.13941
       5     H     0.42985  0.42985  0.00000  0.14030
       6     C     3.07751  3.07751  0.00000 -0.15501
       7     H     0.43028  0.43028  0.00000  0.13944
       8     H     0.42244  0.42244  0.00000  0.15512
       9     H     0.41781  0.41781  0.00000  0.16439

   Total alpha = 13.00000, Total beta = 13.00000, Total charge = -0.00000
