                              Psi4 1.0.54 Driver

  ==> Input File <==

--------------------------------------------------------------------------
set {
	reference rhf
	basis cc-pvtz
}

set_num_threads( 4 )
memory 2 gb

molecule MOL {
0 1

H	 -1.152061	 -0.000160	 0.802122
N	 -0.712187	 0.000026	 -0.093397
C	 0.734067	 -0.000020	 0.038424
H	 -1.026508	 0.815255	 -0.575112
H	 1.140372	 -0.872115	 -0.458226
H	 1.140363	 0.872301	 -0.457869
H	 1.095085	 -0.000244	 1.065614

	symmetry c1
}
set optking {
	frozen_dihedral = ("
		1 2 3 7
	")
}

ee,wfn = optimize('scf', return_wfn=True)
oeprop( wfn, 'DIPOLE', 'QUADRUPOLE', 'MULLIKEN_CHARGES')
f=open( 'psi4out.xyz', 'w' )
f.write( "7  " )
f.write( str(ee) + "\n" )
f.write( MOL.save_string_xyz() )
f.close()
--------------------------------------------------------------------------

    Molecular point group: c1
  Charge       = 0
  Multiplicity = 1
  Basis Set: CC-PVTZ
  Basis Set:
  @DF-RHF Final Energy:   -95.24977062278562
    Total Energy =                        -95.2497706227856327
    Molecular point group: c1
  Basis Set: CC-PVTZ
  Basis Set:
  Basis Set: CC-PVTZ
  Basis Set:
  @DF-RHF Final Energy:   -95.25029870330070
    Total Energy =                        -95.2502987033007855
  Basis Set: CC-PVTZ
  Basis Set:
  Basis Set: CC-PVTZ
  Basis Set:
  @DF-RHF Final Energy:   -95.25041071750134
    Total Energy =                        -95.2504107175012678
  Basis Set: CC-PVTZ
  Basis Set:
  Basis Set: CC-PVTZ
  Basis Set:
  @DF-RHF Final Energy:   -95.25041355001918
    Total Energy =                        -95.2504135500191609
  Basis Set: CC-PVTZ
  Basis Set:
  Charge       = 0
  Multiplicity = 1
  Basis Set: CC-PVTZ
  Basis Set:

    Orbital Energies (a.u.)
    -----------------------

    Doubly Occupied:

       1A    -15.526014     2A    -11.235594     3A     -1.168856
       4A     -0.898051     5A     -0.666086     6A     -0.600141
       7A     -0.560885     8A     -0.517844     9A     -0.382869

  @DF-RHF Final Energy:   -95.25041402154707

   => Energetics <=

    Nuclear Repulsion Energy =             42.3032535590066345
    One-Electron Energy =                -211.9946551238714960
    Two-Electron Energy =                  74.4409875433178172
    DFT Exchange-Correlation Energy =       0.0000000000000000
    Empirical Dispersion Energy =           0.0000000000000000
    PCM Polarization Energy =               0.0000000000000000
    EFP Energy =                            0.0000000000000000
    Total Energy =                        -95.2504140215470443
    Molecular point group: c1
  Basis Set: CC-PVTZ
  Basis Set:

  -Total Gradient:
     Atom            X                  Y                   Z
    ------   -----------------  -----------------  -----------------
       1       -0.000008122722    -0.000046317745    -0.000005807398
       2       -0.000066619861     0.000092819437     0.000000579605
       3        0.000105750537    -0.000125759191    -0.000000004444
       4        0.000000887119     0.000000183360     0.000003739749
       5       -0.000000430378     0.000018688730    -0.000002461798
       6       -0.000024194483    -0.000000369718     0.000002731891
       7       -0.000007270211     0.000060755126     0.000001222396

  **** Optimization is complete! (in 5 steps) ****
    Final optimized geometry and variables:
    Molecular point group: c1

    Geometry (in Angstrom), charge = 0, multiplicity = 1:

    H           -1.152165410975    -0.025318720672     0.829904335573
    N           -0.717720671586    -0.023189899421    -0.065450841903
    C            0.737290361759    -0.027918903645     0.037467349311
    H           -1.051303063209     0.773599571056    -0.559681917366
    H            1.154303912864    -0.905054360553    -0.443688676752
    H            1.176307856874     0.844245787124    -0.433639387116
    H            1.066329082680    -0.032838088974     1.070385258930

  Mulliken Charges: (a.u.)
   Center  Symbol    Alpha    Beta     Spin     Total
       1     H     0.42707  0.42707  0.00000  0.14585
       2     N     3.68881  3.68881  0.00000 -0.37761
       3     C     3.06894  3.06894  0.00000 -0.13787
       4     H     0.42709  0.42709  0.00000  0.14582
       5     H     0.46142  0.46142  0.00000  0.07716
       6     H     0.46341  0.46341  0.00000  0.07318
       7     H     0.46326  0.46326  0.00000  0.07347

   Total alpha =  9.00000, Total beta =  9.00000, Total charge = -0.00000

*** Psi4 exiting successfully. Buy a developer a beer!
