  ==> Input File <==

--------------------------------------------------------------------------
set {
	reference rhf
	basis 6-31G*
}

set_num_threads( 4 )
memory 2 gb

molecule MOL {
0 1

H	 2.652209	 0.763231	 0.000000
O	 2.263154	 -0.100023	 0.000000
C	 0.912879	 -0.015685	 0.000000
C	 0.202369	 -1.131929	 0.421610
C	 0.239577	 1.127065	 -0.399841
H	 0.743726	 -2.007812	 0.727503
C	 -1.178309	 -1.094166	 0.439219
H	 0.791440	 1.992563	 -0.726765
C	 -1.147297	 1.151127	 -0.377115
H	 -1.723979	 -1.961215	 0.766566
C	 -1.864747	 0.045554	 0.040777
H	 -1.662329	 2.042237	 -0.689136
H	 -2.938998	 0.067475	 0.057188

	symmetry c1
}
set optking {
	frozen_dihedral = ("
		4 3 2 1
	")
}

ee = optimize('scf')
oeprop('DIPOLE', 'QUADRUPOLE', 'MULLIKEN_CHARGES')
f=open( 'psi4out.xyz', 'w' )
f.write( "13  " )
f.write( str(ee) + "\n" )
f.write( MOL.save_string_xyz() )
f.close()
--------------------------------------------------------------------------

    Molecular point group: c1
  Charge       = 0
  Multiplicity = 1
  Basis Set: 6-31G*
  Basis Set:
  @DF-RHF Final Energy:  -305.55703127402205
    Total Energy =                       -305.5570312740222789
    Molecular point group: c1
  Basis Set: 6-31G*
  Basis Set:
  Basis Set: 6-31G*
  Basis Set:
  @DF-RHF Final Energy:  -305.55704755332977
    Total Energy =                       -305.5570475533301078
  Basis Set: 6-31G*
  Basis Set:
  Basis Set: 6-31G*
  Basis Set:
  @DF-RHF Final Energy:  -305.55705117513054
    Total Energy =                       -305.5570511751302547
  Basis Set: 6-31G*
  Basis Set:
  Charge       = 0
  Multiplicity = 1
  Basis Set: 6-31G*
  Basis Set:

    Orbital Energies (a.u.)
    -----------------------

    Doubly Occupied:

       1A    -20.588952     2A    -11.297097     3A    -11.236744
       4A    -11.234741     5A    -11.228040     6A    -11.222363
       7A    -11.222209     8A     -1.407135     9A     -1.147325
      10A     -1.018576    11A     -1.003985    12A     -0.845321
      13A     -0.822138    14A     -0.735590    15A     -0.683484
      16A     -0.649418    17A     -0.611140    18A     -0.591656
      19A     -0.588310    20A     -0.554629    21A     -0.513941
      22A     -0.490050    23A     -0.477952    24A     -0.337987
      25A     -0.310786

  @DF-RHF Final Energy:  -305.55705143299900

   => Energetics <=

    Nuclear Repulsion Energy =            273.0941236236326972
    One-Electron Energy =                -955.6632138754525840
    Two-Electron Energy =                 377.0120388188208835
    DFT Exchange-Correlation Energy =       0.0000000000000000
    Empirical Dispersion Energy =           0.0000000000000000
    PCM Polarization Energy =               0.0000000000000000
    EFP Energy =                            0.0000000000000000
    Total Energy =                       -305.5570514329990601
    Molecular point group: c1
  Basis Set: 6-31G*
  Basis Set:

  -Total Gradient:
     Atom            X                  Y                   Z
    ------   -----------------  -----------------  -----------------
       1       -0.000007006211    -0.000000173291     0.001853552771
       2        0.000035525261     0.000196632413    -0.001710558021
       3       -0.000071804104    -0.000585711492    -0.001406066178
       4       -0.000044334278     0.000431511503     0.001259280840
       5        0.000070816077    -0.000052255891    -0.000005926473
       6        0.000010472400    -0.000000598761     0.000007591249
       7        0.000082873098    -0.000060530266     0.000005857175
       8       -0.000004889210     0.000001403336    -0.000002221405
       9       -0.000091785804    -0.000039971544     0.000019832389
      10        0.000000741256     0.000004375524    -0.000003156888
      11        0.000015056572     0.000106435443    -0.000017657217
      12        0.000006739636     0.000005763423     0.000005161905
      13       -0.000002404694    -0.000006880394    -0.000005690147

  **** Optimization is complete! (in 4 steps) ****
    Final optimized geometry and variables:
    Molecular point group: c1

    Geometry (in Angstrom), charge = 0, multiplicity = 1:

    H            2.650928091960     0.762316454254    -0.022944736048
    O            2.264636688284    -0.102125350501    -0.021705266930
    C            0.911919315940    -0.019582917827    -0.015573377435
    C            0.201677606189    -1.134274261297     0.407642838184
    C            0.239441299682     1.124194144499    -0.414496770175
    H            0.742880907426    -2.008253421382     0.719097552057
    C           -1.179928810439    -1.099141361512     0.418053511920
    H            0.792925901456     1.986305332813    -0.746821377582
    C           -1.146998921438     1.149543825824    -0.390884489996
    H           -1.726159408394    -1.966179335859     0.744592679711
    C           -1.864875899705     0.041558893276     0.021739890566
    H           -1.662051074211     2.041273574985    -0.701119028291
    H           -2.939258660311     0.063565359396     0.036361336497

  Mulliken Charges: (a.u.)
   Center  Symbol    Alpha    Beta     Spin     Total
       1     H     0.27201  0.27201  0.00000  0.45599
       2     O     4.37975  4.37975  0.00000 -0.75950
       3     C     2.79645  2.79645  0.00000  0.40711
       4     C     3.12279  3.12279  0.00000 -0.24559
       5     C     3.14195  3.14195  0.00000 -0.28391
       6     H     0.39172  0.39172  0.00000  0.21655
       7     C     3.09160  3.09160  0.00000 -0.18320
       8     H     0.40362  0.40362  0.00000  0.19277
       9     C     3.09096  3.09096  0.00000 -0.18192
      10     H     0.39801  0.39801  0.00000  0.20398
      11     C     3.11235  3.11235  0.00000 -0.22470
      12     H     0.39834  0.39834  0.00000  0.20332
      13     H     0.40045  0.40045  0.00000  0.19909

   Total alpha = 25.00000, Total beta = 25.00000, Total charge = -0.00000
