  ==> Input File <==

--------------------------------------------------------------------------
set {
	reference rhf
	basis 6-31G*
}

set_num_threads( 4 )
memory 2 gb

molecule MOL {
0 1

O	 1.866321	 1.260465	 0.279680
C	 1.705091	 0.115954	 0.001797
C	 0.381791	 -0.609817	 0.001258
O	 2.695805	 -0.690650	 -0.357384
C	 -0.823008	 0.326187	 0.001381
H	 0.371250	 -1.265087	 -0.865474
H	 0.370908	 -1.265746	 0.867490
C	 -2.149452	 -0.435131	 -0.000098
H	 -0.770201	 0.977095	 -0.865636
H	 -0.771220	 0.975655	 0.869608
C	 -3.368779	 0.488503	 -0.000883
H	 -2.193746	 -1.087250	 -0.871175
H	 -2.195311	 -1.087803	 0.870418
C	 -4.693822	 -0.272754	 -0.001129
H	 -3.325798	 1.139422	 -0.871284
H	 -3.326423	 1.139959	 0.869145
H	 -4.781274	 -0.907928	 -0.878124
H	 -5.538651	 0.408946	 -0.001420
H	 -4.781694	 -0.907783	 0.875984
C	 3.996138	 -0.131840	 -0.400047
H	 4.037304	 0.681051	 -1.110710
H	 4.651119	 -0.931710	 -0.708404
H	 4.284855	 0.233841	 0.574851

	symmetry c1
}
set optking {
	frozen_dihedral = ("
		1 2 3 6
	")
}

ee = optimize('scf')
oeprop('DIPOLE', 'QUADRUPOLE', 'MULLIKEN_CHARGES')
f=open( 'psi4out.xyz', 'w' )
f.write( "23  " )
f.write( str(ee) + "\n" )
f.write( MOL.save_string_xyz() )
f.close()
--------------------------------------------------------------------------

    Molecular point group: c1
  Charge       = 0
  Multiplicity = 1
  Basis Set: 6-31G*
  Basis Set:
  @DF-RHF Final Energy:  -422.97601373810068
    Total Energy =                       -422.9760137381005052
    Molecular point group: c1
  Basis Set: 6-31G*
  Basis Set:
  Basis Set: 6-31G*
  Basis Set:
  @DF-RHF Final Energy:  -422.97504956360115
    Total Energy =                       -422.9750495636016012
  Basis Set: 6-31G*
  Basis Set:
  Basis Set: 6-31G*
  Basis Set:
  @DF-RHF Final Energy:  -422.97611305014027
    Total Energy =                       -422.9761130501406114
  Basis Set: 6-31G*
  Basis Set:
  Basis Set: 6-31G*
  Basis Set:
  @DF-RHF Final Energy:  -422.97613172777773
    Total Energy =                       -422.9761317277772150
  Basis Set: 6-31G*
  Basis Set:
  Charge       = 0
  Multiplicity = 1
  Basis Set: 6-31G*
  Basis Set:

    Orbital Energies (a.u.)
    -----------------------

    Doubly Occupied:

       1A    -20.604036     2A    -20.544971     3A    -11.372241
       4A    -11.280855     5A    -11.235405     6A    -11.219790
       7A    -11.218079     8A    -11.216623     9A    -11.209747
      10A     -1.469436    11A     -1.362596    12A     -1.093333
      13A     -1.043658    14A     -0.987074    15A     -0.932277
      16A     -0.843736    17A     -0.795229    18A     -0.767709
      19A     -0.696698    20A     -0.683540    21A     -0.671517
      22A     -0.651921    23A     -0.609036    24A     -0.599276
      25A     -0.572938    26A     -0.561457    27A     -0.554116
      28A     -0.524025    29A     -0.521731    30A     -0.507574
      31A     -0.484284    32A     -0.470153    33A     -0.466274
      34A     -0.461454    35A     -0.455846    36A     -0.434901

  @DF-RHF Final Energy:  -422.97613206336706

   => Energetics <=

    Nuclear Repulsion Energy =            452.1163642244791276
    One-Electron Energy =               -1471.9379210945280647
    Two-Electron Energy =                 596.8454248066815353
    DFT Exchange-Correlation Energy =       0.0000000000000000
    Empirical Dispersion Energy =           0.0000000000000000
    PCM Polarization Energy =               0.0000000000000000
    EFP Energy =                            0.0000000000000000
    Total Energy =                       -422.9761320633673449
    Molecular point group: c1
  Basis Set: 6-31G*
  Basis Set:

  -Total Gradient:
     Atom            X                  Y                   Z
    ------   -----------------  -----------------  -----------------
       1        0.000101504151    -0.000209340910     0.000610214800
       2       -0.000099321656     0.000188639883    -0.000872651448
       3       -0.000257277491     0.000504210295    -0.000049271017
       4       -0.000005611736     0.000018372604    -0.000069854998
       5        0.000001572812    -0.000004611273    -0.000051268869
       6        0.000268120321    -0.000438663185     0.000330492399
       7       -0.000017230422    -0.000031703407     0.000006216741
       8        0.000002528172    -0.000002302602     0.000007426279
       9        0.000005822262    -0.000006075879     0.000012078170
      10       -0.000005404276     0.000000711975     0.000000725953
      11        0.000001122821     0.000000544127     0.000010783000
      12       -0.000000432779    -0.000000718630     0.000000587949
      13        0.000001067671    -0.000000055054     0.000000170402
      14       -0.000000150412    -0.000000004284    -0.000009227447
      15        0.000001466252     0.000000942685     0.000003392416
      16       -0.000002501673     0.000000133586     0.000003494501
      17       -0.000000695029    -0.000003046379     0.000000702815
      18       -0.000000724023     0.000000268059    -0.000003579296
      19        0.000001180647     0.000003260121     0.000000539254
      20       -0.000000927244    -0.000049181557     0.000145444972
      21       -0.000033121488     0.000009748009    -0.000024290194
      22        0.000005656585     0.000010352476    -0.000022334201
      23        0.000033356529     0.000008519337    -0.000029792180

  **** Optimization is complete! (in 5 steps) ****
    Final optimized geometry and variables:
    Molecular point group: c1

    Geometry (in Angstrom), charge = 0, multiplicity = 1:

    O            1.860904106384     1.256822235036     0.302815577691
    C            1.706857665064     0.112283600143     0.020347963836
    C            0.384630520858    -0.615614878904     0.008304094046
    O            2.707914067870    -0.697075080607    -0.300713483315
    C           -0.821430411026     0.319160925316     0.032483396439
    H            0.367433247372    -1.272531800325    -0.854963273649
    H            0.381916611003    -1.269658410362     0.877917676488
    C           -2.146950461965    -0.443273844297     0.055492380744
    H           -0.787676301648     0.969743724920    -0.836967416822
    H           -0.751452756514     0.968116131221     0.898771622819
    C           -3.366780100330     0.479403400146     0.077556301095
    H           -2.207280379490    -1.096105880820    -0.813988038074
    H           -2.175325466737    -1.095120796529     0.927431038358
    C           -4.690995391141    -0.282956090139     0.101370338672
    H           -3.340534895508     1.130581892667    -0.793337330162
    H           -3.308832596942     1.130588632019     0.946812879765
    H           -4.793612169212    -0.918733295693    -0.773589955820
    H           -5.536264063207     0.398001526361     0.115865810399
    H           -4.762635215212    -0.917548412541     0.980245034529
    C            4.011585837502    -0.144448708666    -0.283560038152
    H            4.086788693918     0.672163373040    -0.987054653579
    H            4.675535986865    -0.945730823513    -0.568295775288
    H            4.259777400708     0.214372733401     0.704974915125

  Mulliken Charges: (a.u.)
   Center  Symbol    Alpha    Beta     Spin     Total
       1     O     4.28631  4.28631  0.00000 -0.57262
       2     C     2.60428  2.60428  0.00000  0.79145
       3     C     3.20875  3.20875  0.00000 -0.41750
       4     O     4.30722  4.30722  0.00000 -0.61444
       5     C     3.15351  3.15351  0.00000 -0.30701
       6     H     0.40085  0.40085  0.00000  0.19830
       7     H     0.40032  0.40032  0.00000  0.19936
       8     C     3.15322  3.15322  0.00000 -0.30644
       9     H     0.41497  0.41497  0.00000  0.17005
      10     H     0.40790  0.40790  0.00000  0.18419
      11     C     3.15162  3.15162  0.00000 -0.30324
      12     H     0.42392  0.42392  0.00000  0.15216
      13     H     0.42382  0.42382  0.00000  0.15236
      14     C     3.23960  3.23960  0.00000 -0.47920
      15     H     0.42162  0.42162  0.00000  0.15677
      16     H     0.42102  0.42102  0.00000  0.15796
      17     H     0.42185  0.42185  0.00000  0.15631
      18     H     0.41845  0.41845  0.00000  0.16309
      19     H     0.42172  0.42172  0.00000  0.15655
      20     C     3.09267  3.09267  0.00000 -0.18533
      21     H     0.40871  0.40871  0.00000  0.18259
      22     H     0.40841  0.40841  0.00000  0.18318
      23     H     0.40926  0.40926  0.00000  0.18148

   Total alpha = 36.00000, Total beta = 36.00000, Total charge = -0.00000
