  ==> Input File <==

--------------------------------------------------------------------------
set {
	reference rhf
	basis 6-31G*
}

set_num_threads( 1 )
memory 2 gb

molecule MOL {
0 1

H	 2.332611	 0.720374	 1.175775
O	 1.467935	 0.326028	 1.235900
C	 1.050492	 0.053836	 0.000068
C	 -0.318135	 -0.576402	 0.000164
O	 1.710068	 0.295636	 -0.957789
C	 -1.454360	 0.441875	 -0.000474
H	 -0.374042	 -1.230163	 -0.866135
H	 -0.374274	 -1.229227	 0.867154
C	 -2.826123	 -0.230780	 0.000056
H	 -1.357605	 1.085198	 -0.868380
H	 -1.357504	 1.086451	 0.866496
H	 -2.959731	 -0.858053	 -0.876869
H	 -3.619374	 0.509403	 -0.000080
H	 -2.959371	 -0.857318	 0.877556

	symmetry c1
}
set optking {
	frozen_dihedral = ("
		7 4 6 10,
		1 2 3 5
	")
}

ee = energy('scf')
oeprop('DIPOLE', 'QUADRUPOLE', 'MULLIKEN_CHARGES')
f=open( 'psi4out.xyz', 'w' )
f.write( "14  " )
f.write( str(ee) + "\n" )
f.write( MOL.save_string_xyz() )
f.close()
--------------------------------------------------------------------------

    Molecular point group: c1

    Geometry (in Angstrom), charge = 0, multiplicity = 1:

       Center              X                  Y                   Z               Mass
    ------------   -----------------  -----------------  -----------------  -----------------
           H          2.360985036980     0.658746805135     1.111826223229     1.007825032070
           O          1.496309036980     0.264400805135     1.171951223229    15.994914619560
           C          1.078866036980    -0.007791194865    -0.063880776771    12.000000000000
           C         -0.289760963020    -0.638029194865    -0.063784776771    12.000000000000
           O          1.738442036980     0.234008805135    -1.021737776771    15.994914619560
           C         -1.425985963020     0.380247805135    -0.064422776771    12.000000000000
           H         -0.345667963020    -1.291790194865    -0.930083776771     1.007825032070
           H         -0.345899963020    -1.290854194865     0.803205223229     1.007825032070
           C         -2.797748963020    -0.292407194865    -0.063892776771    12.000000000000
           H         -1.329230963020     1.023570805135    -0.932328776771     1.007825032070
           H         -1.329129963020     1.024823805135     0.802547223229     1.007825032070
           H         -2.931356963020    -0.919680194865    -0.940817776771     1.007825032070
           H         -3.590999963020     0.447775805135    -0.064028776771     1.007825032070
           H         -2.930996963020    -0.918945194865     0.813607223229     1.007825032070

  Charge       = 0
  Multiplicity = 1
  Basis Set: 6-31G*
  Basis Set:

    Orbital Energies (a.u.)
    -----------------------

    Doubly Occupied:

       1A    -20.613280     2A    -20.550151     3A    -11.380312
       4A    -11.239156     5A    -11.236118     6A    -11.221869
       7A     -1.474340     8A     -1.364777     9A     -1.087535
      10A     -0.980190    11A     -0.853789    12A     -0.808604
      13A     -0.701985    14A     -0.684986    15A     -0.638787
      16A     -0.637569    17A     -0.594601    18A     -0.568251
      19A     -0.549868    20A     -0.518710    21A     -0.501247
      22A     -0.488266    23A     -0.472542    24A     -0.438432

  @DF-RHF Final Energy:  -305.87861863213811

   => Energetics <=

    Nuclear Repulsion Energy =            240.0328494046168828
    One-Electron Energy =                -892.6121678725950233
    Two-Electron Energy =                 346.7006998358400551
    DFT Exchange-Correlation Energy =       0.0000000000000000
    Empirical Dispersion Energy =           0.0000000000000000
    PCM Polarization Energy =               0.0000000000000000
    EFP Energy =                            0.0000000000000000
    Total Energy =                       -305.8786186321381138

  Mulliken Charges: (a.u.)
   Center  Symbol    Alpha    Beta     Spin     Total
       1     H     0.26811  0.26811  0.00000  0.46378
       2     O     4.34688  4.34688  0.00000 -0.69376
       3     C     2.63443  2.63443  0.00000  0.73115
       4     C     3.19714  3.19714  0.00000 -0.39428
       5     O     4.27778  4.27778  0.00000 -0.55556
       6     C     3.16366  3.16366  0.00000 -0.32732
       7     H     0.39942  0.39942  0.00000  0.20116
       8     H     0.40280  0.40280  0.00000  0.19439
       9     C     3.24190  3.24190  0.00000 -0.48379
      10     H     0.40825  0.40825  0.00000  0.18350
      11     H     0.40971  0.40971  0.00000  0.18057
      12     H     0.41751  0.41751  0.00000  0.16497
      13     H     0.41421  0.41421  0.00000  0.17157
      14     H     0.41820  0.41820  0.00000  0.16360

   Total alpha = 24.00000, Total beta = 24.00000, Total charge =  0.00000
