  ==> Input File <==

--------------------------------------------------------------------------
set {
	reference rhf
	basis cc-pvtz
}

set_num_threads( 4 )
memory 2 gb

molecule MOL {
0 1

H	 3.273419	 0.176595	 -0.102789
N	 2.433987	 -0.362316	 -0.080024
C	 1.263552	 0.494993	 0.021953
H	 2.497638	 -0.973615	 0.707122
C	 -0.016533	 -0.325589	 -0.026925
H	 1.280915	 1.180773	 -0.818522
H	 1.263064	 1.106893	 0.925038
C	 -1.280353	 0.525521	 0.047747
H	 -0.016686	 -0.912532	 -0.939714
H	 -0.014099	 -1.037598	 0.796369
C	 -1.447575	 1.228850	 1.390638
H	 -2.147444	 -0.102542	 -0.138410
H	 -1.265985	 1.267162	 -0.746379
H	 -1.499336	 0.512131	 2.203266
H	 -2.354910	 1.821440	 1.413676
H	 -0.613503	 1.893286	 1.590708

	symmetry c1
}
set optking {
	frozen_dihedral = ("
		12 8 5 9
	")
}

ee = optimize('scf')
oeprop('DIPOLE', 'QUADRUPOLE', 'MULLIKEN_CHARGES')
f=open( 'psi4out.xyz', 'w' )
f.write( "16  " )
f.write( str(ee) + "\n" )
f.write( MOL.save_string_xyz() )
f.close()
--------------------------------------------------------------------------

    Molecular point group: c1
  Charge       = 0
  Multiplicity = 1
  Basis Set: CC-PVTZ
  Basis Set:
  @DF-RHF Final Energy:  -212.39772962749251
    Total Energy =                       -212.3977296274924811
    Molecular point group: c1
  Basis Set: CC-PVTZ
  Basis Set:
  Basis Set: CC-PVTZ
  Basis Set:
  @DF-RHF Final Energy:  -212.39816694322099
    Total Energy =                       -212.3981669432209856
  Basis Set: CC-PVTZ
  Basis Set:
  Basis Set: CC-PVTZ
  Basis Set:
  @DF-RHF Final Energy:  -212.39838394507186
    Total Energy =                       -212.3983839450719415
  Basis Set: CC-PVTZ
  Basis Set:
  Basis Set: CC-PVTZ
  Basis Set:
  @DF-RHF Final Energy:  -212.39839209826621
    Total Energy =                       -212.3983920982659583
  Basis Set: CC-PVTZ
  Basis Set:
  Charge       = 0
  Multiplicity = 1
  Basis Set: CC-PVTZ
  Basis Set:

    Orbital Energies (a.u.)
    -----------------------

    Doubly Occupied:

       1A    -15.526326     2A    -11.237483     3A    -11.213472
       4A    -11.208257     5A    -11.206558     6A     -1.178002
       7A     -1.059723     8A     -0.956628     9A     -0.858108
      10A     -0.781657    11A     -0.656823    12A     -0.638504
      13A     -0.621460    14A     -0.566694    15A     -0.564944
      16A     -0.535469    17A     -0.500932    18A     -0.467352
      19A     -0.465797    20A     -0.461094    21A     -0.383293

  @DF-RHF Final Energy:  -212.39839248114427

   => Energetics <=

    Nuclear Repulsion Energy =            188.7761876921151440
    One-Electron Energy =                -660.1720075293007994
    Two-Electron Energy =                 258.9974273560412712
    DFT Exchange-Correlation Energy =       0.0000000000000000
    Empirical Dispersion Energy =           0.0000000000000000
    PCM Polarization Energy =               0.0000000000000000
    EFP Energy =                            0.0000000000000000
    Total Energy =                       -212.3983924811443558
    Molecular point group: c1
  Basis Set: CC-PVTZ
  Basis Set:

  -Total Gradient:
     Atom            X                  Y                   Z
    ------   -----------------  -----------------  -----------------
       1       -0.000011728860     0.000004596088    -0.000009846867
       2       -0.000021989024    -0.000002685860     0.000000997282
       3        0.000007533296    -0.000002014433     0.000016043180
       4       -0.000002035249     0.000007370395    -0.000001623571
       5       -0.000034453202    -0.000049400356     0.000032066261
       6        0.000008710950    -0.000003865905     0.000003437557
       7       -0.000008786925     0.000009558296     0.000005542639
       8        0.000036738253     0.000030432504    -0.000065652337
       9        0.000013973146     0.000021799405    -0.000015625511
      10        0.000014734819    -0.000006571603     0.000003169703
      11       -0.000001934970    -0.000011868839     0.000005989498
      12        0.000002285836    -0.000007150768     0.000039911542
      13       -0.000009578451     0.000014548311    -0.000008407872
      14        0.000001714476     0.000002773332     0.000002273455
      15        0.000001048774    -0.000001510182    -0.000002051837
      16        0.000003767129    -0.000006010387    -0.000006223123

  **** Optimization is complete! (in 5 steps) ****
    Final optimized geometry and variables:
    Molecular point group: c1

    Geometry (in Angstrom), charge = 0, multiplicity = 1:

    H            3.064362674607    -0.185659152564    -0.436998359478
    N            2.213007687344    -0.705922692487    -0.417891597984
    C            1.066342468248     0.174659150890    -0.249235437297
    H            2.280433595806    -1.350385288641     0.342195486511
    C           -0.229294703439    -0.624749003082    -0.289071562094
    H            1.070172818400     0.884547221448    -1.070082092778
    H            1.118179655917     0.755989681984     0.669640689039
    C           -1.503523290476     0.218240846548    -0.223739477858
    H           -0.230813389723    -1.206515347225    -1.204093664823
    H           -0.231091985828    -1.341373041353     0.530492934312
    C           -1.733732094284     0.935697303694     1.104823082620
    H           -2.350959783008    -0.431688216696    -0.417081404298
    H           -1.493278087046     0.946877968033    -1.030175663552
    H           -1.740841024761     0.231678321714     1.930873159554
    H           -2.688032789204     1.449970344149     1.102949647611
    H           -0.967574703593     1.674293556750     1.307229187580

  Mulliken Charges: (a.u.)
   Center  Symbol    Alpha    Beta     Spin     Total
       1     H     0.43007  0.43007  0.00000  0.13985
       2     N     3.69034  3.69034  0.00000 -0.38068
       3     C     3.02628  3.02628  0.00000 -0.05255
       4     H     0.43064  0.43064  0.00000  0.13871
       5     C     3.08932  3.08932  0.00000 -0.17865
       6     H     0.45744  0.45744  0.00000  0.08512
       7     H     0.46557  0.46557  0.00000  0.06885
       8     C     3.09449  3.09449  0.00000 -0.18898
       9     H     0.44392  0.44392  0.00000  0.11216
      10     H     0.45999  0.45999  0.00000  0.08001
      11     C     3.15188  3.15188  0.00000 -0.30376
      12     H     0.44827  0.44827  0.00000  0.10346
      13     H     0.45445  0.45445  0.00000  0.09109
      14     H     0.45542  0.45542  0.00000  0.08917
      15     H     0.44681  0.44681  0.00000  0.10637
      16     H     0.45510  0.45510  0.00000  0.08980

   Total alpha = 21.00000, Total beta = 21.00000, Total charge =  0.00000
