  ==> Input File <==

--------------------------------------------------------------------------
set {
	reference rhf
	basis 6-31G*
}

set_num_threads( 1 )
memory 2 gb

molecule MOL {
0 1

O	 0.749854	 1.307668	 -0.000040
C	 0.576249	 0.131685	 -0.000108
C	 -0.766779	 -0.556801	 -0.000461
O	 1.568443	 -0.749345	 -0.000005
C	 -1.945214	 0.412366	 0.000161
H	 -0.796911	 -1.211249	 -0.867467
H	 -0.796854	 -1.212390	 0.865687
C	 -2.180885	 1.027976	 1.378585
H	 -2.837451	 -0.108712	 -0.329980
H	 -1.765258	 1.195153	 -0.728836
H	 -2.394837	 0.264696	 2.121606
H	 -3.022315	 1.712787	 1.357845
H	 -1.311227	 1.583930	 1.717826
C	 2.886820	 -0.232538	 0.000322
H	 3.059106	 0.369571	 -0.880203
H	 3.540187	 -1.091012	 0.000050
H	 3.059019	 0.368956	 0.881266

	symmetry c1
}
set optking {
	frozen_dihedral = ("
		1 2 3 6,
		14 4 2 1
	")
}

ee = energy('scf')
oeprop('DIPOLE', 'QUADRUPOLE', 'MULLIKEN_CHARGES')
f=open( 'psi4out.xyz', 'w' )
f.write( "17  " )
f.write( str(ee) + "\n" )
f.write( MOL.save_string_xyz() )
f.close()
--------------------------------------------------------------------------

    Molecular point group: c1

    Geometry (in Angstrom), charge = 0, multiplicity = 1:

       Center              X                  Y                   Z               Mass
    ------------   -----------------  -----------------  -----------------  -----------------
           O          0.586912237390     1.109673081808    -0.202957902335    15.994914619560
           C          0.413307237390    -0.066309918192    -0.203025902335    12.000000000000
           C         -0.929720762610    -0.754795918192    -0.203378902335    12.000000000000
           O          1.405501237390    -0.947339918192    -0.202922902335    15.994914619560
           C         -2.108155762610     0.214371081808    -0.202756902335    12.000000000000
           H         -0.959852762610    -1.409243918192    -1.070384902335     1.007825032070
           H         -0.959795762610    -1.410384918192     0.662769097665     1.007825032070
           C         -2.343826762610     0.829981081808     1.175667097665    12.000000000000
           H         -3.000392762610    -0.306706918192    -0.532897902335     1.007825032070
           H         -1.928199762610     0.997158081808    -0.931753902335     1.007825032070
           H         -2.557778762610     0.066701081808     1.918688097665     1.007825032070
           H         -3.185256762610     1.514792081808     1.154927097665     1.007825032070
           H         -1.474168762610     1.385935081808     1.514908097665     1.007825032070
           C          2.723878237390    -0.430532918192    -0.202595902335    12.000000000000
           H          2.896164237390     0.171576081808    -1.083120902335     1.007825032070
           H          3.377245237390    -1.289006918192    -0.202867902335     1.007825032070
           H          2.896077237390     0.170961081808     0.678348097665     1.007825032070

  Charge       = 0
  Multiplicity = 1
  Basis Set: 6-31G*
  Basis Set:

    Orbital Energies (a.u.)
    -----------------------

    Doubly Occupied:

       1A    -20.604907     2A    -20.546967     3A    -11.373611
       4A    -11.281696     5A    -11.235651     6A    -11.221285
       7A    -11.206732     8A     -1.470736     9A     -1.364483
      10A     -1.079650    11A     -0.999353    12A     -0.937165
      13A     -0.829221    14A     -0.766741    15A     -0.702538
      16A     -0.682100    17A     -0.672400    18A     -0.617063
      19A     -0.616111    20A     -0.567487    21A     -0.564112
      22A     -0.533694    23A     -0.523469    24A     -0.488101
      25A     -0.483643    26A     -0.480908    27A     -0.456923
      28A     -0.437740

  @DF-RHF Final Energy:  -344.90594149112002

   => Energetics <=

    Nuclear Repulsion Energy =            318.1068066272591182
    One-Electron Energy =               -1100.5365138108229530
    Two-Electron Energy =                 437.5237656924431917
    DFT Exchange-Correlation Energy =       0.0000000000000000
    Empirical Dispersion Energy =           0.0000000000000000
    PCM Polarization Energy =               0.0000000000000000
    EFP Energy =                            0.0000000000000000
    Total Energy =                       -344.9059414911205863

  Mulliken Charges: (a.u.)
   Center  Symbol    Alpha    Beta     Spin     Total
       1     O     4.28596  4.28596  0.00000 -0.57193
       2     C     2.60689  2.60689  0.00000  0.78622
       3     C     3.20810  3.20810  0.00000 -0.41621
       4     O     4.30635  4.30635  0.00000 -0.61270
       5     C     3.15447  3.15447  0.00000 -0.30895
       6     H     0.39841  0.39841  0.00000  0.20318
       7     H     0.40046  0.40046  0.00000  0.19909
       8     C     3.24617  3.24617  0.00000 -0.49234
       9     H     0.41815  0.41815  0.00000  0.16371
      10     H     0.40669  0.40669  0.00000  0.18661
      11     H     0.42501  0.42501  0.00000  0.14998
      12     H     0.41821  0.41821  0.00000  0.16357
      13     H     0.40650  0.40650  0.00000  0.18701
      14     C     3.09247  3.09247  0.00000 -0.18495
      15     H     0.40890  0.40890  0.00000  0.18220
      16     H     0.40823  0.40823  0.00000  0.18354
      17     H     0.40902  0.40902  0.00000  0.18196

   Total alpha = 28.00000, Total beta = 28.00000, Total charge =  0.00000
