                              Psi4 1.0.54 Driver

  ==> Input File <==

--------------------------------------------------------------------------
set {
	reference rhf
	basis cc-pvtz
}

set_num_threads( 4 )
memory 2 gb

molecule MOL {
0 1

O	 -2.440701	 -0.934798	 -0.415053
C	 -1.922978	 0.063265	 -0.045005
C	 -2.632749	 1.372204	 0.158357
O	 -0.637375	 0.157174	 0.243149
H	 -2.187724	 2.129143	 -0.474664
H	 -3.677681	 1.257276	 -0.079438
H	 -2.516788	 1.693160	 1.185542
C	 0.162530	 -1.009518	 0.097799
C	 1.587210	 -0.664190	 0.477086
H	 0.096803	 -1.356267	 -0.924704
H	 -0.233803	 -1.785900	 0.736810
C	 2.256770	 0.342732	 -0.454344
H	 2.154716	 -1.590834	 0.479041
H	 1.598751	 -0.289614	 1.496104
C	 3.385985	 -0.273930	 -1.273011
H	 1.509885	 0.758745	 -1.125311
H	 2.642466	 1.170902	 0.128937
H	 3.840483	 0.460500	 -1.927557
H	 3.024148	 -1.088850	 -1.891374
H	 4.164620	 -0.669455	 -0.629346

	symmetry c1
}
set optking {
	frozen_dihedral = ("
		16 12 9 8
	")
}

ee,wfn = optimize('scf', return_wfn=True)
oeprop( wfn, 'DIPOLE', 'QUADRUPOLE', 'MULLIKEN_CHARGES')
f=open( 'psi4out.xyz', 'w' )
f.write( "20  " )
f.write( str(ee) + "\n" )
f.write( MOL.save_string_xyz() )
f.close()
--------------------------------------------------------------------------

    Molecular point group: c1
  Charge       = 0
  Multiplicity = 1
  Basis Set: CC-PVTZ
  Basis Set:
  @DF-RHF Final Energy:  -384.08220138956352
    Total Energy =                       -384.0822013895631244
    Molecular point group: c1
  Basis Set: CC-PVTZ
  Basis Set:
  Basis Set: CC-PVTZ
  Basis Set:
  @DF-RHF Final Energy:  -384.08241426050495
    Total Energy =                       -384.0824142605048337
  Basis Set: CC-PVTZ
  Basis Set:
  Basis Set: CC-PVTZ
  Basis Set:
  @DF-RHF Final Energy:  -384.08231549926870
    Total Energy =                       -384.0823154992688160
  Basis Set: CC-PVTZ
  Basis Set:
  Basis Set: CC-PVTZ
  Basis Set:
  @DF-RHF Final Energy:  -384.08248483744705
    Total Energy =                       -384.0824848374469411
  Basis Set: CC-PVTZ
  Basis Set:
  Basis Set: CC-PVTZ
  Basis Set:
  @DF-RHF Final Energy:  -384.08248610858141
    Total Energy =                       -384.0824861085809516
  Basis Set: CC-PVTZ
  Basis Set:
  Charge       = 0
  Multiplicity = 1
  Basis Set: CC-PVTZ
  Basis Set:

    Orbital Energies (a.u.)
    -----------------------

    Doubly Occupied:

       1A    -20.594406     2A    -20.532756     3A    -11.366750
       4A    -11.280444     5A    -11.231675     6A    -11.223181
       7A    -11.219190     8A    -11.212086     9A     -1.471131
      10A     -1.365295    11A     -1.085292    12A     -1.028573
      13A     -0.981651    14A     -0.882825    15A     -0.813109
      16A     -0.774408    17A     -0.692683    18A     -0.690500
      19A     -0.669354    20A     -0.626287    21A     -0.606558
      22A     -0.588222    23A     -0.574218    24A     -0.560381
      25A     -0.543113    26A     -0.530135    27A     -0.514266
      28A     -0.485005    29A     -0.476095    30A     -0.468920
      31A     -0.451339    32A     -0.441891

  @DF-RHF Final Energy:  -384.08248637383906

   => Energetics <=

    Nuclear Repulsion Energy =            386.6778454233407274
    One-Electron Energy =               -1289.5571899191281773
    Two-Electron Energy =                 518.7968581219481621
    DFT Exchange-Correlation Energy =       0.0000000000000000
    Empirical Dispersion Energy =           0.0000000000000000
    PCM Polarization Energy =               0.0000000000000000
    EFP Energy =                            0.0000000000000000
    Total Energy =                       -384.0824863738392878
    Molecular point group: c1
  Basis Set: CC-PVTZ
  Basis Set:

  -Total Gradient:
     Atom            X                  Y                   Z
    ------   -----------------  -----------------  -----------------
       1       -0.000071706572    -0.000117457123    -0.000049160948
       2        0.000029045384     0.000075971540     0.000059374248
       3        0.000031892761    -0.000001770752    -0.000006047675
       4        0.000031588318    -0.000010866976     0.000043211116
       5        0.000012332879     0.000026986616    -0.000017614380
       6       -0.000045508917    -0.000006514639    -0.000013190755
       7        0.000004478512     0.000008634746     0.000028248337
       8       -0.000338927490     0.000828548186     0.000418424098
       9        0.000538626754    -0.001361250351    -0.000891942828
      10       -0.000009836606    -0.000014226355     0.000014345331
      11       -0.000006443956    -0.000001310316     0.000027101681
      12       -0.000477389932     0.001631372002     0.001256866411
      13        0.000011147319     0.000030057141     0.000002155522
      14        0.000007027638    -0.000007189597    -0.000021232040
      15        0.000027537625    -0.000028641485     0.000002371755
      16        0.000277949849    -0.001037372711    -0.000864379736
      17       -0.000008020150    -0.000011837525     0.000008962746
      18       -0.000024218019     0.000004208584     0.000013319293
      19        0.000008475395     0.000000438342     0.000000779421
      20        0.000001949199    -0.000007779329    -0.000011591596

  **** Optimization is complete! (in 6 steps) ****
    Final optimized geometry and variables:
    Molecular point group: c1

    Geometry (in Angstrom), charge = 0, multiplicity = 1:

    O           -2.396093072733    -0.806383378421    -0.291637360305
    C           -1.881589632654     0.183773912082     0.103408552603
    C           -2.589880952680     1.491972196952     0.314556622007
    O           -0.600589348044     0.268183459028     0.414550880932
    H           -2.130478772988     2.256809024049    -0.298381512600
    H           -3.630946914672     1.385080602369     0.056558134431
    H           -2.490705748279     1.796084117583     1.348580532865
    C            0.197767311510    -0.898780269429     0.265176836755
    C            1.620064080858    -0.549676975226     0.650519743130
    H            0.133441103940    -1.240778027085    -0.759229683498
    H           -0.200110574638    -1.677843234903     0.900185429800
    C            2.299586540517     0.461907398396    -0.293901006247
    H            2.185590888831    -1.475509218730     0.673363773175
    H            1.609961524200    -0.172381016674     1.666504370980
    C            3.433300461384    -0.149865842575    -1.113172312042
    H            1.562293313495     0.874870711457    -0.972529015833
    H            2.685145010797     1.297223859186     0.278133165356
    H            3.874061989373     0.582233287515    -1.780018865085
    H            3.076807700810    -0.976405156018    -1.719562888640
    H            4.220389000099    -0.529476583142    -0.470231295940

  Mulliken Charges: (a.u.)
   Center  Symbol    Alpha    Beta     Spin     Total
       1     O     4.19719  4.19719  0.00000 -0.39438
       2     C     2.80887  2.80887  0.00000  0.38226
       3     C     3.13802  3.13802  0.00000 -0.27605
       4     O     4.15343  4.15343  0.00000 -0.30687
       5     H     0.44609  0.44609  0.00000  0.10781
       6     H     0.43804  0.43804  0.00000  0.12391
       7     H     0.44569  0.44569  0.00000  0.10863
       8     C     2.99370  2.99370  0.00000  0.01260
       9     C     3.09072  3.09072  0.00000 -0.18144
      10     H     0.45093  0.45093  0.00000  0.09814
      11     H     0.44449  0.44449  0.00000  0.11102
      12     C     3.08938  3.08938  0.00000 -0.17875
      13     H     0.45132  0.45132  0.00000  0.09736
      14     H     0.44703  0.44703  0.00000  0.10594
      15     C     3.14763  3.14763  0.00000 -0.29525
      16     H     0.45092  0.45092  0.00000  0.09816
      17     H     0.44823  0.44823  0.00000  0.10353
      18     H     0.44848  0.44848  0.00000  0.10305
      19     H     0.45512  0.45512  0.00000  0.08977
      20     H     0.45472  0.45472  0.00000  0.09056

   Total alpha = 32.00000, Total beta = 32.00000, Total charge =  0.00000

*** Psi4 exiting successfully. Buy a developer a beer!
