  ==> Input File <==

--------------------------------------------------------------------------
set {
	reference rhf
	basis 6-31G*
}

set_num_threads( 4 )
memory 2 gb

molecule MOL {
0 1

O	 -1.487788	 1.240889	 -0.102860
C	 -1.083277	 0.139568	 0.115197
C	 0.323299	 -0.082943	 0.642902
C	 -1.933017	 -1.084621	 -0.143902
C	 1.355627	 -0.005344	 -0.493127
H	 0.396251	 -1.044647	 1.143147
H	 0.528637	 0.693580	 1.371677
C	 2.355789	 1.131694	 -0.292956
H	 1.892066	 -0.948782	 -0.566823
H	 0.827370	 0.127235	 -1.431481
H	 3.069239	 1.169147	 -1.109827
H	 2.914559	 1.007201	 0.630137
H	 1.851162	 2.092128	 -0.248624
H	 -1.393885	 -1.806447	 -0.750509
H	 -2.850323	 -0.799888	 -0.640100
H	 -2.169004	 -1.571158	 0.798858

	symmetry c1
}
set optking {
	frozen_dihedral = ("
		9 5 3 2
	")
}

ee = optimize('scf')
oeprop('DIPOLE', 'QUADRUPOLE', 'MULLIKEN_CHARGES')
f=open( 'psi4out.xyz', 'w' )
f.write( "16  " )
f.write( str(ee) + "\n" )
f.write( MOL.save_string_xyz() )
f.close()
--------------------------------------------------------------------------

    Molecular point group: c1
  Charge       = 0
  Multiplicity = 1
  Basis Set: 6-31G*
  Basis Set:
  @DF-RHF Final Energy:  -270.02431585316350
    Total Energy =                       -270.0243158531636709
    Molecular point group: c1
  Basis Set: 6-31G*
  Basis Set:
  Basis Set: 6-31G*
  Basis Set:
  @DF-RHF Final Energy:  -270.02445987426461
    Total Energy =                       -270.0244598742645508
  Basis Set: 6-31G*
  Basis Set:
  Basis Set: 6-31G*
  Basis Set:
  @DF-RHF Final Energy:  -270.02223078575355
    Total Energy =                       -270.0222307857536634
  Basis Set: 6-31G*
  Basis Set:
  Basis Set: 6-31G*
  Basis Set:
  @DF-RHF Final Energy:  -270.02485220110168
    Total Energy =                       -270.0248522011016235
  Basis Set: 6-31G*
  Basis Set:
  @DF-RHF Final Energy:  -270.02496953410810
    Total Energy =                       -270.0249695341080951
  @DF-RHF Final Energy:  -270.02500856814936
    Total Energy =                       -270.0250085681492465
  Basis Set: 6-31G*
  Basis Set:
  @DF-RHF Final Energy:  -270.02502311746116
    Total Energy =                       -270.0250231174608757
  Basis Set: 6-31G*
  Basis Set:
  Basis Set: 6-31G*
  Basis Set:
  @DF-RHF Final Energy:  -270.02503528475421
    Total Energy =                       -270.0250352847541535
  Basis Set: 6-31G*
  Basis Set:
  Basis Set: 6-31G*
  Basis Set:
  @DF-RHF Final Energy:  -270.02503781961980
    Total Energy =                       -270.0250378196199108
  Basis Set: 6-31G*
  Basis Set:
  Charge       = 0
  Multiplicity = 1
  Basis Set: 6-31G*
  Basis Set:

    Orbital Energies (a.u.)
    -----------------------

    Doubly Occupied:

       1A    -20.547806     2A    -11.324693     3A    -11.235732
       4A    -11.229546     5A    -11.228157     6A    -11.217453
       7A     -1.393312     8A     -1.080751     9A     -1.011828
      10A     -0.948345    11A     -0.831862    12A     -0.735267
      13A     -0.657932    14A     -0.642458    15A     -0.619155
      16A     -0.597900    17A     -0.581202    18A     -0.556647
      19A     -0.543361    20A     -0.512675    21A     -0.497385
      22A     -0.485025    23A     -0.472460    24A     -0.397611

  @DF-RHF Final Energy:  -270.02503816110891

   => Energetics <=

    Nuclear Repulsion Energy =            238.1512609295387506
    One-Electron Energy =                -837.6554761904804991
    Two-Electron Energy =                 329.4791770998329525
    DFT Exchange-Correlation Energy =       0.0000000000000000
    Empirical Dispersion Energy =           0.0000000000000000
    PCM Polarization Energy =               0.0000000000000000
    EFP Energy =                            0.0000000000000000
    Total Energy =                       -270.0250381611087391
    Molecular point group: c1
  Basis Set: 6-31G*
  Basis Set:

  -Total Gradient:
     Atom            X                  Y                   Z
    ------   -----------------  -----------------  -----------------
       1        0.000002550448    -0.000011197273     0.000015624822
       2       -0.000038899256    -0.000188808580    -0.000030946703
       3        0.000027001289     0.000248276970    -0.000083139768
       4       -0.000024628780    -0.000009847605     0.000022089730
       5        0.000221677415     0.000059561237     0.000225959448
       6       -0.000012031591    -0.000000768108     0.000015709015
       7       -0.000010415972     0.000002377405     0.000016023828
       8        0.000002112807    -0.000004841906    -0.000005255762
       9       -0.000193449959    -0.000099804570    -0.000172641970
      10        0.000005212546     0.000000509942     0.000002835345
      11        0.000006278032    -0.000001138356     0.000002395332
      12       -0.000003774757     0.000001999528     0.000008844452
      13        0.000002477040    -0.000002193413    -0.000010168823
      14        0.000004603571     0.000005039494    -0.000003907072
      15        0.000004442012     0.000005785619     0.000000026168
      16        0.000006845158    -0.000004950385    -0.000003448042

  **** Optimization is complete! (in 10 steps) ****
    Final optimized geometry and variables:
    Molecular point group: c1

    Geometry (in Angstrom), charge = 0, multiplicity = 1:

    O           -1.532275449010     1.010700079382     0.233569369488
    C           -1.012957035753    -0.063602197064     0.229084423991
    C            0.409332105766    -0.258005621865     0.719027645349
    C           -1.739391477955    -1.291414172632    -0.278340354033
    C            1.422204229432    -0.291848085413    -0.458941139687
    H            0.471486503560    -1.177768004889     1.292699902841
    H            0.634722233100     0.564368763812     1.386232827760
    C            2.436217248818     0.849558539293    -0.395931442888
    H            1.944740740392    -1.242709024172    -0.465347113257
    H            0.895106018138    -0.235107059207    -1.407625193788
    H            3.124843728675     0.804506900089    -1.233756659592
    H            3.020047396464     0.803145053826     0.518507597886
    H            1.935497797197     1.812018211821    -0.423481486282
    H           -1.117553616185    -1.865374378919    -0.958165345787
    H           -2.655123619806    -0.999957077502    -0.773719459943
    H           -1.979112419410    -1.938253404541     0.561703855034

  Mulliken Charges: (a.u.)
   Center  Symbol    Alpha    Beta     Spin     Total
       1     O     4.26028  4.26028  0.00000 -0.52056
       2     C     2.74093  2.74093  0.00000  0.51813
       3     C     3.20427  3.20427  0.00000 -0.40854
       4     C     3.28938  3.28938  0.00000 -0.57877
       5     C     3.16161  3.16161  0.00000 -0.32322
       6     H     0.41309  0.41309  0.00000  0.17382
       7     H     0.39783  0.39783  0.00000  0.20434
       8     C     3.24078  3.24078  0.00000 -0.48155
       9     H     0.41539  0.41539  0.00000  0.16922
      10     H     0.41454  0.41454  0.00000  0.17092
      11     H     0.41783  0.41783  0.00000  0.16435
      12     H     0.41938  0.41938  0.00000  0.16123
      13     H     0.41166  0.41166  0.00000  0.17669
      14     H     0.40973  0.40973  0.00000  0.18054
      15     H     0.39690  0.39690  0.00000  0.20621
      16     H     0.40641  0.40641  0.00000  0.18719

   Total alpha = 24.00000, Total beta = 24.00000, Total charge = -0.00000
