  ==> Input File <==

--------------------------------------------------------------------------
set {
	reference rhf
	basis 6-31G*
}

set_num_threads( 4 )
memory 2 gb

molecule MOL {
0 1

H	 -3.892951	 0.981613	 -0.358725
C	 -3.196921	 0.361773	 0.172313
C	 -2.076860	 -0.007332	 -0.404944
H	 -3.439953	 0.057760	 1.173024
O	 -2.063673	 -0.712122	 -1.566821
H	 -1.108737	 0.240570	 -0.006851
C	 -0.852202	 -1.213538	 -2.017120
C	 -0.547839	 -2.566311	 -1.414077
H	 -0.023443	 -0.550625	 -1.794856
H	 -0.924190	 -1.336870	 -3.087677
F	 0.598165	 -3.018609	 -1.901836
F	 -0.426391	 -2.501051	 -0.098470
F	 -1.483274	 -3.452006	 -1.687746

	symmetry c1
}
set optking {
	frozen_dihedral = ("
		6 3 2 1
	")
}

ee = optimize('scf')
oeprop('DIPOLE', 'QUADRUPOLE', 'MULLIKEN_CHARGES')
f=open( 'psi4out.xyz', 'w' )
f.write( "13  " )
f.write( str(ee) + "\n" )
f.write( MOL.save_string_xyz() )
f.close()
--------------------------------------------------------------------------

    Molecular point group: c1
  Charge       = 0
  Multiplicity = 1
  Basis Set: 6-31G*
  Basis Set:
  @DF-RHF Final Energy:  -527.45715408304102
    Total Energy =                       -527.4571540830409049
    Molecular point group: c1
  Basis Set: 6-31G*
  Basis Set:
  Basis Set: 6-31G*
  Basis Set:
  @DF-RHF Final Energy:  -527.48401353545626
    Total Energy =                       -527.4840135354561426
  Basis Set: 6-31G*
  Basis Set:
  Basis Set: 6-31G*
  Basis Set:
  @DF-RHF Final Energy:  -527.50231299160487
    Total Energy =                       -527.5023129916048674
  Basis Set: 6-31G*
  Basis Set:
  Basis Set: 6-31G*
  Basis Set:
  @DF-RHF Final Energy:  -527.50383934333490
    Total Energy =                       -527.5038393433350166
  Basis Set: 6-31G*
  Basis Set:
  @DF-RHF Final Energy:  -527.50401165178505
    Total Energy =                       -527.5040116517851629
  @DF-RHF Final Energy:  -527.50404285304649
    Total Energy =                       -527.5040428530464851
  @DF-RHF Final Energy:  -527.42462037764767
    Total Energy =                       -527.4246203776472157
  @DF-RHF Final Energy:  -527.45345277122146
    Total Energy =                       -527.4534527712216914
  @DF-RHF Final Energy:  -527.37450017955871
    Total Energy =                       -527.3745001795584812
  @DF-RHF Final Energy:  -527.36041227157921
    Total Energy =                       -527.3604122715792073
  @DF-RHF Final Energy:  -527.46040771132857
    Total Energy =                       -527.4604077113286849
  @DF-RHF Final Energy:  -527.49463169064961
    Total Energy =                       -527.4946316906494985
  @DF-RHF Final Energy:  -527.49380162740351
    Total Energy =                       -527.4938016274029451
  @DF-RHF Final Energy:  -527.50255562915333
    Total Energy =                       -527.5025556291535622
  @DF-RHF Final Energy:  -527.50380155518405
    Total Energy =                       -527.5038015551840545
  @DF-RHF Final Energy:  -527.50393610349090
    Total Energy =                       -527.5039361034907870
  @DF-RHF Final Energy:  -527.50399670604907
    Total Energy =                       -527.5039967060489516
  @DF-RHF Final Energy:  -527.50401770210260
    Total Energy =                       -527.5040177021023737
  @DF-RHF Final Energy:  -527.50392729519638
    Total Energy =                       -527.5039272951962630
  @DF-RHF Final Energy:  -527.50402821344824
    Total Energy =                       -527.5040282134480094
  @DF-RHF Final Energy:  -527.50396178209451
    Total Energy =                       -527.5039617820945068
  @DF-RHF Final Energy:  -527.50403998687079
    Total Energy =                       -527.5040399868707937
  @DF-RHF Final Energy:  -527.50403169594551
    Total Energy =                       -527.5040316959454003
  @DF-RHF Final Energy:  -527.50404791535823
    Total Energy =                       -527.5040479153578872
  @DF-RHF Final Energy:  -527.50404709551526
    Total Energy =                       -527.5040470955150340
  @DF-RHF Final Energy:  -527.50362618787608
    Total Energy =                       -527.5036261878759660
  @DF-RHF Final Energy:  -527.50355156904709
    Total Energy =                       -527.5035515690474313
  @DF-RHF Final Energy:  -527.50357027623772
    Total Energy =                       -527.5035702762384062
  @DF-RHF Final Energy:  -527.50350362335826
    Total Energy =                       -527.5035036233584833
  @DF-RHF Final Energy:  -527.50374817714828
    Total Energy =                       -527.5037481771479406
  @DF-RHF Final Energy:  -527.50402379710192
    Total Energy =                       -527.5040237971020360
  @DF-RHF Final Energy:  -527.50402595569813
    Total Energy =                       -527.5040259556983528
  @DF-RHF Final Energy:  -527.50404222723125
    Total Energy =                       -527.5040422272313663
  @DF-RHF Final Energy:  -527.50404384622061
    Total Energy =                       -527.5040438462204975
  @DF-RHF Final Energy:  -527.50404446266850
    Total Energy =                       -527.5040444626683893
  @DF-RHF Final Energy:  -527.50404460711957
    Total Energy =                       -527.5040446071195674
  Basis Set: 6-31G*
  Basis Set:
  @DF-RHF Final Energy:  -527.50404445746233
    Total Energy =                       -527.5040444574622143
  Basis Set: 6-31G*
  Basis Set:
  Basis Set: 6-31G*
  Basis Set:
  @DF-RHF Final Energy:  -527.50404441319563
    Total Energy =                       -527.5040444131955155
  Basis Set: 6-31G*
  Basis Set:
  Basis Set: 6-31G*
  Basis Set:
  @DF-RHF Final Energy:  -527.50404430005938
    Total Energy =                       -527.5040443000598316
  Basis Set: 6-31G*
  Basis Set:
  Charge       = 0
  Multiplicity = 1
  Basis Set: 6-31G*
  Basis Set:

    Orbital Energies (a.u.)
    -----------------------

    Doubly Occupied:

       1A    -26.344236     2A    -26.343180     3A    -26.339278
       4A    -20.606459     5A    -11.502466     6A    -11.318651
       7A    -11.307433     8A    -11.217421     9A     -1.741188
      10A     -1.639650    11A     -1.637213    12A     -1.436413
      13A     -1.085247    14A     -1.016079    15A     -0.924557
      16A     -0.836662    17A     -0.830548    18A     -0.821669
      19A     -0.792590    20A     -0.720076    21A     -0.710567
      22A     -0.694340    23A     -0.675080    24A     -0.659747
      25A     -0.654060    26A     -0.642334    27A     -0.633729
      28A     -0.585764    29A     -0.557401    30A     -0.525881
      31A     -0.508822    32A     -0.342451

  @DF-RHF Final Energy:  -527.50404397620775

   => Energetics <=

    Nuclear Repulsion Energy =            412.5066311962148120
    One-Electron Energy =               -1548.7189648316543753
    Two-Electron Energy =                 608.7082896592319230
    DFT Exchange-Correlation Energy =       0.0000000000000000
    Empirical Dispersion Energy =           0.0000000000000000
    PCM Polarization Energy =               0.0000000000000000
    EFP Energy =                            0.0000000000000000
    Total Energy =                       -527.5040439762076403
    Molecular point group: c1
  Basis Set: 6-31G*
  Basis Set:

  -Total Gradient:
     Atom            X                  Y                   Z
    ------   -----------------  -----------------  -----------------
       1        0.013716495301     0.031524142612     0.003046605692
       2       -0.021594476250    -0.036039616918    -0.017109590217
       3        0.008707480768    -0.017813685264     0.039429075289
       4        0.000350070458     0.000200300197     0.000237593205
       5       -0.000429418571    -0.000246872595    -0.000036559914
       6       -0.000603405505     0.022035754877    -0.025855301780
       7        0.000070460974    -0.000107922420     0.000731425985
       8        0.001110539743     0.000268887393     0.000792060041
       9       -0.000008469554     0.000175448903     0.000083180043
      10       -0.000218891239     0.000039215800    -0.000349598358
      11       -0.000714852379    -0.000281798969    -0.000248569480
      12       -0.000373972939     0.000430835826    -0.000371464225
      13       -0.000011560805    -0.000184689448    -0.000348856282

    Molecular point group: c1

    Geometry (in Angstrom), charge = 0, multiplicity = 1:

    H           -2.887363470039     2.531837967917     0.709634969518
    C           -2.124405576276     2.118219212348     1.344151010875
    C           -0.972224599626     1.639306619119     0.910605771854
    H           -2.071031016771     2.620887645543     2.297012076082
    O           -0.924118214200     1.031360581713    -0.311283622737
    H           -0.008685057668     2.020214043765     1.202446254430
    C            0.306025856584     0.620643143507    -0.800192110629
    C            0.651621025936    -0.772466390195    -0.326127739459
    H            1.113162222260     1.285812647816    -0.511436783912
    H            0.242751380908     0.598726372717    -1.878831308283
    F            1.812189949624    -1.143175155452    -0.846397207288
    F            0.762489498735    -0.826486068013     0.990299878506
    F           -0.254041531272    -1.656607173433    -0.691072118798

  Mulliken Charges: (a.u.)
   Center  Symbol    Alpha    Beta     Spin     Total
       1     H     0.39859  0.39859  0.00000  0.20282
       2     C     3.22737  3.22737  0.00000 -0.45474
       3     C     2.90136  2.90136  0.00000  0.19728
       4     H     0.41722  0.41722  0.00000  0.16555
       5     O     4.29741  4.29741  0.00000 -0.59482
       6     H     0.40480  0.40480  0.00000  0.19039
       7     C     3.06472  3.06472  0.00000 -0.12945
       8     C     2.45474  2.45474  0.00000  1.09052
       9     H     0.40752  0.40752  0.00000  0.18496
      10     H     0.38979  0.38979  0.00000  0.22041
      11     F     4.68285  4.68285  0.00000 -0.36571
      12     F     4.67901  4.67901  0.00000 -0.35802
      13     F     4.67460  4.67460  0.00000 -0.34920

   Total alpha = 32.00000, Total beta = 32.00000, Total charge =  0.00000
