  ==> Input File <==

--------------------------------------------------------------------------
set {
	reference rhf
	basis 6-31G*
}

set_num_threads( 1 )
memory 2 gb

molecule MOL {
0 1

O	 3.225979	 0.970355	 -0.599647
C	 2.701189	 0.057885	 -0.047330
C	 1.245376	 -0.013843	 0.345420
O	 3.347903	 -1.046386	 0.304773
C	 0.455112	 1.231400	 -0.050772
H	 0.838542	 -0.913825	 -0.103701
H	 1.208210	 -0.175333	 1.419774
C	 -0.998893	 1.219485	 0.433193
H	 0.482531	 1.345121	 -1.130325
H	 0.957290	 2.103070	 0.354729
C	 -1.251368	 0.393712	 1.697893
H	 -1.617642	 0.824151	 -0.369045
H	 -1.334948	 2.242380	 0.596780
C	 -2.732092	 0.323264	 2.076696
H	 -0.870193	 -0.615313	 1.548255
H	 -0.694441	 0.809734	 2.534392
C	 -2.995776	 -0.495071	 3.341975
H	 -3.295181	 -0.104771	 1.249078
H	 -3.116563	 1.332462	 2.215982
C	 -4.477219	 -0.563671	 3.711192
H	 -2.611301	 -1.503548	 3.204879
H	 -2.437200	 -0.066167	 4.171321
H	 -4.631864	 -1.150014	 4.611688
H	 -5.058830	 -1.020340	 2.915341
H	 -4.883432	 0.428191	 3.888602
C	 4.728119	 -1.109107	 -0.004993
H	 4.882018	 -1.033965	 -1.071845
H	 5.068212	 -2.067527	 0.355250
H	 5.265056	 -0.311663	 0.488280

	symmetry c1
}
set optking {
	frozen_dihedral = ("
		21 17 14 11,
		17 14 11 15,
		15 11 8 5,
		6 3 5 9,
		2 4 26 27,
		1 2 4 26,
		6 3 2 1
	")
}

ee = energy('scf')
oeprop('DIPOLE', 'QUADRUPOLE', 'MULLIKEN_CHARGES')
f=open( 'psi4out.xyz', 'w' )
f.write( "29  " )
f.write( str(ee) + "\n" )
f.write( MOL.save_string_xyz() )
f.close()
--------------------------------------------------------------------------

    Molecular point group: c1

    Geometry (in Angstrom), charge = 0, multiplicity = 1:

       Center              X                  Y                   Z               Mass
    ------------   -----------------  -----------------  -----------------  -----------------
           O          2.888918558555     0.898034174305    -1.614077413969    15.994914619560
           C          2.364128558555    -0.014435825695    -1.061760413969    12.000000000000
           C          0.908315558555    -0.086163825695    -0.669010413969    12.000000000000
           O          3.010842558555    -1.118706825695    -0.709657413969    15.994914619560
           C          0.118051558555     1.159079174305    -1.065202413969    12.000000000000
           H          0.501481558555    -0.986145825695    -1.118131413969     1.007825032070
           H          0.871149558555    -0.247653825695     0.405343586031     1.007825032070
           C         -1.335953441445     1.147164174305    -0.581237413969    12.000000000000
           H          0.145470558555     1.272800174305    -2.144755413969     1.007825032070
           H          0.620229558555     2.030749174305    -0.659701413969     1.007825032070
           C         -1.588428441445     0.321391174305     0.683462586031    12.000000000000
           H         -1.954702441445     0.751830174305    -1.383475413969     1.007825032070
           H         -1.672008441445     2.170059174305    -0.417650413969     1.007825032070
           C         -3.069152441445     0.250943174305     1.062265586031    12.000000000000
           H         -1.207253441445    -0.687633825695     0.533824586031     1.007825032070
           H         -1.031501441445     0.737413174305     1.519961586031     1.007825032070
           C         -3.332836441445    -0.567391825695     2.327544586031    12.000000000000
           H         -3.632241441445    -0.177091825695     0.234647586031     1.007825032070
           H         -3.453623441445     1.260141174305     1.201551586031     1.007825032070
           C         -4.814279441445    -0.635991825695     2.696761586031    12.000000000000
           H         -2.948361441445    -1.575868825695     2.190448586031     1.007825032070
           H         -2.774260441445    -0.138487825695     3.156890586031     1.007825032070
           H         -4.968924441445    -1.222334825695     3.597257586031     1.007825032070
           H         -5.395890441445    -1.092660825695     1.900910586031     1.007825032070
           H         -5.220492441445     0.355870174305     2.874171586031     1.007825032070
           C          4.391058558555    -1.181427825695    -1.019423413969    12.000000000000
           H          4.544957558555    -1.106285825695    -2.086275413969     1.007825032070
           H          4.731151558555    -2.139847825695    -0.659180413969     1.007825032070
           H          4.927995558555    -0.383983825695    -0.526150413969     1.007825032070

  Charge       = 0
  Multiplicity = 1
  Basis Set: 6-31G*
  Basis Set:

    Orbital Energies (a.u.)
    -----------------------

    Doubly Occupied:

       1A    -20.603051     2A    -20.544502     3A    -11.371205
       4A    -11.280456     5A    -11.234087     6A    -11.218241
       7A    -11.217004     8A    -11.216425     9A    -11.216227
      10A    -11.214605    11A    -11.209354    12A     -1.468610
      13A     -1.361964    14A     -1.100063    15A     -1.066219
      16A     -1.018301    17A     -0.976593    18A     -0.929220
      19A     -0.865409    20A     -0.798741    21A     -0.792112
      22A     -0.758858    23A     -0.700685    24A     -0.682591
      25A     -0.670824    26A     -0.654673    27A     -0.630267
      28A     -0.604912    29A     -0.592132    30A     -0.578999
      31A     -0.568287    32A     -0.552617    33A     -0.531336
      34A     -0.528158    35A     -0.519606    36A     -0.511644
      37A     -0.498582    38A     -0.479903    39A     -0.467809
      40A     -0.460662    41A     -0.457510    42A     -0.451848
      43A     -0.440292    44A     -0.436190

  @DF-RHF Final Energy:  -501.03722350018791

   => Energetics <=

    Nuclear Repulsion Energy =            615.9074920624362903
    One-Electron Energy =               -1902.9278522328238523
    Two-Electron Energy =                 785.9831366701976094
    DFT Exchange-Correlation Energy =       0.0000000000000000
    Empirical Dispersion Energy =           0.0000000000000000
    PCM Polarization Energy =               0.0000000000000000
    EFP Energy =                            0.0000000000000000
    Total Energy =                       -501.0372235001898389

  Mulliken Charges: (a.u.)
   Center  Symbol    Alpha    Beta     Spin     Total
       1     O     4.28611  4.28611  0.00000 -0.57221
       2     C     2.60298  2.60298  0.00000  0.79405
       3     C     3.21648  3.21648  0.00000 -0.43295
       4     O     4.30755  4.30755  0.00000 -0.61509
       5     C     3.15363  3.15363  0.00000 -0.30726
       6     H     0.40076  0.40076  0.00000  0.19848
       7     H     0.39655  0.39655  0.00000  0.20690
       8     C     3.15518  3.15518  0.00000 -0.31035
       9     H     0.41032  0.41032  0.00000  0.17937
      10     H     0.41026  0.41026  0.00000  0.17948
      11     C     3.16166  3.16166  0.00000 -0.32332
      12     H     0.42208  0.42208  0.00000  0.15584
      13     H     0.41772  0.41772  0.00000  0.16455
      14     C     3.14895  3.14895  0.00000 -0.29791
      15     H     0.42064  0.42064  0.00000  0.15871
      16     H     0.42284  0.42284  0.00000  0.15431
      17     C     3.15155  3.15155  0.00000 -0.30310
      18     H     0.42370  0.42370  0.00000  0.15261
      19     H     0.42353  0.42353  0.00000  0.15293
      20     C     3.23933  3.23933  0.00000 -0.47865
      21     H     0.42334  0.42334  0.00000  0.15332
      22     H     0.42320  0.42320  0.00000  0.15361
      23     H     0.41922  0.41922  0.00000  0.16157
      24     H     0.42172  0.42172  0.00000  0.15656
      25     H     0.42153  0.42153  0.00000  0.15694
      26     C     3.09232  3.09232  0.00000 -0.18463
      27     H     0.40912  0.40912  0.00000  0.18175
      28     H     0.40858  0.40858  0.00000  0.18284
      29     H     0.40916  0.40916  0.00000  0.18167

   Total alpha = 44.00000, Total beta = 44.00000, Total charge =  0.00000
