                              Psi4 1.0.54 Driver

  ==> Input File <==

--------------------------------------------------------------------------
set {
	reference rhf
	basis cc-pvtz
}

set_num_threads( 4 )
memory 2 gb

molecule MOL {
0 1

H	 3.721907	 -0.933076	 -0.066039
O	 2.824271	 -1.154299	 0.131461
C	 2.076458	 -0.067370	 -0.038225
C	 0.626018	 -0.337582	 0.258241
O	 2.538288	 0.965419	 -0.381593
C	 -0.267326	 0.883135	 0.076490
H	 0.325620	 -1.161483	 -0.378003
H	 0.574537	 -0.713685	 1.275261
C	 -1.726822	 0.642622	 0.463839
H	 -0.210803	 1.217591	 -0.953497
H	 0.129920	 1.693110	 0.675679
C	 -2.635637	 1.866031	 0.357227
H	 -1.748040	 0.285315	 1.489089
H	 -2.135166	 -0.162263	 -0.143501
C	 -4.051287	 1.593199	 0.855194
H	 -2.203458	 2.682004	 0.930327
H	 -2.685101	 2.207660	 -0.671753
H	 -4.674064	 2.476221	 0.770902
H	 -4.047686	 1.288553	 1.896288
H	 -4.521527	 0.801096	 0.281955

	symmetry c1
}
set optking {
	frozen_dihedral = ("
		12 9 6 10
	")
}

ee,wfn = optimize('scf', return_wfn=True)
oeprop( wfn, 'DIPOLE', 'QUADRUPOLE', 'MULLIKEN_CHARGES')
f=open( 'psi4out.xyz', 'w' )
f.write( "20  " )
f.write( str(ee) + "\n" )
f.write( MOL.save_string_xyz() )
f.close()
--------------------------------------------------------------------------

    Molecular point group: c1
  Charge       = 0
  Multiplicity = 1
  Basis Set: CC-PVTZ
  Basis Set:
  @DF-RHF Final Energy:  -384.09621936701535
    Total Energy =                       -384.0962193670148395
    Molecular point group: c1
  Basis Set: CC-PVTZ
  Basis Set:
  Basis Set: CC-PVTZ
  Basis Set:
  @DF-RHF Final Energy:  -384.09670070019411
    Total Energy =                       -384.0967007001943898
  Basis Set: CC-PVTZ
  Basis Set:
  Basis Set: CC-PVTZ
  Basis Set:
  @DF-RHF Final Energy:  -384.09669927988591
    Total Energy =                       -384.0966992798857973
  Basis Set: CC-PVTZ
  Basis Set:
  Basis Set: CC-PVTZ
  Basis Set:
  @DF-RHF Final Energy:  -384.09660493644276
    Total Energy =                       -384.0966049364427590
  Basis Set: CC-PVTZ
  Basis Set:
  Basis Set: CC-PVTZ
  Basis Set:
  @DF-RHF Final Energy:  -384.09674488900248
    Total Energy =                       -384.0967448890025935
  Basis Set: CC-PVTZ
  Basis Set:
  Basis Set: CC-PVTZ
  Basis Set:
  @DF-RHF Final Energy:  -384.09674594613074
    Total Energy =                       -384.0967459461307385
  Basis Set: CC-PVTZ
  Basis Set:
  Charge       = 0
  Multiplicity = 1
  Basis Set: CC-PVTZ
  Basis Set:

    Orbital Energies (a.u.)
    -----------------------

    Doubly Occupied:

       1A    -20.603967     2A    -20.540551     3A    -11.373488
       4A    -11.239154     5A    -11.220801     6A    -11.218354
       7A    -11.216413     8A    -11.209204     9A     -1.477529
      10A     -1.369043    11A     -1.097340    12A     -1.043914
      13A     -0.960827    14A     -0.869425    15A     -0.804836
      16A     -0.791298    17A     -0.703771    18A     -0.688451
      19A     -0.673386    20A     -0.640568    21A     -0.597463
      22A     -0.594824    23A     -0.571275    24A     -0.565065
      25A     -0.538534    26A     -0.511501    27A     -0.488482
      28A     -0.484518    29A     -0.472806    30A     -0.468044
      31A     -0.466711    32A     -0.444273

  @DF-RHF Final Energy:  -384.09674601786764

   => Energetics <=

    Nuclear Repulsion Energy =            372.2436455838760594
    One-Electron Energy =               -1260.7891567720091643
    Two-Electron Energy =                 504.4487651702650055
    DFT Exchange-Correlation Energy =       0.0000000000000000
    Empirical Dispersion Energy =           0.0000000000000000
    PCM Polarization Energy =               0.0000000000000000
    EFP Energy =                            0.0000000000000000
    Total Energy =                       -384.0967460178680994
    Molecular point group: c1
  Basis Set: CC-PVTZ
  Basis Set:

  -Total Gradient:
     Atom            X                  Y                   Z
    ------   -----------------  -----------------  -----------------
       1        0.000004539089    -0.000001097404     0.000000512352
       2        0.000001915760    -0.000006538940    -0.000011634423
       3       -0.000009411697     0.000022859416     0.000023343394
       4       -0.000009869657    -0.000005868591    -0.000028075009
       5        0.000003720146    -0.000007704125    -0.000003321320
       6       -0.000002544417     0.000449538946     0.000276715527
       7       -0.000001535456    -0.000002743170     0.000005973883
       8        0.000000338366     0.000004577851     0.000007339253
       9       -0.000087670779    -0.000158425591    -0.000382410966
      10        0.000018822988    -0.000343438346    -0.000128073971
      11        0.000006549130     0.000004745654     0.000000027004
      12        0.000067689572     0.000059101177     0.000241659442
      13        0.000001923526    -0.000002402983     0.000001077707
      14       -0.000004584144    -0.000002196795    -0.000003021463
      15        0.000003544067    -0.000011527799     0.000003067655
      16        0.000005628953     0.000002984839    -0.000000117127
      17       -0.000002581723     0.000000003593    -0.000003658575
      18        0.000008172022     0.000000866977     0.000000600328
      19       -0.000001055871    -0.000001869292     0.000001888891
      20       -0.000003589866    -0.000000865421    -0.000001892582

  **** Optimization is complete! (in 7 steps) ****
    Final optimized geometry and variables:
    Molecular point group: c1

    Geometry (in Angstrom), charge = 0, multiplicity = 1:

    H            3.653719673034    -1.621504456579    -0.523349168470
    O            2.762793520921    -1.798628642291    -0.261399811829
    C            2.064456591643    -0.670552710978    -0.356047588274
    C            0.628157720589    -0.868431930409     0.046222320324
    O            2.553694879379     0.343437296382    -0.717266830381
    C           -0.214666290580     0.395405312678    -0.048184099090
    H            0.227111243285    -1.658393162859    -0.580495448531
    H            0.631871471823    -1.266117581926     1.055918739902
    C           -1.664874774142     0.155854873360     0.361039708708
    H           -0.176061808329     0.772642519442    -1.063741729479
    H            0.223758099037     1.164522888942     0.577324292953
    C           -2.517785241314     1.420116571630     0.310841666660
    H           -1.694502361710    -0.253699907632     1.368339173078
    H           -2.104506219553    -0.599463020243    -0.286430692325
    C           -3.968261634287     1.180046289221     0.715517437458
    H           -2.081157672881     2.171825393035     0.962236422584
    H           -2.487184129645     1.833426842078    -0.693373745678
    H           -4.544666379625     2.096763924954     0.670600152221
    H           -4.034096479054     0.797621669059     1.728748609945
    H           -4.443689312941     0.458289700318     0.059609426784

  Mulliken Charges: (a.u.)
   Center  Symbol    Alpha    Beta     Spin     Total
       1     H     0.38244  0.38244  0.00000  0.23511
       2     O     4.15971  4.15971  0.00000 -0.31942
       3     C     2.80459  2.80459  0.00000  0.39081
       4     C     3.11247  3.11247  0.00000 -0.22494
       5     O     4.19140  4.19140  0.00000 -0.38280
       6     C     3.08392  3.08392  0.00000 -0.16784
       7     H     0.43802  0.43802  0.00000  0.12397
       8     H     0.43807  0.43807  0.00000  0.12385
       9     C     3.08855  3.08855  0.00000 -0.17709
      10     H     0.44575  0.44575  0.00000  0.10851
      11     H     0.44585  0.44585  0.00000  0.10830
      12     C     3.08427  3.08427  0.00000 -0.16855
      13     H     0.45560  0.45560  0.00000  0.08880
      14     H     0.45511  0.45511  0.00000  0.08979
      15     C     3.15030  3.15030  0.00000 -0.30061
      16     H     0.45305  0.45305  0.00000  0.09390
      17     H     0.45303  0.45303  0.00000  0.09394
      18     H     0.44750  0.44750  0.00000  0.10499
      19     H     0.45521  0.45521  0.00000  0.08958
      20     H     0.45515  0.45515  0.00000  0.08969

   Total alpha = 32.00000, Total beta = 32.00000, Total charge =  0.00000

*** Psi4 exiting successfully. Buy a developer a beer!
