  ==> Input File <==

--------------------------------------------------------------------------
set {
	reference rhf
	basis 6-31G*
}

set_num_threads( 4 )
memory 2 gb

molecule MOL {
0 1

H	 -0.453439	 -1.541404	 -0.440236
N	 -0.626943	 -0.667432	 -0.000092
C	 -1.979713	 -0.158776	 0.000050
C	 0.415094	 -0.015194	 0.569919
H	 -2.520245	 -0.492427	 -0.879443
H	 -1.934741	 0.918111	 -0.004428
H	 -2.517790	 -0.485056	 0.883818
C	 1.745906	 -0.730798	 0.452295
O	 0.304241	 1.043268	 1.124522
H	 2.012614	 -0.874029	 -0.590157
H	 2.505988	 -0.136533	 0.936878
H	 1.698893	 -1.707500	 0.923655

	symmetry c1
}
set optking {
	frozen_dihedral = ("
		4 2 3 5
	")
}

ee = optimize('scf')
oeprop('DIPOLE', 'QUADRUPOLE', 'MULLIKEN_CHARGES')
f=open( 'psi4out.xyz', 'w' )
f.write( "12  " )
f.write( str(ee) + "\n" )
f.write( MOL.save_string_xyz() )
f.close()
--------------------------------------------------------------------------

    Molecular point group: c1
  Charge       = 0
  Multiplicity = 1
  Basis Set: 6-31G*
  Basis Set:
  @DF-RHF Final Energy:  -247.00528803787648
    Total Energy =                       -247.0052880378763120
    Molecular point group: c1
  Basis Set: 6-31G*
  Basis Set:
  Basis Set: 6-31G*
  Basis Set:
  @DF-RHF Final Energy:  -247.00551226270716
    Total Energy =                       -247.0055122627069295
  Basis Set: 6-31G*
  Basis Set:
  Basis Set: 6-31G*
  Basis Set:
  @DF-RHF Final Energy:  -247.00555180713832
    Total Energy =                       -247.0055518071382608
  Basis Set: 6-31G*
  Basis Set:
  Basis Set: 6-31G*
  Basis Set:
  @DF-RHF Final Energy:  -247.00557247528744
    Total Energy =                       -247.0055724752874653
  Basis Set: 6-31G*
  Basis Set:
  @DF-RHF Final Energy:  -247.00558383546266
    Total Energy =                       -247.0055838354625735
  @DF-RHF Final Energy:  -247.00559335868604
    Total Energy =                       -247.0055933586862125
  @DF-RHF Final Energy:  -247.00561194864417
    Total Energy =                       -247.0056119486441730
  @DF-RHF Final Energy:  -247.00561778761138
    Total Energy =                       -247.0056177876112429
  @DF-RHF Final Energy:  -247.00561947009834
    Total Energy =                       -247.0056194700983951
  @DF-RHF Final Energy:  -247.00562233093012
    Total Energy =                       -247.0056223309301799
  @DF-RHF Final Energy:  -247.00564839485949
    Total Energy =                       -247.0056483948592927
  @DF-RHF Final Energy:  -247.00561522540153
    Total Energy =                       -247.0056152254016411
  @DF-RHF Final Energy:  -247.00568944847873
    Total Energy =                       -247.0056894484788472
  @DF-RHF Final Energy:  -247.00572047876642
    Total Energy =                       -247.0057204787665341
  @DF-RHF Final Energy:  -247.00572847192146
    Total Energy =                       -247.0057284719214294
  @DF-RHF Final Energy:  -247.00573217382066
    Total Energy =                       -247.0057321738206610
  @DF-RHF Final Energy:  -247.00573343724744
    Total Energy =                       -247.0057334372474998
  Basis Set: 6-31G*
  Basis Set:
  @DF-RHF Final Energy:  -247.00573459205262
    Total Energy =                       -247.0057345920526473
  Basis Set: 6-31G*
  Basis Set:
  Basis Set: 6-31G*
  Basis Set:
  @DF-RHF Final Energy:  -247.00573570452667
    Total Energy =                       -247.0057357045265576
  Basis Set: 6-31G*
  Basis Set:
  Basis Set: 6-31G*
  Basis Set:
  @DF-RHF Final Energy:  -247.00573674682582
    Total Energy =                       -247.0057367468259599
  Basis Set: 6-31G*
  Basis Set:
  Charge       = 0
  Multiplicity = 1
  Basis Set: 6-31G*
  Basis Set:

    Orbital Energies (a.u.)
    -----------------------

    Doubly Occupied:

       1A    -20.514809     2A    -15.582282     3A    -11.342506
       4A    -11.254415     5A    -11.229999     6A     -1.383819
       7A     -1.228431     8A     -1.015360     9A     -0.932224
      10A     -0.787161    11A     -0.689148    12A     -0.648229
      13A     -0.632505    14A     -0.585546    15A     -0.579711
      16A     -0.554417    17A     -0.545590    18A     -0.504778
      19A     -0.412822    20A     -0.385093

  @DF-RHF Final Energy:  -247.00573772740572

   => Energetics <=

    Nuclear Repulsion Energy =            181.3883778743844175
    One-Electron Energy =                -695.1705388033792588
    Two-Electron Energy =                 266.7764232015891821
    DFT Exchange-Correlation Energy =       0.0000000000000000
    Empirical Dispersion Energy =           0.0000000000000000
    PCM Polarization Energy =               0.0000000000000000
    EFP Energy =                            0.0000000000000000
    Total Energy =                       -247.0057377274056307
    Molecular point group: c1
  Basis Set: 6-31G*
  Basis Set:

  -Total Gradient:
     Atom            X                  Y                   Z
    ------   -----------------  -----------------  -----------------
       1        0.000010915378    -0.000008664868    -0.000003319759
       2       -0.000014409410    -0.000100064870     0.000263993673
       3       -0.000083224817    -0.000187691265     0.000013378249
       4        0.000017221121     0.000064625916    -0.000125899885
       5        0.000054688665     0.000206078767    -0.000077839379
       6        0.000011516306    -0.000004300813    -0.000003048257
       7        0.000007549255    -0.000005029842    -0.000002900036
       8       -0.000008048300    -0.000051147442     0.000019391416
       9       -0.000014436687     0.000063986925    -0.000036533274
      10        0.000029399250     0.000011427244    -0.000026211478
      11       -0.000009822833     0.000016040360     0.000016553942
      12       -0.000001347929    -0.000005260116    -0.000037565213

  **** Optimization is complete! (in 21 steps) ****
    Final optimized geometry and variables:
    Molecular point group: c1

    Geometry (in Angstrom), charge = 0, multiplicity = 1:

    H           -0.392134743468    -1.346962785241    -1.017022976979
    N           -0.562191965601    -0.489915909241    -0.544464164686
    C           -1.925989669764    -0.019267788484    -0.449157665396
    C            0.451844289419     0.079711324127     0.148288681718
    H           -2.437054710249    -0.203707333610    -1.385979195959
    H           -1.915468642929     1.042075777378    -0.257249226925
    H           -2.471547086932    -0.509631535852     0.351358130656
    C            1.791909426742    -0.615197127540     0.021983365674
    O            0.306861143742     1.057641364142     0.829351161854
    H            1.919496869080    -1.106932222778    -0.935801673156
    H            2.576430408991     0.114405395401     0.162909437811
    H            1.877898896504    -1.362364030255     0.804999809242

  Mulliken Charges: (a.u.)
   Center  Symbol    Alpha    Beta     Spin     Total
       1     H     0.31050  0.31050  0.00000  0.37899
       2     N     3.89226  3.89226  0.00000 -0.78452
       3     C     3.13937  3.13937  0.00000 -0.27874
       4     C     2.62983  2.62983  0.00000  0.74034
       5     H     0.41670  0.41670  0.00000  0.16659
       6     H     0.39087  0.39087  0.00000  0.21825
       7     H     0.41532  0.41532  0.00000  0.16936
       8     C     3.29244  3.29244  0.00000 -0.58488
       9     O     4.30299  4.30299  0.00000 -0.60599
      10     H     0.41510  0.41510  0.00000  0.16981
      11     H     0.39333  0.39333  0.00000  0.21335
      12     H     0.40128  0.40128  0.00000  0.19744

   Total alpha = 20.00000, Total beta = 20.00000, Total charge = -0.00000
