                              Psi4 1.0.54 Driver

  ==> Input File <==

--------------------------------------------------------------------------
set {
	reference rhf
	basis cc-pvtz
}

set_num_threads( 4 )
memory 2 gb

molecule MOL {
0 1

H	 3.249966	 0.101611	 0.258414
N	 2.433987	 -0.362316	 -0.080024
C	 1.263552	 0.494993	 0.021953
H	 2.317955	 -1.190269	 0.466205
C	 -0.016533	 -0.325589	 -0.026925
H	 1.280915	 1.180773	 -0.818522
H	 1.263064	 1.106893	 0.925038
C	 -1.280353	 0.525521	 0.047747
H	 -0.016686	 -0.912532	 -0.939714
H	 -0.014099	 -1.037598	 0.796369
C	 -2.560681	 -0.301323	 -0.007747
H	 -1.279957	 1.241025	 -0.770189
H	 -1.270445	 1.110526	 0.963468
H	 -2.617064	 -0.872870	 -0.928010
H	 -3.439525	 0.331102	 0.043462
H	 -2.609427	 -1.002736	 0.818585

	symmetry c1
}
set optking {
	frozen_dihedral = ("
		1 2 3 6
	")
}

ee,wfn = optimize('scf', return_wfn=True)
oeprop( wfn, 'DIPOLE', 'QUADRUPOLE', 'MULLIKEN_CHARGES')
f=open( 'psi4out.xyz', 'w' )
f.write( "16  " )
f.write( str(ee) + "\n" )
f.write( MOL.save_string_xyz() )
f.close()
--------------------------------------------------------------------------

    Molecular point group: c1
  Charge       = 0
  Multiplicity = 1
  Basis Set: CC-PVTZ
  Basis Set:
  @DF-RHF Final Energy:  -212.39915195210776
    Total Energy =                       -212.3991519521079567
    Molecular point group: c1
  Basis Set: CC-PVTZ
  Basis Set:
  Basis Set: CC-PVTZ
  Basis Set:
  @DF-RHF Final Energy:  -212.39926396689245
    Total Energy =                       -212.3992639668926472
  Basis Set: CC-PVTZ
  Basis Set:
  Basis Set: CC-PVTZ
  Basis Set:
  @DF-RHF Final Energy:  -212.39927764318014
    Total Energy =                       -212.3992776431801417
  Basis Set: CC-PVTZ
  Basis Set:
  Charge       = 0
  Multiplicity = 1
  Basis Set: CC-PVTZ
  Basis Set:

    Orbital Energies (a.u.)
    -----------------------

    Doubly Occupied:

       1A    -15.526408     2A    -11.237821     3A    -11.214562
       4A    -11.211187     5A    -11.207162     6A     -1.178399
       7A     -1.062316     8A     -0.960626     9A     -0.845270
      10A     -0.795248    11A     -0.655399    12A     -0.648235
      13A     -0.603280    14A     -0.576412    15A     -0.571460
      16A     -0.522247    17A     -0.506555    18A     -0.471447
      19A     -0.467271    20A     -0.461204    21A     -0.385693

  @DF-RHF Final Energy:  -212.39927854336173

   => Energetics <=

    Nuclear Repulsion Energy =            186.6954937068285858
    One-Electron Energy =                -655.9731414921035366
    Two-Electron Energy =                 256.8783692419133331
    DFT Exchange-Correlation Energy =       0.0000000000000000
    Empirical Dispersion Energy =           0.0000000000000000
    PCM Polarization Energy =               0.0000000000000000
    EFP Energy =                            0.0000000000000000
    Total Energy =                       -212.3992785433616177
    Molecular point group: c1
  Basis Set: CC-PVTZ
  Basis Set:

  -Total Gradient:
     Atom            X                  Y                   Z
    ------   -----------------  -----------------  -----------------
       1       -0.000478425584    -0.001080897469     0.002524493556
       2        0.000229451303     0.001037307990    -0.003513590021
       3        0.001575914643     0.001721047292     0.002396229939
       4       -0.000013123210     0.000005729011     0.000006104184
       5        0.000011172917     0.000002475223     0.000004530661
       6       -0.001283072742    -0.001664384899    -0.001384021300
       7       -0.000015476999    -0.000020365219    -0.000051942655
       8       -0.000008395596    -0.000001483485     0.000033086102
       9        0.000000072679    -0.000000014097     0.000012072816
      10       -0.000011256380     0.000001419686    -0.000004731151
      11       -0.000010465361     0.000009410907    -0.000027419405
      12       -0.000004762028    -0.000016636487     0.000017001909
      13       -0.000008929824    -0.000007603435    -0.000010585617
      14       -0.000000682872     0.000006057665     0.000017644536
      15        0.000008881528    -0.000009478604    -0.000012634738
      16        0.000009097530     0.000017415922    -0.000006238816

  **** Optimization is complete! (in 4 steps) ****
    Final optimized geometry and variables:
    Molecular point group: c1

    Geometry (in Angstrom), charge = 0, multiplicity = 1:

    H            3.252948158551     0.160057470819     0.281600565083
    N            2.444109144926    -0.310671265513    -0.065866497171
    C            1.256189399053     0.522190947828     0.069367433688
    H            2.348728913779    -1.139023570362     0.484857111588
    C           -0.007367530662    -0.321598613829    -0.020718926839
    H            1.248176315780     1.235939875154    -0.747888254934
    H            1.241431766047     1.090425640682     0.998689053641
    C           -1.288349805590     0.505392014838     0.025506325943
    H            0.025434771161    -0.898182334717    -0.940332357461
    H           -0.015856188411    -1.041147838780     0.796097128881
    C           -2.550965913757    -0.345428193850    -0.062085292376
    H           -1.281629324628     1.222518637052    -0.790461317051
    H           -1.310530698188     1.087438323617     0.942782464578
    H           -2.574734247278    -0.915461751193    -0.984695355133
    H           -3.442314530826     0.270465056185    -0.030685490640
    H           -2.606397000126    -1.049534495384     0.761498684060

  Mulliken Charges: (a.u.)
   Center  Symbol    Alpha    Beta     Spin     Total
       1     H     0.43222  0.43222  0.00000  0.13556
       2     N     3.68638  3.68638  0.00000 -0.37276
       3     C     3.02022  3.02022  0.00000 -0.04043
       4     H     0.43250  0.43250  0.00000  0.13500
       5     C     3.08464  3.08464  0.00000 -0.16927
       6     H     0.45979  0.45979  0.00000  0.08043
       7     H     0.46888  0.46888  0.00000  0.06224
       8     C     3.08836  3.08836  0.00000 -0.17671
       9     H     0.44882  0.44882  0.00000  0.10236
      10     H     0.46141  0.46141  0.00000  0.07718
      11     C     3.14909  3.14909  0.00000 -0.29819
      12     H     0.45357  0.45357  0.00000  0.09285
      13     H     0.45590  0.45590  0.00000  0.08821
      14     H     0.45417  0.45417  0.00000  0.09165
      15     H     0.44855  0.44855  0.00000  0.10291
      16     H     0.45551  0.45551  0.00000  0.08897

   Total alpha = 21.00000, Total beta = 21.00000, Total charge = -0.00000

*** Psi4 exiting successfully. Buy a developer a beer!
