  ==> Input File <==

--------------------------------------------------------------------------
set {
	reference rhf
	basis 6-31G*
}

set_num_threads( 4 )
memory 2 gb

molecule MOL {
0 1

O	 0.923210	 -0.031111	 0.775134
C	 0.028650	 0.075053	 -0.000277
C	 -1.233602	 -0.752807	 0.000328
O	 0.025509	 0.956920	 -0.991338
C	 -2.501530	 0.091881	 0.000126
H	 -1.193807	 -1.406641	 -0.865785
H	 -1.193516	 -1.405779	 0.867015
H	 -2.545121	 0.729328	 -0.874513
H	 -3.377167	 -0.548497	 0.000561
H	 -2.544818	 0.730135	 0.874258
C	 1.158068	 1.799472	 -1.105384
H	 1.279731	 2.395096	 -0.212164
H	 0.968269	 2.435307	 -1.956003
H	 2.052037	 1.214503	 -1.266940

	symmetry c1
}
set optking {
	frozen_dihedral = ("
		4 2 3 6
	")
}

ee = optimize('scf')
oeprop('DIPOLE', 'QUADRUPOLE', 'MULLIKEN_CHARGES')
f=open( 'psi4out.xyz', 'w' )
f.write( "14  " )
f.write( str(ee) + "\n" )
f.write( MOL.save_string_xyz() )
f.close()
--------------------------------------------------------------------------

    Molecular point group: c1
  Charge       = 0
  Multiplicity = 1
  Basis Set: 6-31G*
  Basis Set:
  @DF-RHF Final Energy:  -305.87028866625343
    Total Energy =                       -305.8702886662536002
    Molecular point group: c1
  Basis Set: 6-31G*
  Basis Set:
  Basis Set: 6-31G*
  Basis Set:
  @DF-RHF Final Energy:  -305.87046612648101
    Total Energy =                       -305.8704661264812330
  Basis Set: 6-31G*
  Basis Set:
  Basis Set: 6-31G*
  Basis Set:
  @DF-RHF Final Energy:  -305.87038461818906
    Total Energy =                       -305.8703846181891777
  Basis Set: 6-31G*
  Basis Set:
  Basis Set: 6-31G*
  Basis Set:
  @DF-RHF Final Energy:  -305.87055573942951
    Total Energy =                       -305.8705557394293919
  Basis Set: 6-31G*
  Basis Set:
  Charge       = 0
  Multiplicity = 1
  Basis Set: 6-31G*
  Basis Set:

    Orbital Energies (a.u.)
    -----------------------

    Doubly Occupied:

       1A    -20.605373     2A    -20.544619     3A    -11.372203
       4A    -11.281749     5A    -11.238169     6A    -11.224660
       7A     -1.470078     8A     -1.362456     9A     -1.067270
      10A     -0.975307    11A     -0.886184    12A     -0.774583
      13A     -0.695912    14A     -0.679849    15A     -0.673314
      16A     -0.619911    17A     -0.587611    18A     -0.567746
      19A     -0.544957    20A     -0.519856    21A     -0.514135
      22A     -0.500991    23A     -0.456311    24A     -0.434274

  @DF-RHF Final Energy:  -305.87055613301811

   => Energetics <=

    Nuclear Repulsion Energy =            248.3405618121839780
    One-Electron Energy =                -909.2271953809838578
    Two-Electron Energy =                 355.0160774357818809
    DFT Exchange-Correlation Energy =       0.0000000000000000
    Empirical Dispersion Energy =           0.0000000000000000
    PCM Polarization Energy =               0.0000000000000000
    EFP Energy =                            0.0000000000000000
    Total Energy =                       -305.8705561330179989
    Molecular point group: c1
  Basis Set: 6-31G*
  Basis Set:

  -Total Gradient:
     Atom            X                  Y                   Z
    ------   -----------------  -----------------  -----------------
       1       -0.000034479497     0.000113453910    -0.000098584099
       2        0.000341491630    -0.000579532600    -0.000186698892
       3       -0.000383456788     0.000529965293    -0.000251200008
       4       -0.000117830324     0.000319165518     0.000264859261
       5        0.000009662101    -0.000021614098     0.000010222338
       6        0.000221842414    -0.000343288112     0.000276889850
       7       -0.000021843099    -0.000010430097    -0.000010583917
       8        0.000008546449    -0.000005712263     0.000016070879
       9       -0.000029660537    -0.000004828133     0.000001298401
      10        0.000003275619    -0.000002907804    -0.000011329532
      11       -0.000036281808    -0.000017046526    -0.000015733534
      12        0.000003290740     0.000004227566     0.000005354040
      13        0.000027193977     0.000018407901     0.000000011408
      14        0.000008249118     0.000000139447    -0.000000576194

  **** Optimization is complete! (in 5 steps) ****
    Final optimized geometry and variables:
    Molecular point group: c1

    Geometry (in Angstrom), charge = 0, multiplicity = 1:

    O            1.180958741867    -0.429752602926     0.986215435582
    C            0.276718946484    -0.300861506567     0.225234920747
    C           -0.984630318944    -1.130717755641     0.237622792270
    O            0.276202101017     0.595319611365    -0.753226166967
    C           -2.270239573022    -0.300139460924     0.226270774852
    H           -0.954788496713    -1.777393247405    -0.635051504733
    H           -0.935286146122    -1.762320403943     1.114415634000
    H           -2.340617867983     0.302004967966    -0.670267531970
    H           -3.133915542862    -0.954682890575     0.266571486102
    H           -2.315602148316     0.362094767522     1.084796076504
    C            1.420811359964     1.421351318059    -0.868376611064
    H            1.564009526309     1.999061409344     0.033285076522
    H            1.230510579352     2.074753554202    -1.705494073068
    H            2.302465731300     0.824304791137    -1.051687237656

  Mulliken Charges: (a.u.)
   Center  Symbol    Alpha    Beta     Spin     Total
       1     O     4.28558  4.28558  0.00000 -0.57115
       2     C     2.61289  2.61289  0.00000  0.77423
       3     C     3.19987  3.19987  0.00000 -0.39974
       4     O     4.30238  4.30238  0.00000 -0.60475
       5     C     3.24727  3.24727  0.00000 -0.49454
       6     H     0.40262  0.40262  0.00000  0.19476
       7     H     0.39753  0.39753  0.00000  0.20494
       8     H     0.40593  0.40593  0.00000  0.18814
       9     H     0.41359  0.41359  0.00000  0.17281
      10     H     0.41419  0.41419  0.00000  0.17163
      11     C     3.09221  3.09221  0.00000 -0.18442
      12     H     0.40855  0.40855  0.00000  0.18291
      13     H     0.40875  0.40875  0.00000  0.18250
      14     H     0.40865  0.40865  0.00000  0.18269

   Total alpha = 24.00000, Total beta = 24.00000, Total charge = -0.00000
