  ==> Input File <==

--------------------------------------------------------------------------
set {
	reference rhf
	basis cc-pvtz
}

set_num_threads( 4 )
memory 2 gb

molecule MOL {
0 1

H	 -2.783086	 0.407036	 -0.176777
C	 -2.235584	 0.586153	 -1.092408
C	 -0.961851	 -0.243518	 -1.137850
H	 -2.011858	 1.643605	 -1.136627
H	 -2.876764	 0.336412	 -1.929320
C	 0.000000	 0.039916	 0.000014
H	 -0.427104	 -0.079615	 -2.069558
H	 -1.191605	 -1.305457	 -1.118086
C	 1.286532	 -0.763243	 0.000268
O	 -0.240027	 0.843294	 0.841054
C	 2.547023	 0.087626	 -0.000114
H	 1.264245	 -1.421103	 -0.864380
H	 1.264290	 -1.420353	 0.865489
H	 2.584452	 0.725630	 -0.872909
H	 3.427035	 -0.544422	 0.000125
H	 2.584484	 0.726356	 0.872143

	symmetry c1
}
set optking {
	frozen_dihedral = ("
		3 6 9 12
	")
}

ee = optimize('scf')
oeprop('DIPOLE', 'QUADRUPOLE', 'MULLIKEN_CHARGES')
f=open( 'psi4out.xyz', 'w' )
f.write( "16  " )
f.write( str(ee) + "\n" )
f.write( MOL.save_string_xyz() )
f.close()
--------------------------------------------------------------------------

    Molecular point group: c1
  Charge       = 0
  Multiplicity = 1
  Basis Set: CC-PVTZ
  Basis Set:
  @DF-RHF Final Energy:  -270.12949664757491
    Total Energy =                       -270.1294966475750243
    Molecular point group: c1
  Basis Set: CC-PVTZ
  Basis Set:
  Basis Set: CC-PVTZ
  Basis Set:
  @DF-RHF Final Energy:  -270.13000431498534
    Total Energy =                       -270.1300043149853991
  Basis Set: CC-PVTZ
  Basis Set:
  Basis Set: CC-PVTZ
  Basis Set:
  @DF-RHF Final Energy:  -270.12821383111464
    Total Energy =                       -270.1282138311147492
  Basis Set: CC-PVTZ
  Basis Set:
  Basis Set: CC-PVTZ
  Basis Set:
  @DF-RHF Final Energy:  -270.13008812316525
    Total Energy =                       -270.1300881231651374
  Basis Set: CC-PVTZ
  Basis Set:
  Basis Set: CC-PVTZ
  Basis Set:
  @DF-RHF Final Energy:  -270.13011264310035
    Total Energy =                       -270.1301126431000625
  Basis Set: CC-PVTZ
  Basis Set:
  Charge       = 0
  Multiplicity = 1
  Basis Set: CC-PVTZ
  Basis Set:

    Orbital Energies (a.u.)
    -----------------------

    Doubly Occupied:

       1A    -20.537338     2A    -11.317821     3A    -11.233185
       4A    -11.230701     5A    -11.219142     6A    -11.211834
       7A     -1.398194     8A     -1.069970     9A     -1.037929
      10A     -0.915028    11A     -0.851359    12A     -0.726989
      13A     -0.667766    14A     -0.643953    15A     -0.624642
      16A     -0.603143    17A     -0.566209    18A     -0.537238
      19A     -0.529341    20A     -0.512761    21A     -0.503269
      22A     -0.497562    23A     -0.480183    24A     -0.398660

  @DF-RHF Final Energy:  -270.13011316557186

   => Energetics <=

    Nuclear Repulsion Energy =            240.4954665225638735
    One-Electron Energy =                -842.6227251347113452
    Two-Electron Energy =                 331.9971454465757574
    DFT Exchange-Correlation Energy =       0.0000000000000000
    Empirical Dispersion Energy =           0.0000000000000000
    PCM Polarization Energy =               0.0000000000000000
    EFP Energy =                            0.0000000000000000
    Total Energy =                       -270.1301131655716858
    Molecular point group: c1
  Basis Set: CC-PVTZ
  Basis Set:

  -Total Gradient:
     Atom            X                  Y                   Z
    ------   -----------------  -----------------  -----------------
       1       -0.000000167653     0.000005222946    -0.000005079731
       2       -0.000025085930    -0.000034499662     0.000028616036
       3        0.000258228732     0.000396411650    -0.000307651793
       4        0.000014614945    -0.000008100220    -0.000001011795
       5       -0.000003717024     0.000001121701    -0.000000666891
       6       -0.000408788822    -0.000645378570     0.000522739582
       7       -0.000004333821    -0.000004566435    -0.000006038807
       8        0.000001360667     0.000017786740     0.000018437131
       9        0.000525553236     0.000779856113    -0.000608798497
      10       -0.000022886597     0.000022536515    -0.000014826305
      11       -0.000049176696    -0.000039533628     0.000012330655
      12       -0.000283039068    -0.000479103867     0.000361316208
      13       -0.000003230474    -0.000005757402     0.000003947675
      14       -0.000002310243    -0.000002666198     0.000002915977
      15        0.000002210172    -0.000004614412    -0.000001659866
      16        0.000000768574     0.000001284727    -0.000004569576

  **** Optimization is complete! (in 6 steps) ****
    Final optimized geometry and variables:
    Molecular point group: c1

    Geometry (in Angstrom), charge = 0, multiplicity = 1:

    H           -2.846876912961     0.312914692540     0.073598583220
    C           -2.306450401452     0.498948670487    -0.844972322908
    C           -1.039362766789    -0.337808360322    -0.909949730376
    H           -2.075195326248     1.555194163106    -0.878318563552
    H           -2.957030342412     0.263818111650    -1.678847159431
    C           -0.063226262718    -0.077702758862     0.216228064994
    H           -0.505443348100    -0.169002789632    -1.842475399502
    H           -1.270591176329    -1.400369235671    -0.900474139827
    C            1.220033317462    -0.892199706095     0.220156109800
    O           -0.274991309703     0.726335470941     1.064792006648
    C            2.462523738889    -0.003653749010     0.236575745882
    H            1.241699041906    -1.568569548768    -0.625854491745
    H            1.197020359927    -1.502887804253     1.116997484584
    H            2.522907558533     0.602334550859    -0.660769161322
    H            3.359730169845    -0.607708933578     0.290578254133
    H            2.441364109594     0.660102767733     1.089280502614

  Mulliken Charges: (a.u.)
   Center  Symbol    Alpha    Beta     Spin     Total
       1     H     0.44786  0.44786  0.00000  0.10427
       2     C     3.14109  3.14109  0.00000 -0.28218
       3     C     3.10266  3.10266  0.00000 -0.20531
       4     H     0.44762  0.44762  0.00000  0.10477
       5     H     0.45080  0.45080  0.00000  0.09839
       6     C     2.86636  2.86636  0.00000  0.26728
       7     H     0.44570  0.44570  0.00000  0.10859
       8     H     0.44513  0.44513  0.00000  0.10973
       9     C     3.09488  3.09488  0.00000 -0.18976
      10     O     4.17726  4.17726  0.00000 -0.35452
      11     C     3.14470  3.14470  0.00000 -0.28941
      12     H     0.44756  0.44756  0.00000  0.10489
      13     H     0.44366  0.44366  0.00000  0.11268
      14     H     0.45563  0.45563  0.00000  0.08875
      15     H     0.44878  0.44878  0.00000  0.10245
      16     H     0.44031  0.44031  0.00000  0.11938

   Total alpha = 24.00000, Total beta = 24.00000, Total charge = -0.00000
