  ==> Input File <==

--------------------------------------------------------------------------
set {
	reference rhf
	basis 6-31G*
}

set_num_threads( 4 )
memory 2 gb

molecule MOL {
0 1

H	 -2.698709	 -0.000305	 0.034435
C	 -1.693833	 0.000034	 0.434417
O	 -0.828952	 -0.000968	 -0.659236
H	 -1.574200	 0.882896	 1.055746
H	 -1.574147	 -0.881698	 1.057355
C	 -1.153944	 0.793106	 -1.776523
C	 -2.442877	 0.341580	 -2.460403
C	 -1.161086	 2.285594	 -1.451892
H	 -0.333262	 0.605932	 -2.458784
H	 -2.423551	 -0.729638	 -2.629721
H	 -2.546244	 0.836371	 -3.420993
H	 -3.324613	 0.580370	 -1.874157
H	 -0.254956	 2.559782	 -0.922547
H	 -1.208095	 2.864595	 -2.368960
H	 -2.013378	 2.569700	 -0.843022

	symmetry c1
}
set optking {
	frozen_dihedral = ("
		6 3 2 1
	")
}

ee = optimize('scf')
oeprop('DIPOLE', 'QUADRUPOLE', 'MULLIKEN_CHARGES')
f=open( 'psi4out.xyz', 'w' )
f.write( "15  " )
f.write( str(ee) + "\n" )
f.write( MOL.save_string_xyz() )
f.close()
--------------------------------------------------------------------------

    Molecular point group: c1
  Charge       = 0
  Multiplicity = 1
  Basis Set: 6-31G*
  Basis Set:
  @DF-RHF Final Energy:  -232.13447225733321
    Total Energy =                       -232.1344722573329591
    Molecular point group: c1
  Basis Set: 6-31G*
  Basis Set:
  Basis Set: 6-31G*
  Basis Set:
  @DF-RHF Final Energy:  -232.13645035665601
    Total Energy =                       -232.1364503566561552
  Basis Set: 6-31G*
  Basis Set:
  Basis Set: 6-31G*
  Basis Set:
  @DF-RHF Final Energy:  -232.13724431603816
    Total Energy =                       -232.1372443160381067
  Basis Set: 6-31G*
  Basis Set:
  Basis Set: 6-31G*
  Basis Set:
  @DF-RHF Final Energy:  -232.13726794647718
    Total Energy =                       -232.1372679464770954
  Basis Set: 6-31G*
  Basis Set:
  Basis Set: 6-31G*
  Basis Set:
  @DF-RHF Final Energy:  -232.13727807913267
    Total Energy =                       -232.1372780791327841
  Basis Set: 6-31G*
  Basis Set:
  Charge       = 0
  Multiplicity = 1
  Basis Set: 6-31G*
  Basis Set:

    Orbital Energies (a.u.)
    -----------------------

    Doubly Occupied:

       1A    -20.547646     2A    -11.274492     3A    -11.261383
       4A    -11.211476     5A    -11.209642     6A     -1.369923
       7A     -1.050230     8A     -0.940264     9A     -0.930777
      10A     -0.781384    11A     -0.675270    12A     -0.639842
      13A     -0.632649    14A     -0.571692    15A     -0.563808
      16A     -0.553187    17A     -0.535412    18A     -0.499494
      19A     -0.497022    20A     -0.443119    21A     -0.405063

  @DF-RHF Final Energy:  -232.13727809854802

   => Energetics <=

    Nuclear Repulsion Energy =            198.8267017609697120
    One-Electron Energy =                -708.7404122850098247
    Two-Electron Energy =                 277.7764324254919757
    DFT Exchange-Correlation Energy =       0.0000000000000000
    Empirical Dispersion Energy =           0.0000000000000000
    PCM Polarization Energy =               0.0000000000000000
    EFP Energy =                            0.0000000000000000
    Total Energy =                       -232.1372780985481086
    Molecular point group: c1
  Basis Set: 6-31G*
  Basis Set:

  -Total Gradient:
     Atom            X                  Y                   Z
    ------   -----------------  -----------------  -----------------
       1        0.000201597990     0.001508296809    -0.000071802060
       2       -0.000460934028    -0.002405636270    -0.000078757627
       3        0.001018547889     0.001797708074     0.000585542038
       4       -0.000020454804    -0.000001048933    -0.000002605107
       5       -0.000034834373     0.000003022968     0.000019185969
       6       -0.000686849695    -0.000880897372    -0.000492349505
       7        0.000012782345     0.000013657556     0.000011430110
       8       -0.000017651469    -0.000014439864     0.000019415607
       9       -0.000002721219     0.000013051551    -0.000029020028
      10       -0.000019544592    -0.000010363341     0.000020907173
      11        0.000013353513    -0.000015419152     0.000005323107
      12        0.000008830102     0.000004672224    -0.000012810890
      13       -0.000012656117    -0.000006856092     0.000024866540
      14        0.000010153522    -0.000014457003     0.000006433168
      15       -0.000009619065     0.000008708843    -0.000005758496

  **** Optimization is complete! (in 6 steps) ****
    Final optimized geometry and variables:
    Molecular point group: c1

    Geometry (in Angstrom), charge = 0, multiplicity = 1:

    H           -1.264332438944    -0.508225338365     1.370571749428
    C           -0.213978158999    -0.619233631943     1.620196626015
    O            0.601776690378    -0.717008558641     0.492217194874
    H            0.073578528118     0.219177419942     2.249246971339
    H           -0.087805652070    -1.532107633891     2.186753440942
    C            0.317546820931     0.104170970162    -0.616408578500
    C           -0.946546253297    -0.340270552380    -1.349736339863
    C            0.295023066896     1.588305574606    -0.257955281849
    H            1.159568801298    -0.066989117355    -1.276520979583
    H           -0.904103201409    -1.404445732398    -1.553458432418
    H           -1.033652794092     0.185691947582    -2.295566204162
    H           -1.847471045708    -0.137068531757    -0.779923591430
    H            1.194644381054     1.859941798753     0.283917950956
    H            0.247213671614     2.189729307964    -1.160270411061
    H           -0.563872375440     1.846365699761     0.353981829566

  Mulliken Charges: (a.u.)
   Center  Symbol    Alpha    Beta     Spin     Total
       1     H     0.43069  0.43069  0.00000  0.13862
       2     C     3.08089  3.08089  0.00000 -0.16179
       3     O     4.31270  4.31270  0.00000 -0.62540
       4     H     0.42733  0.42733  0.00000  0.14535
       5     H     0.41330  0.41330  0.00000  0.17339
       6     C     2.90982  2.90982  0.00000  0.18036
       7     C     3.24998  3.24998  0.00000 -0.49997
       8     C     3.25457  3.25457  0.00000 -0.50914
       9     H     0.41542  0.41542  0.00000  0.16916
      10     H     0.41126  0.41126  0.00000  0.17747
      11     H     0.42063  0.42063  0.00000  0.15874
      12     H     0.42194  0.42194  0.00000  0.15611
      13     H     0.41171  0.41171  0.00000  0.17657
      14     H     0.41854  0.41854  0.00000  0.16293
      15     H     0.42120  0.42120  0.00000  0.15760

   Total alpha = 21.00000, Total beta = 21.00000, Total charge = -0.00000
