  ==> Input File <==

--------------------------------------------------------------------------
set {
	reference rhf
	basis 6-31G*
}

set_num_threads( 1 )
memory 2 gb

molecule MOL {
0 1

O	 -2.021257	 0.135387	 0.852937
C	 -1.083277	 0.139568	 0.115197
C	 0.323299	 -0.082943	 0.642902
C	 -1.240457	 0.389703	 -1.368230
C	 1.355627	 -0.005344	 -0.493127
H	 0.396251	 -1.044647	 1.143147
H	 0.528637	 0.693580	 1.371677
C	 2.786168	 -0.195604	 0.007473
H	 1.132807	 -0.760304	 -1.243899
H	 1.259610	 0.958506	 -0.981915
H	 3.495561	 -0.130713	 -0.811210
H	 2.912696	 -1.165395	 0.480041
H	 3.049284	 0.565503	 0.735850
H	 -0.566114	 1.173710	 -1.700290
H	 -2.261938	 0.665046	 -1.590714
H	 -0.981359	 -0.510402	 -1.919485

	symmetry c1
}
set optking {
	frozen_dihedral = ("
		9 5 3 2
	")
}

ee = energy('scf')
oeprop('DIPOLE', 'QUADRUPOLE', 'MULLIKEN_CHARGES')
f=open( 'psi4out.xyz', 'w' )
f.write( "16  " )
f.write( str(ee) + "\n" )
f.write( MOL.save_string_xyz() )
f.close()
--------------------------------------------------------------------------

    Molecular point group: c1

    Geometry (in Angstrom), charge = 0, multiplicity = 1:

       Center              X                  Y                   Z               Mass
    ------------   -----------------  -----------------  -----------------  -----------------
           O         -2.049164381806     0.070809047731     0.900093481363    15.994914619560
           C         -1.111184381806     0.074990047731     0.162353481363    12.000000000000
           C          0.295391618194    -0.147520952269     0.690058481363    12.000000000000
           C         -1.268364381806     0.325125047731    -1.321073518637    12.000000000000
           C          1.327719618194    -0.069921952269    -0.445970518637    12.000000000000
           H          0.368343618194    -1.109224952269     1.190303481363     1.007825032070
           H          0.500729618194     0.629002047731     1.418833481363     1.007825032070
           C          2.758260618194    -0.260181952269     0.054629481363    12.000000000000
           H          1.104899618194    -0.824881952269    -1.196742518637     1.007825032070
           H          1.231702618194     0.893928047731    -0.934758518637     1.007825032070
           H          3.467653618194    -0.195290952269    -0.764053518637     1.007825032070
           H          2.884788618194    -1.229972952269     0.527197481363     1.007825032070
           H          3.021376618194     0.500925047731     0.783006481363     1.007825032070
           H         -0.594021381806     1.109132047731    -1.653133518637     1.007825032070
           H         -2.289845381806     0.600468047731    -1.543557518637     1.007825032070
           H         -1.009266381806    -0.574979952269    -1.872328518637     1.007825032070

  Charge       = 0
  Multiplicity = 1
  Basis Set: 6-31G*
  Basis Set:

    Orbital Energies (a.u.)
    -----------------------

    Doubly Occupied:

       1A    -20.546144     2A    -11.325400     3A    -11.232542
       4A    -11.231798     5A    -11.227058     6A    -11.220579
       7A     -1.392253     8A     -1.090508     9A     -1.007897
      10A     -0.951765    11A     -0.833648    12A     -0.734138
      13A     -0.662014    14A     -0.654568    15A     -0.625677
      16A     -0.594124    17A     -0.575959    18A     -0.558069
      19A     -0.542660    20A     -0.517551    21A     -0.506087
      22A     -0.486659    23A     -0.468748    24A     -0.397360

  @DF-RHF Final Energy:  -270.02211534245816

   => Energetics <=

    Nuclear Repulsion Energy =            238.8055628152484644
    One-Electron Energy =                -838.8888694249411628
    Two-Electron Energy =                 330.0611912672341077
    DFT Exchange-Correlation Energy =       0.0000000000000000
    Empirical Dispersion Energy =           0.0000000000000000
    PCM Polarization Energy =               0.0000000000000000
    EFP Energy =                            0.0000000000000000
    Total Energy =                       -270.0221153424586191

  Mulliken Charges: (a.u.)
   Center  Symbol    Alpha    Beta     Spin     Total
       1     O     4.26277  4.26277  0.00000 -0.52555
       2     C     2.73604  2.73604  0.00000  0.52792
       3     C     3.19992  3.19992  0.00000 -0.39983
       4     C     3.29561  3.29561  0.00000 -0.59121
       5     C     3.16810  3.16810  0.00000 -0.33620
       6     H     0.39963  0.39963  0.00000  0.20074
       7     H     0.39987  0.39987  0.00000  0.20027
       8     C     3.23803  3.23803  0.00000 -0.47606
       9     H     0.41838  0.41838  0.00000  0.16325
      10     H     0.41865  0.41865  0.00000  0.16270
      11     H     0.41643  0.41643  0.00000  0.16714
      12     H     0.41931  0.41931  0.00000  0.16138
      13     H     0.41930  0.41930  0.00000  0.16140
      14     H     0.40765  0.40765  0.00000  0.18469
      15     H     0.39475  0.39475  0.00000  0.21051
      16     H     0.40557  0.40557  0.00000  0.18886

   Total alpha = 24.00000, Total beta = 24.00000, Total charge = -0.00000
