  ==> Input File <==

--------------------------------------------------------------------------
set {
	reference rhf
	basis 6-31G*
}

set_num_threads( 4 )
memory 2 gb

molecule MOL {
0 1

H	 1.681120	 3.044617	 3.947947
C	 1.282879	 2.119854	 4.383653
C	 0.008364	 1.616588	 3.755206
O	 1.849985	 1.591385	 5.284131
C	 0.114637	 1.490011	 2.229119
H	 -0.250208	 0.670552	 4.216579
H	 -0.774310	 2.333132	 4.001460
C	 1.093668	 0.405081	 1.773351
H	 -0.872977	 1.274474	 1.832324
H	 0.407574	 2.449889	 1.806533
C	 1.180775	 0.282413	 0.250794
H	 0.789855	 -0.549553	 2.197871
H	 2.084671	 0.610431	 2.173706
C	 2.148627	 -0.814315	 -0.201312
H	 0.186871	 0.087744	 -0.144163
H	 1.496611	 1.236019	 -0.170237
C	 3.580890	 -0.659131	 0.322722
H	 2.166869	 -0.852443	 -1.289387
H	 1.762857	 -1.776509	 0.128956
C	 4.324889	 0.564933	 -0.213704
H	 4.142010	 -1.551473	 0.056605
H	 3.564836	 -0.624694	 1.410140
H	 4.342616	 0.565491	 -1.300421
H	 3.866655	 1.493402	 0.110242
H	 5.353900	 0.572371	 0.132816

	symmetry c1
}
set optking {
	frozen_dihedral = ("
		8 11 14 18
	")
}

ee = optimize('scf')
oeprop('DIPOLE', 'QUADRUPOLE', 'MULLIKEN_CHARGES')
f=open( 'psi4out.xyz', 'w' )
f.write( "25  " )
f.write( str(ee) + "\n" )
f.write( MOL.save_string_xyz() )
f.close()
--------------------------------------------------------------------------

    Molecular point group: c1
  Charge       = 0
  Multiplicity = 1
  Basis Set: 6-31G*
  Basis Set:
  @DF-RHF Final Energy:  -387.11940139656178
    Total Energy =                       -387.1194013965620115
    Molecular point group: c1
  Basis Set: 6-31G*
  Basis Set:
  Basis Set: 6-31G*
  Basis Set:
  @DF-RHF Final Energy:  -387.11997271737243
    Total Energy =                       -387.1199727173720930
  Basis Set: 6-31G*
  Basis Set:
  Basis Set: 6-31G*
  Basis Set:
  @DF-RHF Final Energy:  -387.12028856809422
    Total Energy =                       -387.1202885680939971
  Basis Set: 6-31G*
  Basis Set:
  Basis Set: 6-31G*
  Basis Set:
  @DF-RHF Final Energy:  -387.12039541327391
    Total Energy =                       -387.1203954132743092
  Basis Set: 6-31G*
  Basis Set:
  Basis Set: 6-31G*
  Basis Set:
  @DF-RHF Final Energy:  -387.12047192879896
    Total Energy =                       -387.1204719287987928
  Basis Set: 6-31G*
  Basis Set:
  Basis Set: 6-31G*
  Basis Set:
  @DF-RHF Final Energy:  -387.12048281672071
    Total Energy =                       -387.1204828167205960
  Basis Set: 6-31G*
  Basis Set:
  Basis Set: 6-31G*
  Basis Set:
  @DF-RHF Final Energy:  -387.12048494506479
    Total Energy =                       -387.1204849450643906
  Basis Set: 6-31G*
  Basis Set:
  Charge       = 0
  Multiplicity = 1
  Basis Set: 6-31G*
  Basis Set:

    Orbital Energies (a.u.)
    -----------------------

    Doubly Occupied:

       1A    -20.562289     2A    -11.326404     3A    -11.235513
       4A    -11.234791     5A    -11.223678     6A    -11.219965
       7A    -11.217419     8A    -11.216372     9A    -11.210325
      10A     -1.402215    11A     -1.104197    12A     -1.068571
      13A     -1.010471    14A     -0.944489    15A     -0.875334
      16A     -0.830455    17A     -0.788726    18A     -0.767407
      19A     -0.665643    20A     -0.661319    21A     -0.631658
      22A     -0.627089    23A     -0.610172    24A     -0.588973
      25A     -0.564363    26A     -0.558850    27A     -0.537909
      28A     -0.522396    29A     -0.513670    30A     -0.499649
      31A     -0.487452    32A     -0.480585    33A     -0.458395
      34A     -0.452049    35A     -0.445569    36A     -0.409756

  @DF-RHF Final Energy:  -387.12048549140064

   => Energetics <=

    Nuclear Repulsion Energy =            450.1129152404766387
    One-Electron Energy =               -1416.5585629274869461
    Two-Electron Energy =                 579.3251621956096642
    DFT Exchange-Correlation Energy =       0.0000000000000000
    Empirical Dispersion Energy =           0.0000000000000000
    PCM Polarization Energy =               0.0000000000000000
    EFP Energy =                            0.0000000000000000
    Total Energy =                       -387.1204854914005864
    Molecular point group: c1
  Basis Set: 6-31G*
  Basis Set:

  -Total Gradient:
     Atom            X                  Y                   Z
    ------   -----------------  -----------------  -----------------
       1        0.000005612384    -0.000004622736    -0.000005574857
       2        0.000004641522    -0.000007585104    -0.000003248868
       3       -0.000005304026    -0.000006765298    -0.000001123292
       4       -0.000003866280     0.000008257567     0.000009984213
       5       -0.000009974334    -0.000011357718    -0.000001504221
       6        0.000000199440     0.000000006807    -0.000003752816
       7        0.000000162477     0.000000557430     0.000003589939
       8        0.000665590045     0.000519324174    -0.000020673361
       9        0.000002950841     0.000001396015    -0.000006763643
      10       -0.000000306443     0.000005208810     0.000005314126
      11       -0.000716815179    -0.000574692111    -0.000006629737
      12        0.000025034401    -0.000003405504     0.000008223362
      13       -0.000007011095     0.000027835777    -0.000005358948
      14       -0.000792445768    -0.000657521734    -0.000006163732
      15        0.000000252871     0.000015492022    -0.000010016725
      16        0.000014119341    -0.000011293086     0.000002240934
      17        0.000001067368     0.000015959856     0.000011891812
      18        0.000854241868     0.000686989880    -0.000002148631
      19       -0.000010065956     0.000009624979     0.000021223241
      20       -0.000042173892     0.000000633561     0.000039871524
      21        0.000005498619     0.000009556291    -0.000020266895
      22        0.000005235146    -0.000025572879    -0.000007951487
      23        0.000000394300     0.000000366149     0.000000517155
      24        0.000002782553     0.000000864693    -0.000001944438
      25        0.000000179797     0.000000742158     0.000000265340

  **** Optimization is complete! (in 8 steps) ****
    Final optimized geometry and variables:
    Molecular point group: c1

    Geometry (in Angstrom), charge = 0, multiplicity = 1:

    H           -0.200318644406     2.397642171946     1.982665893390
    C           -0.533667689202     1.450639793366     2.425297537207
    C           -1.773537050817     0.858856294740     1.804690562679
    O            0.068409270131     0.970122356759     3.330018234898
    C           -1.658547276661     0.717779532758     0.280354060785
    H           -1.971285018704    -0.095470456336     2.279007726806
    H           -2.600378822441     1.527296612747     2.041294675649
    C           -0.617101439538    -0.314453870594    -0.160688559325
    H           -2.631608120884     0.440495242070    -0.114260899718
    H           -1.421015630671     1.687172545193    -0.154968345001
    C           -0.526483921126    -0.442004290313    -1.683442453457
    H           -0.869956551103    -1.280914263191     0.271591158933
    H            0.354260132465    -0.047001950217     0.246986708980
    C            0.395555308555    -1.563763448366    -2.179722556303
    H           -1.522678699886    -0.624810943777    -2.081029495232
    H           -0.209110053192     0.509856666634    -2.102999829589
    C            1.857547069678    -1.493718792528    -1.718825391332
    H            0.381244421106    -1.559211612929    -3.267833635856
    H           -0.019834243842    -2.520735267004    -1.871040955855
    C            2.600033428714    -0.233800955361    -2.167012432584
    H            2.375055642422    -2.363572876433    -2.115679661741
    H            1.914366133857    -1.582503698906    -0.637545263155
    H            2.554896252147    -0.116166084361    -3.246457987574
    H            2.184404900246     0.663859406454    -1.720276171863
    H            3.646801749728    -0.281970594430    -1.883790895295

  Mulliken Charges: (a.u.)
   Center  Symbol    Alpha    Beta     Spin     Total
       1     H     0.43261  0.43261  0.00000  0.13479
       2     C     2.83100  2.83100  0.00000  0.33800
       3     C     3.20789  3.20789  0.00000 -0.41579
       4     O     4.23781  4.23781  0.00000 -0.47562
       5     C     3.16637  3.16637  0.00000 -0.33274
       6     H     0.39974  0.39974  0.00000  0.20052
       7     H     0.40668  0.40668  0.00000  0.18665
       8     C     3.15719  3.15719  0.00000 -0.31439
       9     H     0.41275  0.41275  0.00000  0.17450
      10     H     0.41973  0.41973  0.00000  0.16055
      11     C     3.15598  3.15598  0.00000 -0.31196
      12     H     0.41858  0.41858  0.00000  0.16285
      13     H     0.41638  0.41638  0.00000  0.16724
      14     C     3.15313  3.15313  0.00000 -0.30626
      15     H     0.42114  0.42114  0.00000  0.15772
      16     H     0.42151  0.42151  0.00000  0.15699
      17     C     3.15628  3.15628  0.00000 -0.31256
      18     H     0.42186  0.42186  0.00000  0.15628
      19     H     0.42150  0.42150  0.00000  0.15699
      20     C     3.24115  3.24115  0.00000 -0.48230
      21     H     0.41985  0.41985  0.00000  0.16031
      22     H     0.41905  0.41905  0.00000  0.16191
      23     H     0.42210  0.42210  0.00000  0.15580
      24     H     0.42210  0.42210  0.00000  0.15581
      25     H     0.41764  0.41764  0.00000  0.16472

   Total alpha = 36.00000, Total beta = 36.00000, Total charge =  0.00000
