  ==> Input File <==

--------------------------------------------------------------------------
set {
	reference rhf
	basis cc-pvtz
}

set_num_threads( 4 )
memory 2 gb

molecule MOL {
0 1

H	 5.269878	 0.195679	 1.068175
C	 4.673900	 -0.208485	 0.258034
C	 3.190199	 -0.204714	 0.610086
H	 4.865136	 0.391893	 -0.624684
H	 5.027838	 -1.214511	 0.056939
C	 2.319208	 -0.778154	 -0.505491
H	 2.876954	 0.809861	 0.827925
H	 3.035335	 -0.782733	 1.518235
C	 1.942463	 -2.242339	 -0.302731
H	 1.414078	 -0.190595	 -0.596822
H	 2.849641	 -0.690454	 -1.449278
C	 0.929317	 -2.489643	 0.802194
H	 1.499216	 -2.638368	 -1.212928
H	 2.824226	 -2.848684	 -0.117370
C	 0.800860	 -3.905772	 1.328927
O	 0.244898	 -1.616025	 1.228383
C	 0.309658	 -4.911428	 0.282151
H	 0.114711	 -3.872107	 2.164335
H	 1.770666	 -4.221364	 1.704525
C	 0.099792	 -6.305286	 0.867628
H	 -0.625190	 -4.556144	 -0.142615
H	 1.019012	 -4.974057	 -0.536931
C	 -0.396281	 -7.314472	 -0.162218
H	 -0.610757	 -6.245556	 1.686544
H	 1.033293	 -6.657156	 1.298135
H	 -1.344805	 -7.004939	 -0.587861
H	 0.311436	 -7.423392	 -0.977285
H	 -0.537927	 -8.291403	 0.284830

	symmetry c1
}
set optking {
	frozen_dihedral = ("
		10 6 3 2
	")
}

ee = optimize('scf')
oeprop('DIPOLE', 'QUADRUPOLE', 'MULLIKEN_CHARGES')
f=open( 'psi4out.xyz', 'w' )
f.write( "28  " )
f.write( str(ee) + "\n" )
f.write( MOL.save_string_xyz() )
f.close()
--------------------------------------------------------------------------

    Molecular point group: c1
  Charge       = 0
  Multiplicity = 1
  Basis Set: CC-PVTZ
  Basis Set:
  @DF-RHF Final Energy:  -426.31540020175544
    Total Energy =                       -426.3154002017552102
    Molecular point group: c1
  Basis Set: CC-PVTZ
  Basis Set:
  Basis Set: CC-PVTZ
  Basis Set:
  @DF-RHF Final Energy:  -426.31569134533424
    Total Energy =                       -426.3156913453342440
  Basis Set: CC-PVTZ
  Basis Set:
  Basis Set: CC-PVTZ
  Basis Set:
  @DF-RHF Final Energy:  -426.31556099364070
    Total Energy =                       -426.3155609936400197
  Basis Set: CC-PVTZ
  Basis Set:
  Basis Set: CC-PVTZ
  Basis Set:
  @DF-RHF Final Energy:  -426.31574549187394
    Total Energy =                       -426.3157454918742815
  Basis Set: CC-PVTZ
  Basis Set:
  @DF-RHF Final Energy:  -426.31574192383118
    Total Energy =                       -426.3157419238314105
  @DF-RHF Final Energy:  -426.31575225437450
    Total Energy =                       -426.3157522543747291
  @DF-RHF Final Energy:  -426.31575485770009
    Total Energy =                       -426.3157548576997442
  @DF-RHF Final Energy:  -426.31575790772763
    Total Energy =                       -426.3157579077279706
  @DF-RHF Final Energy:  -426.31576610440788
    Total Energy =                       -426.3157661044079987
  @DF-RHF Final Energy:  -426.31578651254870
    Total Energy =                       -426.3157865125489252
  @DF-RHF Final Energy:  -426.31591363505390
    Total Energy =                       -426.3159136350534482
  @DF-RHF Final Energy:  -426.31628998794918
    Total Energy =                       -426.3162899879491761
  @DF-RHF Final Energy:  -426.31636384826368
    Total Energy =                       -426.3163638482633360
  @DF-RHF Final Energy:  -426.31624365913581
    Total Energy =                       -426.3162436591360347
  @DF-RHF Final Energy:  -426.31639435614193
    Total Energy =                       -426.3163943561423821
  @DF-RHF Final Energy:  -426.31640593546217
    Total Energy =                       -426.3164059354621713
  @DF-RHF Final Energy:  -426.31641300008880
    Total Energy =                       -426.3164130000885734
  @DF-RHF Final Energy:  -426.31642165912137
    Total Energy =                       -426.3164216591218292
  @DF-RHF Final Energy:  -426.31643826865979
    Total Energy =                       -426.3164382686594536
  @DF-RHF Final Energy:  -426.31661025310279
    Total Energy =                       -426.3166102531031356
  @DF-RHF Final Energy:  -426.31702864994236
    Total Energy =                       -426.3170286499430404
  @DF-RHF Final Energy:  -426.31769406773833
    Total Energy =                       -426.3176940677388984
  @DF-RHF Final Energy:  -426.18002965210826
    Total Energy =                       -426.1800296521086011
  @DF-RHF Final Energy:  -426.29668537989892
    Total Energy =                       -426.2966853798991451
  @DF-RHF Final Energy:  -426.31730367599266
    Total Energy =                       -426.3173036759919796
  @DF-RHF Final Energy:  -426.31799841306758
    Total Energy =                       -426.3179984130674711
  @DF-RHF Final Energy:  -426.31805242119435
    Total Energy =                       -426.3180524211945794
  Basis Set: CC-PVTZ
  Basis Set:
  @DF-RHF Final Energy:  -426.31805733605233
    Total Energy =                       -426.3180573360521066
  Basis Set: CC-PVTZ
  Basis Set:
  Basis Set: CC-PVTZ
  Basis Set:
  @DF-RHF Final Energy:  -426.31806800893241
    Total Energy =                       -426.3180680089330963
  Basis Set: CC-PVTZ
  Basis Set:
  Basis Set: CC-PVTZ
  Basis Set:
  @DF-RHF Final Energy:  -426.31806907103498
    Total Energy =                       -426.3180690710350973
  Basis Set: CC-PVTZ
  Basis Set:
  Charge       = 0
  Multiplicity = 1
  Basis Set: CC-PVTZ
  Basis Set:

    Orbital Energies (a.u.)
    -----------------------

    Doubly Occupied:

       1A    -20.537860     2A    -11.317496     3A    -11.229228
       4A    -11.229034     5A    -11.217226     6A    -11.214836
       7A    -11.214682     8A    -11.211930     9A    -11.207880
      10A    -11.207637    11A     -1.398331    12A     -1.089598
      13A     -1.078183    14A     -1.022839    15A     -0.991278
      16A     -0.912924    17A     -0.869020    18A     -0.807558
      19A     -0.790353    20A     -0.723512    21A     -0.665775
      22A     -0.657927    23A     -0.636355    24A     -0.620237
      25A     -0.602125    26A     -0.595392    27A     -0.582439
      28A     -0.562669    29A     -0.539125    30A     -0.527546
      31A     -0.525863    32A     -0.513945    33A     -0.492554
      34A     -0.480673    35A     -0.474163    36A     -0.474033
      37A     -0.468955    38A     -0.460374    39A     -0.458769
      40A     -0.396683

  @DF-RHF Final Energy:  -426.31806948299368

   => Energetics <=

    Nuclear Repulsion Energy =            531.9146133264205218
    One-Electron Energy =               -1632.4513593467213468
    Two-Electron Energy =                 674.2186765373070330
    DFT Exchange-Correlation Energy =       0.0000000000000000
    Empirical Dispersion Energy =           0.0000000000000000
    PCM Polarization Energy =               0.0000000000000000
    EFP Energy =                            0.0000000000000000
    Total Energy =                       -426.3180694829937920
    Molecular point group: c1
  Basis Set: CC-PVTZ
  Basis Set:

  -Total Gradient:
     Atom            X                  Y                   Z
    ------   -----------------  -----------------  -----------------
       1       -0.000003447406    -0.000002335176    -0.000007249764
       2        0.000061687130     0.001902657409    -0.001323536661
       3        0.000399979383    -0.002046790300     0.001663252695
       4       -0.000005369450    -0.000005229773    -0.000011238616
       5        0.000004017056     0.000004866859     0.000003766062
       6       -0.002524602376    -0.002023493024     0.000715636843
       7        0.000037220533    -0.000045979783     0.000007964559
       8       -0.000002486206     0.000001659645    -0.000015960499
       9       -0.000005090496     0.000004855858     0.000009070045
      10        0.002090245698     0.002218265798    -0.001044641814
      11       -0.000034660382    -0.000002203220     0.000010440289
      12       -0.000006505803    -0.000004141084     0.000013104828
      13       -0.000003947414     0.000006627141    -0.000004928887
      14       -0.000011123374     0.000004109380    -0.000005850259
      15        0.000044957074     0.000025323063     0.000050534471
      16        0.000000808437    -0.000019222441    -0.000020841672
      17       -0.000038142717    -0.000027926468    -0.000018121534
      18       -0.000021263415    -0.000008079709    -0.000012963832
      19       -0.000016284009     0.000006476341    -0.000020228209
      20        0.000017918339     0.000014016367     0.000003450376
      21        0.000019412532     0.000002269015     0.000002992330
      22        0.000007267685     0.000000921134     0.000008502774
      23       -0.000003960041    -0.000006975182    -0.000004558125
      24       -0.000000866329     0.000002794289    -0.000002634019
      25       -0.000001007234     0.000000242848     0.000002751480
      26        0.000001093237    -0.000000371128     0.000000736181
      27       -0.000000782689     0.000001242115     0.000001321123
      28       -0.000005067760    -0.000003579973    -0.000000770165

  **** Optimization is complete! (in 31 steps) ****
    Final optimized geometry and variables:
    Molecular point group: c1

    Geometry (in Angstrom), charge = 0, multiplicity = 1:

    H            2.221418180234     4.115432547634     1.914945414159
    C            2.475797583736     3.528002481007     1.040029928677
    C            1.222094418091     3.056118489817     0.307944230702
    H            3.091155955820     4.144459558600     0.393765508529
    H            3.084627674970     2.692396721357     1.372264134247
    C            1.526932045658     2.184095984312    -0.922471033683
    H            0.659189200624     3.927623090406    -0.005952829406
    H            0.573755637282     2.520720689189     0.992382946741
    C            1.464913478884     0.684541001809    -0.657564959475
    H            0.856113073630     2.435762095272    -1.732316719221
    H            2.524492644707     2.420538462756    -1.280420806818
    C            0.063189715976     0.132595473844    -0.468776458016
    H            1.894526575954     0.135198355339    -1.492534958571
    H            2.064860624412     0.414151578772     0.206939681975
    C           -0.023299056048    -1.277351477358     0.081353585619
    O           -0.905177244925     0.761295125960    -0.748104847015
    C           -1.419771927961    -1.882336869716     0.049346712697
    H            0.353824190554    -1.241730924923     1.101498682733
    H            0.681555664415    -1.898382393917    -0.465603689242
    C           -1.462262409966    -3.294391887481     0.626587259378
    H           -2.098586669320    -1.239868603462     0.597625136334
    H           -1.780278168543    -1.894184877379    -0.973802906218
    C           -2.858957640320    -3.905647507719     0.595201815721
    H           -1.100782074746    -3.277180686225     1.651553744430
    H           -0.778191082626    -3.933430178199     0.074120081615
    H           -3.559522770439    -3.308078278447     1.168492280662
    H           -3.234847394736    -3.968867093423    -0.420369420613
    H           -2.859013474033    -4.906523906716     1.011282736720

  Mulliken Charges: (a.u.)
   Center  Symbol    Alpha    Beta     Spin     Total
       1     H     0.44830  0.44830  0.00000  0.10340
       2     C     3.14775  3.14775  0.00000 -0.29551
       3     C     3.08780  3.08780  0.00000 -0.17559
       4     H     0.45426  0.45426  0.00000  0.09148
       5     H     0.45841  0.45841  0.00000  0.08318
       6     C     3.09447  3.09447  0.00000 -0.18893
       7     H     0.44671  0.44671  0.00000  0.10659
       8     H     0.45219  0.45219  0.00000  0.09562
       9     C     3.11874  3.11874  0.00000 -0.23748
      10     H     0.43870  0.43870  0.00000  0.12259
      11     H     0.44984  0.44984  0.00000  0.10033
      12     C     2.87336  2.87336  0.00000  0.25328
      13     H     0.43560  0.43560  0.00000  0.12880
      14     H     0.44270  0.44270  0.00000  0.11460
      15     C     3.10850  3.10850  0.00000 -0.21700
      16     O     4.17642  4.17642  0.00000 -0.35284
      17     C     3.07881  3.07881  0.00000 -0.15762
      18     H     0.44552  0.44552  0.00000  0.10897
      19     H     0.44485  0.44485  0.00000  0.11030
      20     C     3.08576  3.08576  0.00000 -0.17151
      21     H     0.44457  0.44457  0.00000  0.11086
      22     H     0.44874  0.44874  0.00000  0.10252
      23     C     3.14972  3.14972  0.00000 -0.29943
      24     H     0.45569  0.45569  0.00000  0.08861
      25     H     0.45609  0.45609  0.00000  0.08781
      26     H     0.45369  0.45369  0.00000  0.09263
      27     H     0.45408  0.45408  0.00000  0.09183
      28     H     0.44874  0.44874  0.00000  0.10252

   Total alpha = 40.00000, Total beta = 40.00000, Total charge = -0.00000
