                              Psi4 1.0.54 Driver

  ==> Input File <==

--------------------------------------------------------------------------
set {
	reference rhf
	basis cc-pvtz
}

set_num_threads( 4 )
memory 2 gb

molecule MOL {
0 1

H	 3.318879	 -3.151385	 -2.157260
C	 3.126472	 -2.121141	 -2.433744
C	 1.801951	 -1.633602	 -1.856446
H	 3.953207	 -1.521038	 -2.069600
H	 3.128076	 -2.063632	 -3.517483
C	 1.491892	 -0.187046	 -2.235009
H	 1.826280	 -1.727438	 -0.776843
H	 0.998484	 -2.276115	 -2.209210
C	 0.168678	 0.326480	 -1.676187
H	 2.292704	 0.456679	 -1.892743
H	 1.459844	 -0.103505	 -3.317495
C	 0.166485	 0.574257	 -0.177158
H	 -0.083105	 1.277038	 -2.139664
H	 -0.646179	 -0.346894	 -1.925370
C	 -1.180025	 0.697761	 0.509157
O	 1.177304	 0.688997	 0.437947
C	 -2.285431	 -0.137488	 -0.145671
H	 -1.447360	 1.745713	 0.496200
H	 -1.065514	 0.394096	 1.546399
C	 -3.646545	 0.082747	 0.508954
H	 -2.348635	 0.118247	 -1.199806
H	 -2.034895	 -1.192387	 -0.096473
C	 -4.757412	 -0.737227	 -0.138149
H	 -3.900211	 1.137405	 0.459735
H	 -3.580878	 -0.166775	 1.564416
H	 -4.867876	 -0.486707	 -1.187777
H	 -4.549650	 -1.800049	 -0.072540
H	 -5.709585	 -0.556397	 0.346597

	symmetry c1
}
set optking {
	frozen_dihedral = ("
		16 12 15 17
	")
}

ee,wfn = optimize('scf', return_wfn=True)
oeprop( wfn, 'DIPOLE', 'QUADRUPOLE', 'MULLIKEN_CHARGES')
f=open( 'psi4out.xyz', 'w' )
f.write( "28  " )
f.write( str(ee) + "\n" )
f.write( MOL.save_string_xyz() )
f.close()
--------------------------------------------------------------------------

    Molecular point group: c1
  Charge       = 0
  Multiplicity = 1
  Basis Set: CC-PVTZ
  Basis Set:
  @DF-RHF Final Energy:  -426.31449997100390
    Total Energy =                       -426.3144999710041247
    Molecular point group: c1
  Basis Set: CC-PVTZ
  Basis Set:
  Basis Set: CC-PVTZ
  Basis Set:
  @DF-RHF Final Energy:  -426.27374407455716
    Total Energy =                       -426.2737440745570439
  Basis Set: CC-PVTZ
  Basis Set:
  Basis Set: CC-PVTZ
  Basis Set:
  @DF-RHF Final Energy:  -426.31503170447081
    Total Energy =                       -426.3150317044710391
  Basis Set: CC-PVTZ
  Basis Set:
  Basis Set: CC-PVTZ
  Basis Set:
  @DF-RHF Final Energy:  -426.30679782482650
    Total Energy =                       -426.3067978248259351
  Basis Set: CC-PVTZ
  Basis Set:
  @DF-RHF Final Energy:  -426.31783086204052
    Total Energy =                       -426.3178308620401822
  @DF-RHF Final Energy:  -426.31523476718678
    Total Energy =                       -426.3152347671864391
  @DF-RHF Final Energy:  -426.29992505007135
    Total Energy =                       -426.2999250500716926
  @DF-RHF Final Energy:  -426.31802826837782
    Total Energy =                       -426.3180282683772475
  @DF-RHF Final Energy:  -426.31845119679667
    Total Energy =                       -426.3184511967964454
  @DF-RHF Final Energy:  -426.31849651381833
    Total Energy =                       -426.3184965138191274
  Basis Set: CC-PVTZ
  Basis Set:
  @DF-RHF Final Energy:  -426.31847097364539
    Total Energy =                       -426.3184709736451623
  Basis Set: CC-PVTZ
  Basis Set:
  Basis Set: CC-PVTZ
  Basis Set:
  @DF-RHF Final Energy:  -426.31851097506046
    Total Energy =                       -426.3185109750605761
  Basis Set: CC-PVTZ
  Basis Set:
  Basis Set: CC-PVTZ
  Basis Set:
  @DF-RHF Final Energy:  -426.31851389085909
    Total Energy =                       -426.3185138908597764
  Basis Set: CC-PVTZ
  Basis Set:
  Charge       = 0
  Multiplicity = 1
  Basis Set: CC-PVTZ
  Basis Set:

    Orbital Energies (a.u.)
    -----------------------

    Doubly Occupied:

       1A    -20.535418     2A    -11.317808     3A    -11.228907
       4A    -11.228592     5A    -11.227785     6A    -11.223992
       7A    -11.214703     8A    -11.214202     9A    -11.208648
      10A    -11.202697    11A     -1.396450    12A     -1.096492
      13A     -1.077951    14A     -1.023160    15A     -0.991376
      16A     -0.907746    17A     -0.875515    18A     -0.809967
      19A     -0.800201    20A     -0.722691    21A     -0.669269
      22A     -0.657597    23A     -0.630385    24A     -0.620280
      25A     -0.609440    26A     -0.588837    27A     -0.580295
      28A     -0.572052    29A     -0.545969    30A     -0.527767
      31A     -0.525431    32A     -0.510656    33A     -0.496367
      34A     -0.486727    35A     -0.479506    36A     -0.475433
      37A     -0.470888    38A     -0.465410    39A     -0.456790
      40A     -0.394170

  @DF-RHF Final Energy:  -426.31851423152557

   => Energetics <=

    Nuclear Repulsion Energy =            532.9662201495907539
    One-Electron Energy =               -1634.4343266478535952
    Two-Electron Energy =                 675.1495922667370451
    DFT Exchange-Correlation Energy =       0.0000000000000000
    Empirical Dispersion Energy =           0.0000000000000000
    PCM Polarization Energy =               0.0000000000000000
    EFP Energy =                            0.0000000000000000
    Total Energy =                       -426.3185142315257963
    Molecular point group: c1
  Basis Set: CC-PVTZ
  Basis Set:

  -Total Gradient:
     Atom            X                  Y                   Z
    ------   -----------------  -----------------  -----------------
       1       -0.000000584582    -0.000000042125    -0.000003215726
       2       -0.000002123524    -0.000005874900     0.000004786499
       3       -0.000000060323     0.000003296139    -0.000001466502
       4        0.000004190393    -0.000001283976     0.000000481751
       5       -0.000002579454     0.000002922174     0.000000254000
       6       -0.000001414924     0.000001374423     0.000006771781
       7        0.000009214603    -0.000002486428     0.000001214133
       8       -0.000006393814    -0.000002401217     0.000002037119
       9        0.000005503343    -0.000008482234    -0.000005910854
      10        0.000002524864    -0.000002101880     0.000000692460
      11       -0.000001590188     0.000004293934     0.000004452956
      12       -0.000184409888    -0.000983162536    -0.001042830129
      13       -0.000006105186     0.000000765972     0.000000202464
      14       -0.000005874247    -0.000000004101     0.000000604485
      15        0.000397528562    -0.000967946639    -0.000024796632
      16        0.000060388334     0.001026259450     0.000820075577
      17       -0.000249727610     0.000935013995     0.000216885068
      18       -0.000006653075     0.000002345699    -0.000000024315
      19        0.000001148539    -0.000006893711    -0.000000827192
      20       -0.000015206476     0.000004553152     0.000009079455
      21        0.000003448195    -0.000003330151     0.000000701889
      22        0.000003742125     0.000010547386     0.000005645852
      23        0.000001475181    -0.000007936943     0.000008289277
      24       -0.000005013269    -0.000007148206    -0.000004635442
      25       -0.000004963163     0.000006122565    -0.000003465104
      26        0.000003604607    -0.000005675056     0.000005553043
      27        0.000001060686     0.000004734947     0.000005560116
      28       -0.000001129710     0.000002540268    -0.000006116022

  **** Optimization is complete! (in 14 steps) ****
    Final optimized geometry and variables:
    Molecular point group: c1

    Geometry (in Angstrom), charge = 0, multiplicity = 1:

    H            4.034316352110     0.360801454615    -3.266172829673
    C            3.591521350729     1.084057972039    -2.591088036937
    C            2.309713408332     0.542548694307    -1.967474202280
    H            4.326419182559     1.316932119661    -1.828179969051
    H            3.402267299167     1.991244265369    -3.156104204097
    C            1.648418587628     1.543304660013    -1.021987571655
    H            2.529601551539    -0.371080111507    -1.429361281364
    H            1.608903791355     0.282391569590    -2.757524445676
    C            0.360120506712     1.034692394992    -0.382511302238
    H            2.347601445091     1.821243887623    -0.242469804663
    H            1.416930938100     2.449036610809    -1.575267592405
    C            0.554287598277     0.022028458084     0.730019331086
    H           -0.201874118340     1.860480345091     0.048547614128
    H           -0.294115391574     0.603060186816    -1.133345366044
    C           -0.676176850576    -0.503305116067     1.453548787084
    O            1.636320625454    -0.311100413920     1.092754966407
    C           -1.958903580589    -0.669009711236     0.640489272678
    H           -0.856357907594     0.195177152718     2.268756897255
    H           -0.386542235234    -1.439739708670     1.911950034430
    C           -3.094065165818    -1.264271150485     1.469900795082
    H           -2.278044952024     0.288196846272     0.241821670188
    H           -1.770176731594    -1.312338105878    -0.215121278163
    C           -4.384280753797    -1.437975832039     0.676195498786
    H           -3.281792813014    -0.626664135366     2.329390013438
    H           -2.781881400035    -2.225776056109     1.866665357024
    H           -4.741619960452    -0.486949321652     0.295566481244
    H           -4.236349206802    -2.098145481377    -0.171822164805
    H           -5.168176327304    -1.862523764647     1.292235207279

  Mulliken Charges: (a.u.)
   Center  Symbol    Alpha    Beta     Spin     Total
       1     H     0.44872  0.44872  0.00000  0.10255
       2     C     3.15204  3.15204  0.00000 -0.30409
       3     C     3.08382  3.08382  0.00000 -0.16764
       4     H     0.45205  0.45205  0.00000  0.09590
       5     H     0.45740  0.45740  0.00000  0.08521
       6     C     3.08611  3.08611  0.00000 -0.17222
       7     H     0.44360  0.44360  0.00000  0.11279
       8     H     0.45934  0.45934  0.00000  0.08131
       9     C     3.13151  3.13151  0.00000 -0.26301
      10     H     0.44651  0.44651  0.00000  0.10697
      11     H     0.44800  0.44800  0.00000  0.10399
      12     C     2.87388  2.87388  0.00000  0.25224
      13     H     0.43424  0.43424  0.00000  0.13151
      14     H     0.43944  0.43944  0.00000  0.12113
      15     C     3.08621  3.08621  0.00000 -0.17242
      16     O     4.17905  4.17905  0.00000 -0.35811
      17     C     3.10222  3.10222  0.00000 -0.20444
      18     H     0.44549  0.44549  0.00000  0.10902
      19     H     0.43666  0.43666  0.00000  0.12668
      20     C     3.08732  3.08732  0.00000 -0.17463
      21     H     0.44939  0.44939  0.00000  0.10122
      22     H     0.44857  0.44857  0.00000  0.10285
      23     C     3.14927  3.14927  0.00000 -0.29854
      24     H     0.45312  0.45312  0.00000  0.09376
      25     H     0.45029  0.45029  0.00000  0.09942
      26     H     0.45506  0.45506  0.00000  0.08987
      27     H     0.45412  0.45412  0.00000  0.09176
      28     H     0.44654  0.44654  0.00000  0.10691

   Total alpha = 40.00000, Total beta = 40.00000, Total charge = -0.00000

*** Psi4 exiting successfully. Buy a developer a beer!
