                              Psi4 1.0.54 Driver

  ==> Input File <==

--------------------------------------------------------------------------
set {
	reference rhf
	basis cc-pvtz
}

set_num_threads( 4 )
memory 2 gb

molecule MOL {
0 1

H	 -2.662508	 -0.501705	 -0.778542
O	 -2.346257	 -0.289210	 0.080372
C	 -1.183935	 0.486039	 -0.009831
C	 0.062853	 -0.375310	 0.027457
H	 -1.178881	 1.094526	 -0.908634
H	 -1.184406	 1.155156	 0.838676
O	 1.172093	 0.457955	 -0.054438
H	 0.052476	 -1.081302	 -0.804627
H	 0.076323	 -0.955658	 0.947560
C	 2.395478	 -0.199028	 -0.000366
H	 2.505946	 -0.901710	 -0.823354
H	 3.174616	 0.545641	 -0.071768
H	 2.513730	 -0.742241	 0.934223

	symmetry c1
}
set optking {
	frozen_dihedral = ("
		1 2 3 5
	")
}

ee,wfn = optimize('scf', return_wfn=True)
oeprop( wfn, 'DIPOLE', 'QUADRUPOLE', 'MULLIKEN_CHARGES')
f=open( 'psi4out.xyz', 'w' )
f.write( "13  " )
f.write( str(ee) + "\n" )
f.write( MOL.save_string_xyz() )
f.close()
--------------------------------------------------------------------------

    Molecular point group: c1
  Charge       = 0
  Multiplicity = 1
  Basis Set: CC-PVTZ
  Basis Set:
  @DF-RHF Final Energy:  -268.06193450747395
    Total Energy =                       -268.0619345074737794
    Molecular point group: c1
  Basis Set: CC-PVTZ
  Basis Set:
  Basis Set: CC-PVTZ
  Basis Set:
  @DF-RHF Final Energy:  -268.06198072426935
    Total Energy =                       -268.0619807242691195
  Basis Set: CC-PVTZ
  Basis Set:
  Basis Set: CC-PVTZ
  Basis Set:
  @DF-RHF Final Energy:  -268.06199783711293
    Total Energy =                       -268.0619978371129264
  Basis Set: CC-PVTZ
  Basis Set:
  Charge       = 0
  Multiplicity = 1
  Basis Set: CC-PVTZ
  Basis Set:

    Orbital Energies (a.u.)
    -----------------------

    Doubly Occupied:

       1A    -20.554536     2A    -20.552359     3A    -11.267928
       4A    -11.266709     5A    -11.266622     6A     -1.390484
       7A     -1.368605     8A     -1.019258     9A     -0.913251
      10A     -0.839263    11A     -0.714653    12A     -0.676762
      13A     -0.657911    14A     -0.641261    15A     -0.599957
      16A     -0.563303    17A     -0.547983    18A     -0.487403
      19A     -0.486822    20A     -0.440805    21A     -0.423176

  @DF-RHF Final Energy:  -268.06199813035590

   => Energetics <=

    Nuclear Repulsion Energy =            190.4334125962990925
    One-Electron Energy =                -743.6327270622165315
    Two-Electron Energy =                 285.1373163355616498
    DFT Exchange-Correlation Energy =       0.0000000000000000
    Empirical Dispersion Energy =           0.0000000000000000
    PCM Polarization Energy =               0.0000000000000000
    EFP Energy =                            0.0000000000000000
    Total Energy =                       -268.0619981303558461
    Molecular point group: c1
  Basis Set: CC-PVTZ
  Basis Set:

  -Total Gradient:
     Atom            X                  Y                   Z
    ------   -----------------  -----------------  -----------------
       1       -0.000524666837     0.000750317333    -0.000000451275
       2        0.000780473489    -0.001061122245    -0.000165900340
       3       -0.000641249580     0.000923138941     0.000592622793
       4        0.000024442931    -0.000004190494    -0.000008673345
       5        0.000353687536    -0.000616231392    -0.000391830059
       6        0.000007887277     0.000018455552    -0.000004807989
       7        0.000002338681     0.000010389145    -0.000008985967
       8        0.000012575739    -0.000014995989    -0.000004826736
       9       -0.000009730426     0.000002453683    -0.000004427767
      10        0.000002376543    -0.000016155143    -0.000003142102
      11        0.000003781210     0.000001736851     0.000000093489
      12       -0.000011210389     0.000004299380    -0.000000878069
      13       -0.000000706176     0.000001904377     0.000001207367

  **** Optimization is complete! (in 4 steps) ****
    Final optimized geometry and variables:
    Molecular point group: c1

    Geometry (in Angstrom), charge = 0, multiplicity = 1:

    H           -2.652141340006    -0.524275678447    -0.769269976531
    O           -2.338466341659    -0.297570964263     0.085709130649
    C           -1.182182976196     0.488841490480    -0.010528789921
    C            0.062004122296    -0.376065527337     0.021732910262
    H           -1.180181601031     1.086775842648    -0.915627036982
    H           -1.172273094152     1.165902670152     0.832374193195
    O            1.173526731819     0.456012656229    -0.051376673255
    H            0.049210919477    -1.075628718150    -0.814411176103
    H            0.072120434184    -0.962276427452     0.938139603713
    C            2.395051347093    -0.204173417388     0.000761453909
    H            2.505763140168    -0.901556324355    -0.826692608816
    H            3.176328508964     0.538969193397    -0.063660008735
    H            2.509921646397    -0.754241357770     0.931793954277

  Mulliken Charges: (a.u.)
   Center  Symbol    Alpha    Beta     Spin     Total
       1     H     0.39212  0.39212  0.00000  0.21576
       2     O     4.20438  4.20438  0.00000 -0.40876
       3     C     2.97524  2.97524  0.00000  0.04951
       4     C     2.96049  2.96049  0.00000  0.07902
       5     H     0.46723  0.46723  0.00000  0.06555
       6     H     0.45439  0.45439  0.00000  0.09122
       7     O     4.17617  4.17617  0.00000 -0.35234
       8     H     0.48073  0.48073  0.00000  0.03855
       9     H     0.47033  0.47033  0.00000  0.05934
      10     C     3.03146  3.03146  0.00000 -0.06292
      11     H     0.47125  0.47125  0.00000  0.05749
      12     H     0.44632  0.44632  0.00000  0.10736
      13     H     0.46989  0.46989  0.00000  0.06021

   Total alpha = 21.00000, Total beta = 21.00000, Total charge = -0.00000

*** Psi4 exiting successfully. Buy a developer a beer!
