                              Psi4 1.0.54 Driver

  ==> Input File <==

--------------------------------------------------------------------------
set {
	reference rhf
	basis cc-pvtz
}

set_num_threads( 4 )
memory 2 gb

molecule MOL {
0 1

O	 2.763800	 1.514919	 0.381889
C	 2.516962	 0.666856	 1.175595
C	 1.229550	 -0.131120	 1.135110
C	 3.481137	 0.324994	 2.289022
C	 0.288398	 0.247429	 0.000314
H	 1.498401	 -1.183515	 1.078083
H	 0.739463	 -0.010964	 2.098636
C	 -0.993089	 -0.581367	 -0.000217
H	 0.805140	 0.127532	 -0.945052
H	 0.045650	 1.301195	 0.076363
C	 -2.258482	 0.271340	 0.000669
H	 -1.002280	 -1.233920	 -0.870484
H	 -1.002061	 -1.235367	 0.868958
C	 -3.544441	 -0.550271	 -0.000253
H	 -2.250545	 0.925250	 -0.867923
H	 -2.250598	 0.923423	 0.870642
C	 -4.804551	 0.308747	 0.000556
H	 -3.553737	 -1.201524	 -0.870151
H	 -3.553831	 -1.203282	 0.868313
H	 -4.842050	 0.949078	 -0.874436
H	 -5.698404	 -0.304480	 -0.000254
H	 -4.842277	 0.947103	 0.876982
H	 3.771151	 -0.718041	 2.225644
H	 4.357506	 0.950719	 2.219473
H	 3.005362	 0.468953	 3.252846

	symmetry c1
}
set optking {
	frozen_dihedral = ("
		9 5 8 12
	")
}

ee,wfn = optimize('scf', return_wfn=True)
oeprop( wfn, 'DIPOLE', 'QUADRUPOLE', 'MULLIKEN_CHARGES')
f=open( 'psi4out.xyz', 'w' )
f.write( "25  " )
f.write( str(ee) + "\n" )
f.write( MOL.save_string_xyz() )
f.close()
--------------------------------------------------------------------------

    Molecular point group: c1
  Charge       = 0
  Multiplicity = 1
  Basis Set: CC-PVTZ
  Basis Set:
  @DF-RHF Final Energy:  -387.26895482559365
    Total Energy =                       -387.2689548255937098
    Molecular point group: c1
  Basis Set: CC-PVTZ
  Basis Set:
  Basis Set: CC-PVTZ
  Basis Set:
  @DF-RHF Final Energy:  -387.26919462622311
    Total Energy =                       -387.2691946262231113
  Basis Set: CC-PVTZ
  Basis Set:
  Basis Set: CC-PVTZ
  Basis Set:
  @DF-RHF Final Energy:  -387.26922359819514
    Total Energy =                       -387.2692235981949125
  Basis Set: CC-PVTZ
  Basis Set:
  Basis Set: CC-PVTZ
  Basis Set:
  @DF-RHF Final Energy:  -387.26925632115700
    Total Energy =                       -387.2692563211570587
  Basis Set: CC-PVTZ
  Basis Set:
  Basis Set: CC-PVTZ
  Basis Set:
  @DF-RHF Final Energy:  -387.26926163746077
    Total Energy =                       -387.2692616374608860
  Basis Set: CC-PVTZ
  Basis Set:
  Charge       = 0
  Multiplicity = 1
  Basis Set: CC-PVTZ
  Basis Set:

    Orbital Energies (a.u.)
    -----------------------

    Doubly Occupied:

       1A    -20.538921     2A    -11.320258     3A    -11.230544
       4A    -11.226555     5A    -11.215006     6A    -11.214441
       7A    -11.213782     8A    -11.212514     9A    -11.207023
      10A     -1.398830    11A     -1.093648    12A     -1.057538
      13A     -1.014708    14A     -0.970103    15A     -0.891588
      16A     -0.816115    17A     -0.791592    18A     -0.732502
      19A     -0.660632    20A     -0.649628    21A     -0.638441
      22A     -0.624461    23A     -0.598210    24A     -0.580446
      25A     -0.568388    26A     -0.565187    27A     -0.541047
      28A     -0.524031    29A     -0.517245    30A     -0.494872
      31A     -0.486309    32A     -0.477068    33A     -0.464410
      34A     -0.460822    35A     -0.448083    36A     -0.401190

  @DF-RHF Final Energy:  -387.26926199273777

   => Energetics <=

    Nuclear Repulsion Energy =            440.2094048284424730
    One-Electron Energy =               -1397.2650473933899775
    Two-Electron Energy =                 569.7863805722101915
    DFT Exchange-Correlation Energy =       0.0000000000000000
    Empirical Dispersion Energy =           0.0000000000000000
    PCM Polarization Energy =               0.0000000000000000
    EFP Energy =                            0.0000000000000000
    Total Energy =                       -387.2692619927372562
    Molecular point group: c1
  Basis Set: CC-PVTZ
  Basis Set:

  -Total Gradient:
     Atom            X                  Y                   Z
    ------   -----------------  -----------------  -----------------
       1       -0.000011954791     0.000000275527    -0.000011992973
       2        0.000004446072     0.000001190714     0.000004057581
       3       -0.000008334604     0.000030173855     0.000008238688
       4       -0.000013106279     0.000003463281     0.000012828337
       5       -0.001178677286     0.001885838736    -0.000964244440
       6        0.000005133710    -0.000014162835    -0.000008612991
       7        0.000011728602    -0.000002239657    -0.000009297012
       8        0.001095957914    -0.001775466334     0.001220607852
       9        0.000830892260    -0.001283742002     0.000618692736
      10        0.000008438190     0.000021175905     0.000001986878
      11       -0.000005991704    -0.000006181964    -0.000025013584
      12       -0.000761844679     0.001161330802    -0.000865524694
      13       -0.000003817428    -0.000015004080     0.000009598224
      14        0.000001155567    -0.000003998955     0.000000219733
      15       -0.000005253074     0.000008749032    -0.000000729149
      16       -0.000003662014    -0.000005813686     0.000005745435
      17        0.000013683796     0.000010623213     0.000003132991
      18        0.000010640457     0.000001052960     0.000000271411
      19        0.000000347691    -0.000001747271     0.000005376474
      20       -0.000000080851     0.000002133138    -0.000003168888
      21        0.000009539862    -0.000006184794     0.000000411022
      22       -0.000003798481     0.000004801166     0.000004038230
      23        0.000012304988    -0.000018166799     0.000008356262
      24       -0.000004254942     0.000001669661    -0.000004726607
      25       -0.000003492970     0.000000230392    -0.000010251516

  **** Optimization is complete! (in 6 steps) ****
    Final optimized geometry and variables:
    Molecular point group: c1

    Geometry (in Angstrom), charge = 0, multiplicity = 1:

    O            2.924915829550     1.281969514309    -0.175507585751
    C            2.686277259560     0.430592565653     0.617289699098
    C            1.396716543905    -0.364339295228     0.589430818182
    C            3.663599492263     0.081805725077     1.717189862939
    C            0.441884339910     0.018786469873    -0.534626460326
    H            1.661741619911    -1.417410449847     0.526805446283
    H            0.917222928064    -0.245282399897     1.558540015087
    C           -0.853548488504    -0.818165824459    -0.532574152842
    H            0.962839818663    -0.096946663764    -1.476078294616
    H            0.209146831613     1.072611272345    -0.448775098742
    C           -2.122599336811     0.032043979399    -0.550863499394
    H           -0.866941818877    -1.471485055586    -1.399088750551
    H           -0.880920565664    -1.467683498550     0.337666466924
    C           -3.406385169776    -0.791577480873    -0.571983285021
    H           -2.101103138264     0.686578177773    -1.418830838777
    H           -2.128628294974     0.684753735076     0.319373030727
    C           -4.668281905382     0.064779735113    -0.587906251710
    H           -3.401341547369    -1.441028249772    -1.443193839944
    H           -3.427135242599    -1.446821553241     0.294911163176
    H           -4.694228131712     0.706821854784    -1.462041625407
    H           -5.560638312282    -0.550409887701    -0.603262964731
    H           -4.720624093391     0.701249415624     0.289232455364
    H            3.953026698201    -0.960743431562     1.643493904733
    H            4.539134141948     0.708041459911     1.641316494728
    H            3.199271779990     0.219442787219     2.687483393962

  Mulliken Charges: (a.u.)
   Center  Symbol    Alpha    Beta     Spin     Total
       1     O     4.17047  4.17047  0.00000 -0.34094
       2     C     2.86410  2.86410  0.00000  0.27181
       3     C     3.11241  3.11241  0.00000 -0.22482
       4     C     3.15113  3.15113  0.00000 -0.30226
       5     C     3.09185  3.09185  0.00000 -0.18369
       6     H     0.44336  0.44336  0.00000  0.11327
       7     H     0.44468  0.44468  0.00000  0.11065
       8     C     3.09638  3.09638  0.00000 -0.19275
       9     H     0.44189  0.44189  0.00000  0.11622
      10     H     0.44537  0.44537  0.00000  0.10926
      11     C     3.08601  3.08601  0.00000 -0.17203
      12     H     0.44921  0.44921  0.00000  0.10158
      13     H     0.45648  0.45648  0.00000  0.08705
      14     C     3.08511  3.08511  0.00000 -0.17023
      15     H     0.45154  0.45154  0.00000  0.09693
      16     H     0.45540  0.45540  0.00000  0.08920
      17     C     3.14995  3.14995  0.00000 -0.29990
      18     H     0.45458  0.45458  0.00000  0.09084
      19     H     0.45517  0.45517  0.00000  0.08966
      20     H     0.45454  0.45454  0.00000  0.09092
      21     H     0.44859  0.44859  0.00000  0.10282
      22     H     0.45537  0.45537  0.00000  0.08927
      23     H     0.45044  0.45044  0.00000  0.09911
      24     H     0.43540  0.43540  0.00000  0.12921
      25     H     0.45059  0.45059  0.00000  0.09881

   Total alpha = 36.00000, Total beta = 36.00000, Total charge =  0.00000

*** Psi4 exiting successfully. Buy a developer a beer!
