  ==> Input File <==

--------------------------------------------------------------------------
set {
	reference rhf
	basis 6-31G*
}

set_num_threads( 4 )
memory 2 gb

molecule MOL {
0 1

H	 0.079490	 -0.124325	 0.439960
N	 -0.626943	 -0.667432	 -0.000092
C	 -1.979713	 -0.158776	 0.000050
C	 -0.272905	 -1.844608	 -0.570249
H	 -2.520245	 -0.492427	 -0.879443
H	 -1.934741	 0.918111	 -0.004428
H	 -2.517790	 -0.485056	 0.883818
C	 1.199720	 -2.183126	 -0.452919
O	 -1.053784	 -2.567769	 -1.124759
H	 1.494916	 -2.251177	 0.589473
H	 1.379867	 -3.130927	 -0.937601
H	 1.807785	 -1.417386	 -0.924339

	symmetry c1
}
set optking {
	frozen_dihedral = ("
		4 2 3 5
	")
}

ee = optimize('scf')
oeprop('DIPOLE', 'QUADRUPOLE', 'MULLIKEN_CHARGES')
f=open( 'psi4out.xyz', 'w' )
f.write( "12  " )
f.write( str(ee) + "\n" )
f.write( MOL.save_string_xyz() )
f.close()
--------------------------------------------------------------------------

    Molecular point group: c1
  Charge       = 0
  Multiplicity = 1
  Basis Set: 6-31G*
  Basis Set:
  @DF-RHF Final Energy:  -247.00523503710619
    Total Energy =                       -247.0052350371062744
    Molecular point group: c1
  Basis Set: 6-31G*
  Basis Set:
  Basis Set: 6-31G*
  Basis Set:
  @DF-RHF Final Energy:  -247.00549881069551
    Total Energy =                       -247.0054988106953715
  Basis Set: 6-31G*
  Basis Set:
  Basis Set: 6-31G*
  Basis Set:
  @DF-RHF Final Energy:  -247.00552142663065
    Total Energy =                       -247.0055214266304802
  Basis Set: 6-31G*
  Basis Set:
  Basis Set: 6-31G*
  Basis Set:
  @DF-RHF Final Energy:  -247.00556637869721
    Total Energy =                       -247.0055663786970968
  Basis Set: 6-31G*
  Basis Set:
  @DF-RHF Final Energy:  -247.00559585706634
    Total Energy =                       -247.0055958570663961
  @DF-RHF Final Energy:  -247.00561403876802
    Total Energy =                       -247.0056140387680443
  @DF-RHF Final Energy:  -247.00561633220428
    Total Energy =                       -247.0056163322042266
  @DF-RHF Final Energy:  -247.00562751617616
    Total Energy =                       -247.0056275161762187
  @DF-RHF Final Energy:  -247.00565277061440
    Total Energy =                       -247.0056527706142901
  @DF-RHF Final Energy:  -247.00567534437644
    Total Energy =                       -247.0056753443766979
  Basis Set: 6-31G*
  Basis Set:
  @DF-RHF Final Energy:  -247.00572043261622
    Total Energy =                       -247.0057204326164992
  Basis Set: 6-31G*
  Basis Set:
  Basis Set: 6-31G*
  Basis Set:
  @DF-RHF Final Energy:  -247.00573768720795
    Total Energy =                       -247.0057376872078976
  Basis Set: 6-31G*
  Basis Set:
  Basis Set: 6-31G*
  Basis Set:
  @DF-RHF Final Energy:  -247.00574026751926
    Total Energy =                       -247.0057402675192861
  Basis Set: 6-31G*
  Basis Set:
  Charge       = 0
  Multiplicity = 1
  Basis Set: 6-31G*
  Basis Set:

    Orbital Energies (a.u.)
    -----------------------

    Doubly Occupied:

       1A    -20.514056     2A    -15.582814     3A    -11.342538
       4A    -11.254487     5A    -11.230052     6A     -1.383436
       7A     -1.228670     8A     -1.015227     9A     -0.932544
      10A     -0.787554    11A     -0.689226    12A     -0.648403
      13A     -0.632341    14A     -0.585482    15A     -0.579683
      16A     -0.554184    17A     -0.546101    18A     -0.504257
      19A     -0.412524    20A     -0.385086

  @DF-RHF Final Energy:  -247.00574067667722

   => Energetics <=

    Nuclear Repulsion Energy =            181.3886757318227581
    One-Electron Energy =                -695.1715053024727240
    Two-Electron Energy =                 266.7770888939728025
    DFT Exchange-Correlation Energy =       0.0000000000000000
    Empirical Dispersion Energy =           0.0000000000000000
    PCM Polarization Energy =               0.0000000000000000
    EFP Energy =                            0.0000000000000000
    Total Energy =                       -247.0057406766771351
    Molecular point group: c1
  Basis Set: 6-31G*
  Basis Set:

  -Total Gradient:
     Atom            X                  Y                   Z
    ------   -----------------  -----------------  -----------------
       1        0.000005481877     0.000016728576     0.000018471333
       2       -0.000024415351    -0.000235445515     0.000280127705
       3        0.000011892079     0.000259259765    -0.000271096448
       4        0.000052547556     0.000203804006    -0.000067133949
       5       -0.000040811071    -0.000160933015     0.000150540744
       6        0.000005418062     0.000010768093    -0.000010933656
       7        0.000013590274    -0.000006428392    -0.000013368525
       8       -0.000024449261    -0.000090521157     0.000029298944
       9       -0.000026693046    -0.000044077282    -0.000050433954
      10        0.000013402364     0.000025729711    -0.000025968221
      11        0.000011852915     0.000003783105    -0.000020296391
      12        0.000002183604     0.000017332108    -0.000019207580

  **** Optimization is complete! (in 14 steps) ****
    Final optimized geometry and variables:
    Molecular point group: c1

    Geometry (in Angstrom), charge = 0, multiplicity = 1:

    H            0.664953635900     1.456738632314     0.666095742993
    N           -0.046144540930     0.878559606418     0.283389991520
    C           -1.416806240054     1.330891176211     0.369302068391
    C            0.281799026731    -0.369707552437    -0.122977294412
    H           -2.001762395957     0.812788297767    -0.374094113154
    H           -1.458271029897     2.395680423492     0.176044847916
    H           -1.849049036866     1.134806703135     1.345863428486
    C            1.755289352880    -0.712951095719    -0.049723271922
    O           -0.531842917437    -1.165913763499    -0.504968400587
    H            1.942974579210    -1.253818441469     0.872296764402
    H            2.000631277263    -1.365405066607    -0.876030899142
    H            2.396811262380     0.160429872406    -0.074381016310

  Mulliken Charges: (a.u.)
   Center  Symbol    Alpha    Beta     Spin     Total
       1     H     0.31031  0.31031  0.00000  0.37937
       2     N     3.89304  3.89304  0.00000 -0.78608
       3     C     3.13969  3.13969  0.00000 -0.27939
       4     C     2.62912  2.62912  0.00000  0.74177
       5     H     0.39052  0.39052  0.00000  0.21897
       6     H     0.41666  0.41666  0.00000  0.16668
       7     H     0.41523  0.41523  0.00000  0.16954
       8     C     3.29113  3.29113  0.00000 -0.58225
       9     O     4.30365  4.30365  0.00000 -0.60729
      10     H     0.40002  0.40002  0.00000  0.19996
      11     H     0.39395  0.39395  0.00000  0.21209
      12     H     0.41668  0.41668  0.00000  0.16663

   Total alpha = 20.00000, Total beta = 20.00000, Total charge =  0.00000
