  ==> Input File <==

--------------------------------------------------------------------------
set {
	reference rhf
	basis cc-pvtz
}

set_num_threads( 4 )
memory 2 gb

molecule MOL {
0 1

H	 3.209057	 1.103456	 -0.763390
C	 2.497918	 0.921990	 0.031992
C	 1.322304	 0.099773	 -0.484271
H	 3.018500	 0.406707	 0.831270
H	 2.170443	 1.883841	 0.410071
C	 0.308557	 -0.162619	 0.622645
H	 1.672342	 -0.848909	 -0.871841
H	 0.829458	 0.622061	 -1.294984
N	 -1.069352	 -0.004081	 0.085342
H	 0.371632	 -1.172932	 0.991288
H	 0.400391	 0.548875	 1.426218
O	 -1.584901	 -0.965470	 -0.377818
O	 -1.548033	 1.079343	 0.130056

	symmetry c1
}
set optking {
	frozen_dihedral = ("
		7 3 6 9
	")
}

ee = optimize('scf')
oeprop('DIPOLE', 'QUADRUPOLE', 'MULLIKEN_CHARGES')
f=open( 'psi4out.xyz', 'w' )
f.write( "13  " )
f.write( str(ee) + "\n" )
f.write( MOL.save_string_xyz() )
f.close()
--------------------------------------------------------------------------

    Molecular point group: c1
  Charge       = 0
  Multiplicity = 1
  Basis Set: CC-PVTZ
  Basis Set:
  @DF-RHF Final Energy:  -321.85689884473709
    Total Energy =                       -321.8568988447372021
    Molecular point group: c1
  Basis Set: CC-PVTZ
  Basis Set:
  Basis Set: CC-PVTZ
  Basis Set:
  @DF-RHF Final Energy:  -321.85483490269507
    Total Energy =                       -321.8548349026949609
  Basis Set: CC-PVTZ
  Basis Set:
  Basis Set: CC-PVTZ
  Basis Set:
  @DF-RHF Final Energy:  -321.85321211223732
    Total Energy =                       -321.8532121122374292
  Basis Set: CC-PVTZ
  Basis Set:
  Basis Set: CC-PVTZ
  Basis Set:
  @DF-RHF Final Energy:  -321.85711994945063
    Total Energy =                       -321.8571199494505208
  Basis Set: CC-PVTZ
  Basis Set:
  Basis Set: CC-PVTZ
  Basis Set:
  @DF-RHF Final Energy:  -321.85718859739376
    Total Energy =                       -321.8571885973938151
  Basis Set: CC-PVTZ
  Basis Set:
  Basis Set: CC-PVTZ
  Basis Set:
  @DF-RHF Final Energy:  -321.85724207278963
    Total Energy =                       -321.8572420727898589
  Basis Set: CC-PVTZ
  Basis Set:
  Basis Set: CC-PVTZ
  Basis Set:
  @DF-RHF Final Energy:  -321.85724362463310
    Total Energy =                       -321.8572436246330426
  Basis Set: CC-PVTZ
  Basis Set:
  Charge       = 0
  Multiplicity = 1
  Basis Set: CC-PVTZ
  Basis Set:

    Orbital Energies (a.u.)
    -----------------------

    Doubly Occupied:

       1A    -20.590769     2A    -20.589890     3A    -15.836863
       4A    -11.297359     5A    -11.255302     6A    -11.235235
       7A     -1.635958     8A     -1.420213     9A     -1.132092
      10A     -1.027499    11A     -0.883813    12A     -0.834548
      13A     -0.762325    14A     -0.738041    15A     -0.727616
      16A     -0.665508    17A     -0.610884    18A     -0.591992
      19A     -0.542578    20A     -0.520212    21A     -0.515071
      22A     -0.485119    23A     -0.474815    24A     -0.453746

  @DF-RHF Final Energy:  -321.85724389972535

   => Energetics <=

    Nuclear Repulsion Energy =            248.3967904761395289
    One-Electron Energy =                -930.8531708109561578
    Two-Electron Energy =                 360.5991364350915092
    DFT Exchange-Correlation Energy =       0.0000000000000000
    Empirical Dispersion Energy =           0.0000000000000000
    PCM Polarization Energy =               0.0000000000000000
    EFP Energy =                            0.0000000000000000
    Total Energy =                       -321.8572438997251766
    Molecular point group: c1
  Basis Set: CC-PVTZ
  Basis Set:

  -Total Gradient:
     Atom            X                  Y                   Z
    ------   -----------------  -----------------  -----------------
       1        0.000001533728    -0.000000925032    -0.000002973691
       2       -0.000010172736    -0.000015699438    -0.000010351491
       3       -0.003348152821     0.000896560688    -0.002849291697
       4       -0.000005096703     0.000001027299    -0.000003005849
       5       -0.000006075051    -0.000003739066    -0.000000306637
       6        0.000588692129    -0.003502664152    -0.000328803125
       7        0.002750980955    -0.000012650697     0.002504660472
       8        0.000004606135     0.000003436340    -0.000009205991
       9        0.000030307394     0.002687546528     0.000734627612
      10       -0.000006111147     0.000004185007     0.000000672081
      11        0.000002334637     0.000001623742    -0.000002359175
      12       -0.000010117297    -0.000034420268    -0.000032061563
      13        0.000007270771    -0.000024280954    -0.000001600944

  **** Optimization is complete! (in 8 steps) ****
    Final optimized geometry and variables:
    Molecular point group: c1

    Geometry (in Angstrom), charge = 0, multiplicity = 1:

    H            3.287046386644     0.912212624115    -0.760169682127
    C            2.557276641506     0.762536871401     0.025396018574
    C            1.368806500813    -0.040716519485    -0.495537096414
    H            3.052182488626     0.248356292494     0.842324516408
    H            2.243184328979     1.736093099005     0.382590343983
    C            0.349058442154    -0.327328664412     0.618012742754
    H            1.727940827316    -0.979684825319    -0.894959531785
    H            0.887911831229     0.500674424975    -1.298976665876
    N           -1.032678951964    -0.176884722511     0.090558890208
    H            0.422826866384    -1.331039165228     0.998718612038
    H            0.424866055225     0.390236900161     1.417307514680
    O           -1.550918557239    -1.141107347296    -0.363797211363
    O           -1.511382129534     0.906946914232     0.130299720238

  Mulliken Charges: (a.u.)
   Center  Symbol    Alpha    Beta     Spin     Total
       1     H     0.44375  0.44375  0.00000  0.11249
       2     C     3.15055  3.15055  0.00000 -0.30111
       3     C     3.09012  3.09012  0.00000 -0.18024
       4     H     0.45253  0.45253  0.00000  0.09494
       5     H     0.44848  0.44848  0.00000  0.10304
       6     C     3.03865  3.03865  0.00000 -0.07731
       7     H     0.44248  0.44248  0.00000  0.11503
       8     H     0.43863  0.43863  0.00000  0.12273
       9     N     3.27954  3.27954  0.00000  0.44091
      10     H     0.43261  0.43261  0.00000  0.13478
      11     H     0.43686  0.43686  0.00000  0.12627
      12     O     4.17201  4.17201  0.00000 -0.34403
      13     O     4.17376  4.17376  0.00000 -0.34753

   Total alpha = 24.00000, Total beta = 24.00000, Total charge =  0.00000
