                              Psi4 1.0.54 Driver

  ==> Input File <==

--------------------------------------------------------------------------
set {
	reference rhf
	basis cc-pvtz
}

set_num_threads( 4 )
memory 2 gb

molecule MOL {
0 1

H	 1.185669	 -0.328527	 1.572103
O	 1.353565	 -0.397380	 0.649323
C	 0.706474	 0.636793	 -0.025501
C	 -0.793473	 0.591216	 0.050087
H	 1.013588	 0.565864	 -1.062299
H	 1.047084	 1.606496	 0.332773
C	 -1.534243	 -0.493009	 -0.013340
H	 -1.266611	 1.552628	 0.164437
H	 -1.101195	 -1.466332	 -0.144046
H	 -2.604242	 -0.437780	 0.050785

	symmetry c1
}
set optking {
	frozen_dihedral = ("
		5 3 4 7
	")
}

ee,wfn = optimize('scf', return_wfn=True)
oeprop( wfn, 'DIPOLE', 'QUADRUPOLE', 'MULLIKEN_CHARGES')
f=open( 'psi4out.xyz', 'w' )
f.write( "10  " )
f.write( str(ee) + "\n" )
f.write( MOL.save_string_xyz() )
f.close()
--------------------------------------------------------------------------

    Molecular point group: c1
  Charge       = 0
  Multiplicity = 1
  Basis Set: CC-PVTZ
  Basis Set:
  @DF-RHF Final Energy:  -191.99532182583590
    Total Energy =                       -191.9953218258360153
    Molecular point group: c1
  Basis Set: CC-PVTZ
  Basis Set:
  Basis Set: CC-PVTZ
  Basis Set:
  @DF-RHF Final Energy:  -191.99598402787768
    Total Energy =                       -191.9959840278776824
  Basis Set: CC-PVTZ
  Basis Set:
  Basis Set: CC-PVTZ
  Basis Set:
  @DF-RHF Final Energy:  -191.99610028076287
    Total Energy =                       -191.9961002807629313
  Basis Set: CC-PVTZ
  Basis Set:
  Basis Set: CC-PVTZ
  Basis Set:
  @DF-RHF Final Energy:  -191.99610771886955
    Total Energy =                       -191.9961077188694674
  Basis Set: CC-PVTZ
  Basis Set:
  Basis Set: CC-PVTZ
  Basis Set:
  @DF-RHF Final Energy:  -191.99610885420771
    Total Energy =                       -191.9961088542076482
  Basis Set: CC-PVTZ
  Basis Set:
  Charge       = 0
  Multiplicity = 1
  Basis Set: CC-PVTZ
  Basis Set:

    Orbital Energies (a.u.)
    -----------------------

    Doubly Occupied:

       1A    -20.550935     2A    -11.276170     3A    -11.229983
       4A    -11.220172     5A     -1.369962     6A     -1.062365
       7A     -0.928320     8A     -0.775825     9A     -0.684087
      10A     -0.665105    11A     -0.611976    12A     -0.578679
      13A     -0.551025    14A     -0.483383    15A     -0.452967
      16A     -0.371080

  @DF-RHF Final Energy:  -191.99610896251573

   => Energetics <=

    Nuclear Repulsion Energy =            119.1836821925856356
    One-Electron Energy =                -496.7355143786583085
    Two-Electron Energy =                 185.5557232235569245
    DFT Exchange-Correlation Energy =       0.0000000000000000
    Empirical Dispersion Energy =           0.0000000000000000
    PCM Polarization Energy =               0.0000000000000000
    EFP Energy =                            0.0000000000000000
    Total Energy =                       -191.9961089625157342
    Molecular point group: c1
  Basis Set: CC-PVTZ
  Basis Set:

  -Total Gradient:
     Atom            X                  Y                   Z
    ------   -----------------  -----------------  -----------------
       1        0.000000915208    -0.000002907327     0.000004382713
       2       -0.000007390125    -0.000017425488     0.000009632198
       3       -0.000313182266     0.004942261456    -0.002221097686
       4        0.000386070539    -0.001385393442     0.005481509027
       5        0.000154424922    -0.003843138924     0.000340691169
       6        0.000000847282     0.000002122910    -0.000000484372
       7       -0.000230167219     0.000304866544    -0.003615351895
       8        0.000007509921    -0.000000419666     0.000000347366
       9        0.000004055068    -0.000001576305    -0.000002195317
      10       -0.000003083328     0.000001610241     0.000002566797

  **** Optimization is complete! (in 6 steps) ****
    Final optimized geometry and variables:
    Molecular point group: c1

    Geometry (in Angstrom), charge = 0, multiplicity = 1:

    H            1.052708475388    -0.524951030896     1.311940290999
    O            1.338630173517    -0.477061686072     0.417200781157
    C            0.698280851708     0.590487784941    -0.224231450905
    C           -0.808229730423     0.536228265821    -0.131174202311
    H            0.998742124610     0.511983037233    -1.261347492514
    H            1.056712822913     1.541628228722     0.157363507930
    C           -1.519044323123    -0.569449649194    -0.179153303464
    H           -1.312557628100     1.486283048253    -0.080861019913
    H           -1.052971327067    -1.535061099340    -0.244145887075
    H           -2.591523760236    -0.543842605519    -0.139326633022

  Mulliken Charges: (a.u.)
   Center  Symbol    Alpha    Beta     Spin     Total
       1     H     0.39310  0.39310  0.00000  0.21380
       2     O     4.20024  4.20024  0.00000 -0.40048
       3     C     2.95394  2.95394  0.00000  0.09213
       4     C     3.09889  3.09889  0.00000 -0.19779
       5     H     0.45149  0.45149  0.00000  0.09701
       6     H     0.46412  0.46412  0.00000  0.07176
       7     C     3.16970  3.16970  0.00000 -0.33940
       8     H     0.42070  0.42070  0.00000  0.15860
       9     H     0.42088  0.42088  0.00000  0.15824
      10     H     0.42694  0.42694  0.00000  0.14613

   Total alpha = 16.00000, Total beta = 16.00000, Total charge =  0.00000

*** Psi4 exiting successfully. Buy a developer a beer!
