  ==> Input File <==

--------------------------------------------------------------------------
set {
	reference rhf
	basis 6-31G*
}

set_num_threads( 4 )
memory 2 gb

molecule MOL {
0 1

H	 -0.000158	 1.970498	 0.756846
O	 -0.000074	 1.880206	 -0.189275
C	 -0.000015	 0.544847	 -0.545111
C	 -1.278788	 -0.123820	 -0.051541
C	 1.278802	 -0.123718	 -0.051505
H	 -0.000001	 0.490777	 -1.623619
F	 -1.521659	 -1.198693	 -0.770710
F	 -1.196172	 -0.488125	 1.210527
F	 -2.314618	 0.690031	 -0.179216
F	 2.323327	 0.466644	 -0.591854
F	 1.326242	 -1.401483	 -0.363667
F	 1.388946	 -0.015632	 1.262939

	symmetry c1
}
set optking {
	frozen_dihedral = ("
		7 4 3 6
	")
}

ee = optimize('scf')
oeprop('DIPOLE', 'QUADRUPOLE', 'MULLIKEN_CHARGES')
f=open( 'psi4out.xyz', 'w' )
f.write( "12  " )
f.write( str(ee) + "\n" )
f.write( MOL.save_string_xyz() )
f.close()
--------------------------------------------------------------------------

    Molecular point group: c1
  Charge       = 0
  Multiplicity = 1
  Basis Set: 6-31G*
  Basis Set:
  @DF-RHF Final Energy:  -786.27522966562196
    Total Energy =                       -786.2752296656221915
    Molecular point group: c1
  Basis Set: 6-31G*
  Basis Set:
  Basis Set: 6-31G*
  Basis Set:
  @DF-RHF Final Energy:  -786.27621708959987
    Total Energy =                       -786.2762170895999816
  Basis Set: 6-31G*
  Basis Set:
  Basis Set: 6-31G*
  Basis Set:
  @DF-RHF Final Energy:  -786.27656437092764
    Total Energy =                       -786.2765643709274173
  Basis Set: 6-31G*
  Basis Set:
  Basis Set: 6-31G*
  Basis Set:
  @DF-RHF Final Energy:  -786.27661852554888
    Total Energy =                       -786.2766185255484288
  Basis Set: 6-31G*
  Basis Set:
  Basis Set: 6-31G*
  Basis Set:
  @DF-RHF Final Energy:  -786.27663107800186
    Total Energy =                       -786.2766310780027652
  Basis Set: 6-31G*
  Basis Set:
  Basis Set: 6-31G*
  Basis Set:
  @DF-RHF Final Energy:  -786.27663270420680
    Total Energy =                       -786.2766327042061221
  Basis Set: 6-31G*
  Basis Set:
  Charge       = 0
  Multiplicity = 1
  Basis Set: 6-31G*
  Basis Set:

    Orbital Energies (a.u.)
    -----------------------

    Doubly Occupied:

       1A    -26.363610     2A    -26.363482     3A    -26.362064
       4A    -26.359145     5A    -26.359108     6A    -26.356368
       7A    -20.617945     8A    -11.526327     9A    -11.524425
      10A    -11.349152    11A     -1.764693    12A     -1.757964
      13A     -1.661635    14A     -1.658650    15A     -1.656484
      16A     -1.653933    17A     -1.436440    18A     -1.102445
      19A     -0.995960    20A     -0.937770    21A     -0.863894
      22A     -0.862351    23A     -0.851334    24A     -0.844916
      25A     -0.831298    26A     -0.814716    27A     -0.740343
      28A     -0.727794    29A     -0.725557    30A     -0.719536
      31A     -0.688947    32A     -0.686727    33A     -0.683234
      34A     -0.674629    35A     -0.669489    36A     -0.661088
      37A     -0.657955    38A     -0.653746    39A     -0.619421
      40A     -0.550404    41A     -0.505820

  @DF-RHF Final Energy:  -786.27663328529934

   => Energetics <=

    Nuclear Repulsion Energy =            670.8970662886094942
    One-Electron Energy =               -2428.6658021847515556
    Two-Electron Energy =                 971.4921026108430624
    DFT Exchange-Correlation Energy =       0.0000000000000000
    Empirical Dispersion Energy =           0.0000000000000000
    PCM Polarization Energy =               0.0000000000000000
    EFP Energy =                            0.0000000000000000
    Total Energy =                       -786.2766332852989990
    Molecular point group: c1
  Basis Set: 6-31G*
  Basis Set:

  -Total Gradient:
     Atom            X                  Y                   Z
    ------   -----------------  -----------------  -----------------
       1        0.000003294117    -0.000029904861    -0.000009494946
       2       -0.000012325575     0.000025146732    -0.000028952905
       3       -0.002747091136     0.004312100873    -0.000694204098
       4        0.002563757833    -0.002828050164     0.002532524291
       5       -0.000013521917    -0.000041264738    -0.000002644594
       6        0.001899479642    -0.003153820254     0.000138388893
       7       -0.001691880765     0.001694145313    -0.001964909872
       8        0.000015100662    -0.000022336290     0.000049714419
       9       -0.000002172456    -0.000004544898     0.000001059234
      10        0.000002178929     0.000033663081     0.000004646906
      11       -0.000011416443    -0.000016790580    -0.000003679038
      12       -0.000005402885     0.000031655779    -0.000022448302

  **** Optimization is complete! (in 7 steps) ****
    Final optimized geometry and variables:
    Molecular point group: c1

    Geometry (in Angstrom), charge = 0, multiplicity = 1:

    H            0.051375447593     1.981996402739     0.826448264330
    O           -0.000153047561     1.915310356307    -0.119965043807
    C           -0.003846125854     0.594158814566    -0.514402557762
    C           -1.270114041026    -0.137571888523    -0.065546863955
    C            1.269383299944    -0.098071884695    -0.036271449118
    H            0.015384416356     0.557658960390    -1.593376118454
    F           -1.473394783725    -1.212896101567    -0.800212001816
    F           -1.211420695033    -0.503542380209     1.203230508613
    F           -2.316645045414     0.647245148587    -0.207154503110
    F            2.312537475761     0.386415633950    -0.676253430927
    F            1.226687792913    -1.398136912503    -0.245161048451
    F            1.461713533961     0.107225880064     1.256458786948

  Mulliken Charges: (a.u.)
   Center  Symbol    Alpha    Beta     Spin     Total
       1     H     0.26621  0.26621  0.00000  0.46759
       2     O     4.36044  4.36044  0.00000 -0.72088
       3     C     3.04914  3.04914  0.00000 -0.09829
       4     C     2.44714  2.44714  0.00000  1.10573
       5     C     2.44406  2.44406  0.00000  1.11188
       6     H     0.37470  0.37470  0.00000  0.25060
       7     F     4.67563  4.67563  0.00000 -0.35125
       8     F     4.67826  4.67826  0.00000 -0.35653
       9     F     4.67398  4.67398  0.00000 -0.34796
      10     F     4.67513  4.67513  0.00000 -0.35026
      11     F     4.67448  4.67448  0.00000 -0.34897
      12     F     4.68083  4.68083  0.00000 -0.36166

   Total alpha = 41.00000, Total beta = 41.00000, Total charge =  0.00000
