  ==> Input File <==

--------------------------------------------------------------------------
set {
	reference rhf
	basis 6-31G*
}

set_num_threads( 1 )
memory 2 gb

molecule MOL {
0 1

O	 -2.595742	 -0.873459	 0.233448
C	 -1.921153	 0.064240	 -0.045697
C	 -2.403587	 1.286888	 -0.778320
O	 -0.632575	 0.154573	 0.251549
H	 -1.836713	 1.412862	 -1.693597
H	 -3.454066	 1.182660	 -1.005184
H	 -2.240993	 2.167502	 -0.167716
C	 0.160891	 -1.019931	 0.106212
C	 1.589627	 -0.672828	 0.480843
H	 0.089836	 -1.367806	 -0.916050
H	 -0.238459	 -1.792301	 0.749618
C	 2.246377	 0.346236	 -0.452210
H	 2.163194	 -1.597435	 0.473358
H	 1.604769	 -0.303424	 1.502885
C	 3.691736	 0.652107	 -0.061850
H	 2.219579	 -0.032311	 -1.472055
H	 1.666466	 1.263317	 -0.447249
H	 4.134505	 1.377213	 -0.737283
H	 4.305508	 -0.243868	 -0.089969
H	 3.748266	 1.059562	 0.943567

	symmetry c1
}
set optking {
	frozen_dihedral = ("
		16 12 9 8,
		2 4 8 10,
		12 9 8 10
	")
}

ee = energy('scf')
oeprop('DIPOLE', 'QUADRUPOLE', 'MULLIKEN_CHARGES')
f=open( 'psi4out.xyz', 'w' )
f.write( "20  " )
f.write( str(ee) + "\n" )
f.write( MOL.save_string_xyz() )
f.close()
--------------------------------------------------------------------------

    Molecular point group: c1

    Geometry (in Angstrom), charge = 0, multiplicity = 1:

       Center              X                  Y                   Z               Mass
    ------------   -----------------  -----------------  -----------------  -----------------
           O         -2.604245314101    -0.869431352289     0.269084608647    15.994914619560
           C         -1.929656314101     0.068267647711    -0.010060391353    12.000000000000
           C         -2.412090314101     1.290915647711    -0.742683391353    12.000000000000
           O         -0.641078314101     0.158600647711     0.287185608647    15.994914619560
           H         -1.845216314101     1.416889647711    -1.657960391353     1.007825032070
           H         -3.462569314101     1.186687647711    -0.969547391353     1.007825032070
           H         -2.249496314101     2.171529647711    -0.132079391353     1.007825032070
           C          0.152387685899    -1.015903352289     0.141848608647    12.000000000000
           C          1.581123685899    -0.668800352289     0.516479608647    12.000000000000
           H          0.081332685899    -1.363778352289    -0.880413391353     1.007825032070
           H         -0.246962314101    -1.788273352289     0.785254608647     1.007825032070
           C          2.237873685899     0.350263647711    -0.416573391353    12.000000000000
           H          2.154690685899    -1.593407352289     0.508994608647     1.007825032070
           H          1.596265685899    -0.299396352289     1.538521608647     1.007825032070
           C          3.683232685899     0.656134647711    -0.026213391353    12.000000000000
           H          2.211075685899    -0.028283352289    -1.436418391353     1.007825032070
           H          1.657962685899     1.267344647711    -0.411612391353     1.007825032070
           H          4.126001685899     1.381240647711    -0.701646391353     1.007825032070
           H          4.297004685899    -0.239840352289    -0.054332391353     1.007825032070
           H          3.739762685899     1.063589647711     0.979203608647     1.007825032070

  Charge       = 0
  Multiplicity = 1
  Basis Set: 6-31G*
  Basis Set:

    Orbital Energies (a.u.)
    -----------------------

    Doubly Occupied:

       1A    -20.593952     2A    -20.547427     3A    -11.375096
       4A    -11.286573     5A    -11.233425     6A    -11.226953
       7A    -11.221931     8A    -11.214381     9A     -1.465679
      10A     -1.363110    11A     -1.086666    12A     -1.027120
      13A     -0.983613    14A     -0.881890    15A     -0.812085
      16A     -0.777184    17A     -0.693014    18A     -0.683000
      19A     -0.659273    20A     -0.633880    21A     -0.605738
      22A     -0.593810    23A     -0.571038    24A     -0.561205
      25A     -0.545458    26A     -0.524049    27A     -0.511492
      28A     -0.484240    29A     -0.476907    30A     -0.474658
      31A     -0.447712    32A     -0.436216

  @DF-RHF Final Energy:  -383.93732793515710

   => Energetics <=

    Nuclear Repulsion Energy =            385.3314602156605133
    One-Electron Energy =               -1286.5398818130774998
    Two-Electron Energy =                 517.2710936622594318
    DFT Exchange-Correlation Energy =       0.0000000000000000
    Empirical Dispersion Energy =           0.0000000000000000
    PCM Polarization Energy =               0.0000000000000000
    EFP Energy =                            0.0000000000000000
    Total Energy =                       -383.9373279351575547

  Mulliken Charges: (a.u.)
   Center  Symbol    Alpha    Beta     Spin     Total
       1     O     4.27483  4.27483  0.00000 -0.54967
       2     C     2.61921  2.61921  0.00000  0.76157
       3     C     3.28297  3.28297  0.00000 -0.56595
       4     O     4.31108  4.31108  0.00000 -0.62215
       5     H     0.40338  0.40338  0.00000  0.19323
       6     H     0.39805  0.39805  0.00000  0.20389
       7     H     0.39973  0.39973  0.00000  0.20054
       8     C     3.00475  3.00475  0.00000 -0.00950
       9     C     3.16491  3.16491  0.00000 -0.32981
      10     H     0.41874  0.41874  0.00000  0.16252
      11     H     0.40183  0.40183  0.00000  0.19634
      12     C     3.15516  3.15516  0.00000 -0.31031
      13     H     0.41834  0.41834  0.00000  0.16333
      14     H     0.41171  0.41171  0.00000  0.17658
      15     C     3.24047  3.24047  0.00000 -0.48094
      16     H     0.42444  0.42444  0.00000  0.15113
      17     H     0.41128  0.41128  0.00000  0.17744
      18     H     0.41761  0.41761  0.00000  0.16479
      19     H     0.42163  0.42163  0.00000  0.15674
      20     H     0.41988  0.41988  0.00000  0.16023

   Total alpha = 32.00000, Total beta = 32.00000, Total charge = -0.00000
