                              Psi4 1.0.54 Driver

  ==> Input File <==

--------------------------------------------------------------------------
set {
	reference rhf
	basis cc-pvtz
}

set_num_threads( 4 )
memory 2 gb

molecule MOL {
0 1

H	 -2.171709	 0.882708	 0.500286
C	 -2.016894	 0.001719	 -0.114152
O	 -0.775228	 0.000056	 -0.739966
H	 -2.760846	 0.003757	 -0.898169
H	 -2.174774	 -0.879864	 0.498643
C	 -0.350063	 -1.139939	 -1.460332
C	 1.028644	 -0.751478	 -1.982967
C	 -0.234338	 -2.359799	 -0.544260
C	 -1.287457	 -1.433018	 -2.633359
H	 1.688850	 -0.518608	 -1.157132
H	 0.955339	 0.125767	 -2.613183
H	 1.466401	 -1.557252	 -2.560085
H	 0.377694	 -2.125436	 0.318387
H	 0.227291	 -3.183133	 -1.076153
H	 -1.201152	 -2.700567	 -0.195388
H	 -1.417139	 -0.546072	 -3.241798
H	 -0.871614	 -2.215851	 -3.256355
H	 -2.263018	 -1.766213	 -2.301953

	symmetry c1
}
set optking {
	frozen_dihedral = ("
		6 3 2 5
	")
}

ee,wfn = optimize('scf', return_wfn=True)
oeprop( wfn, 'DIPOLE', 'QUADRUPOLE', 'MULLIKEN_CHARGES')
f=open( 'psi4out.xyz', 'w' )
f.write( "18  " )
f.write( str(ee) + "\n" )
f.write( MOL.save_string_xyz() )
f.close()
--------------------------------------------------------------------------

    Molecular point group: c1
  Charge       = 0
  Multiplicity = 1
  Basis Set: CC-PVTZ
  Basis Set:
  @DF-RHF Final Energy:  -271.27425120307129
    Total Energy =                       -271.2742512030714579
    Molecular point group: c1
  Basis Set: CC-PVTZ
  Basis Set:
  Basis Set: CC-PVTZ
  Basis Set:
  @DF-RHF Final Energy:  -271.27609586571384
    Total Energy =                       -271.2760958657138985
  Basis Set: CC-PVTZ
  Basis Set:
  Basis Set: CC-PVTZ
  Basis Set:
  @DF-RHF Final Energy:  -271.27662154940219
    Total Energy =                       -271.2766215494021935
  Basis Set: CC-PVTZ
  Basis Set:
  Basis Set: CC-PVTZ
  Basis Set:
  @DF-RHF Final Energy:  -271.27658562696558
    Total Energy =                       -271.2765856269655842
  Basis Set: CC-PVTZ
  Basis Set:
  Basis Set: CC-PVTZ
  Basis Set:
  @DF-RHF Final Energy:  -271.27664862291152
    Total Energy =                       -271.2766486229111251
  Basis Set: CC-PVTZ
  Basis Set:
  Charge       = 0
  Multiplicity = 1
  Basis Set: CC-PVTZ
  Basis Set:

    Orbital Energies (a.u.)
    -----------------------

    Doubly Occupied:

       1A    -20.540407     2A    -11.280182     3A    -11.258229
       4A    -11.207866     5A    -11.206440     6A    -11.201806
       7A     -1.373485     8A     -1.074563     9A     -0.947006
      10A     -0.940619    11A     -0.913147    12A     -0.753540
      13A     -0.656769    14A     -0.646601    15A     -0.639682
      16A     -0.593302    17A     -0.575133    18A     -0.553471
      19A     -0.534494    20A     -0.525082    21A     -0.515165
      22A     -0.489401    23A     -0.487855    24A     -0.440853
      25A     -0.407042

  @DF-RHF Final Energy:  -271.27664944798852

   => Energetics <=

    Nuclear Repulsion Energy =            272.6923230736898063
    One-Electron Energy =                -908.4136690425211782
    Two-Electron Energy =                 364.4446965208426263
    DFT Exchange-Correlation Energy =       0.0000000000000000
    Empirical Dispersion Energy =           0.0000000000000000
    PCM Polarization Energy =               0.0000000000000000
    EFP Energy =                            0.0000000000000000
    Total Energy =                       -271.2766494479888024
    Molecular point group: c1
  Basis Set: CC-PVTZ
  Basis Set:

  -Total Gradient:
     Atom            X                  Y                   Z
    ------   -----------------  -----------------  -----------------
       1        0.000065801735    -0.000004457451    -0.000024900110
       2        0.000371485468     0.000325078900     0.001000593510
       3       -0.000338015889     0.000230203015    -0.000782300854
       4       -0.000005121038    -0.000005276461    -0.000084737996
       5       -0.000177837711    -0.000428408077    -0.000492202811
       6        0.000140014736    -0.000249607432     0.000351193196
       7       -0.000038504675     0.000086606083     0.000037568975
       8        0.000033838253     0.000057908494     0.000041388971
       9        0.000017810691    -0.000042660983    -0.000046296156
      10        0.000006275126     0.000021181500     0.000002322285
      11        0.000009460128     0.000019303404    -0.000020493176
      12       -0.000042601177     0.000019420598     0.000056760834
      13        0.000063958087     0.000025279884    -0.000015916579
      14       -0.000008489709    -0.000133039162    -0.000041145185
      15       -0.000102188017     0.000030049277     0.000100742460
      16        0.000054657432     0.000031020788    -0.000119455836
      17       -0.000004120424    -0.000017024603     0.000044827732
      18       -0.000046423017     0.000034422228    -0.000007949258

  **** Optimization is complete! (in 6 steps) ****
    Final optimized geometry and variables:
    Molecular point group: c1

    Geometry (in Angstrom), charge = 0, multiplicity = 1:

    H           -1.381707454775     1.825414167750     1.776299380821
    C           -1.373474343962     0.964841825557     1.122554212396
    O           -0.126613233287     0.935971664136     0.506804047774
    H           -2.180546083894     1.075266650287     0.404746616068
    H           -1.566695573704     0.080878378857     1.721092968851
    C            0.268977831690    -0.205943858524    -0.227429001520
    C            1.593682613464     0.203334258197    -0.861598207807
    C            0.487089361332    -1.400457972851     0.703883012659
    C           -0.747716218129    -0.548039156721    -1.317685156346
    H            2.304198852910     0.481422149874    -0.093576252020
    H            1.449473401505     1.056811532688    -1.511936518120
    H            2.012784601572    -0.609063386312    -1.443247533116
    H            1.176110400945    -1.134877109953     1.496317246269
    H            0.905093932322    -2.234665419155     0.152574180693
    H           -0.436607827075    -1.741015245431     1.154755841801
    H           -0.933991967391     0.315031176844    -1.945873144932
    H           -0.368215833855    -1.347456586272    -1.942577089458
    H           -1.691868322418    -0.879008584191    -0.902687024920

  Mulliken Charges: (a.u.)
   Center  Symbol    Alpha    Beta     Spin     Total
       1     H     0.44127  0.44127  0.00000  0.11746
       2     C     3.04468  3.04468  0.00000 -0.08937
       3     O     4.19042  4.19042  0.00000 -0.38085
       4     H     0.46744  0.46744  0.00000  0.06512
       5     H     0.47026  0.47026  0.00000  0.05948
       6     C     2.87450  2.87450  0.00000  0.25099
       7     C     3.14154  3.14154  0.00000 -0.28309
       8     C     3.16033  3.16033  0.00000 -0.32067
       9     C     3.16651  3.16651  0.00000 -0.33303
      10     H     0.44836  0.44836  0.00000  0.10328
      11     H     0.44936  0.44936  0.00000  0.10128
      12     H     0.45932  0.45932  0.00000  0.08136
      13     H     0.44603  0.44603  0.00000  0.10794
      14     H     0.44971  0.44971  0.00000  0.10058
      15     H     0.44917  0.44917  0.00000  0.10165
      16     H     0.44511  0.44511  0.00000  0.10978
      17     H     0.44720  0.44720  0.00000  0.10560
      18     H     0.44876  0.44876  0.00000  0.10248

   Total alpha = 25.00000, Total beta = 25.00000, Total charge =  0.00000

*** Psi4 exiting successfully. Buy a developer a beer!
