  ==> Input File <==

--------------------------------------------------------------------------
set {
	reference rhf
	basis 6-31G*
}

set_num_threads( 1 )
memory 2 gb

molecule MOL {
0 1

H	 1.818615	 -0.715299	 1.541663
C	 1.911202	 -0.187923	 0.584530
C	 0.692068	 0.589600	 0.160137
O	 2.921119	 -0.254401	 -0.038188
C	 -0.558097	 -0.297372	 0.091132
H	 0.900974	 1.053489	 -0.796757
H	 0.532408	 1.381618	 0.890922
C	 -1.850991	 0.512573	 -0.019058
H	 -0.476753	 -0.965681	 -0.762987
H	 -0.604799	 -0.930658	 0.975228
C	 -3.096943	 -0.368295	 -0.099594
H	 -1.800724	 1.150330	 -0.898172
H	 -1.931651	 1.177355	 0.838044
H	 -3.060452	 -1.020287	 -0.967456
H	 -3.996858	 0.233488	 -0.175704
H	 -3.191959	 -0.995686	 0.782074

	symmetry c1
}
set optking {
	frozen_dihedral = ("
		9 5 8 12,
		4 2 3 6
	")
}

ee = energy('scf')
oeprop('DIPOLE', 'QUADRUPOLE', 'MULLIKEN_CHARGES')
f=open( 'psi4out.xyz', 'w' )
f.write( "16  " )
f.write( str(ee) + "\n" )
f.write( MOL.save_string_xyz() )
f.close()
--------------------------------------------------------------------------

    Molecular point group: c1

    Geometry (in Angstrom), charge = 0, multiplicity = 1:

       Center              X                  Y                   Z               Mass
    ------------   -----------------  -----------------  -----------------  -----------------
           H          1.818774225148    -0.706997081186     1.432070534181     1.007825032070
           C          1.911361225148    -0.179621081186     0.474937534181    12.000000000000
           C          0.692227225148     0.597901918814     0.050544534181    12.000000000000
           O          2.921278225148    -0.246099081186    -0.147780465819    15.994914619560
           C         -0.557937774852    -0.289070081186    -0.018460465819    12.000000000000
           H          0.901133225148     1.061790918814    -0.906349465819     1.007825032070
           H          0.532567225148     1.389919918814     0.781329534181     1.007825032070
           C         -1.850831774852     0.520874918814    -0.128650465819    12.000000000000
           H         -0.476593774852    -0.957379081186    -0.872579465819     1.007825032070
           H         -0.604639774852    -0.922356081186     0.865635534181     1.007825032070
           C         -3.096783774852    -0.359993081186    -0.209186465819    12.000000000000
           H         -1.800564774852     1.158631918814    -1.007764465819     1.007825032070
           H         -1.931491774852     1.185656918814     0.728451534181     1.007825032070
           H         -3.060292774852    -1.011985081186    -1.077048465819     1.007825032070
           H         -3.996698774852     0.241789918814    -0.285296465819     1.007825032070
           H         -3.191799774852    -0.987384081186     0.672481534181     1.007825032070

  Charge       = 0
  Multiplicity = 1
  Basis Set: 6-31G*
  Basis Set:

    Orbital Energies (a.u.)
    -----------------------

    Doubly Occupied:

       1A    -20.562535     2A    -11.326665     3A    -11.236492
       4A    -11.235182     5A    -11.229466     6A    -11.218567
       7A     -1.402343     8A     -1.096692     9A     -1.018918
      10A     -0.905960    11A     -0.812562    12A     -0.793964
      13A     -0.676996    14A     -0.648795    15A     -0.629200
      16A     -0.603254    17A     -0.580846    18A     -0.552179
      19A     -0.529270    20A     -0.506744    21A     -0.487856
      22A     -0.481447    23A     -0.479478    24A     -0.409273

  @DF-RHF Final Energy:  -270.01951279913123

   => Energetics <=

    Nuclear Repulsion Energy =            228.8096851591820950
    One-Electron Energy =                -818.8089423963594982
    Two-Electron Energy =                 319.9797444380458273
    DFT Exchange-Correlation Energy =       0.0000000000000000
    Empirical Dispersion Energy =           0.0000000000000000
    PCM Polarization Energy =               0.0000000000000000
    EFP Energy =                            0.0000000000000000
    Total Energy =                       -270.0195127991315758

  Mulliken Charges: (a.u.)
   Center  Symbol    Alpha    Beta     Spin     Total
       1     H     0.43193  0.43193  0.00000  0.13613
       2     C     2.83041  2.83041  0.00000  0.33918
       3     C     3.20779  3.20779  0.00000 -0.41558
       4     O     4.23699  4.23699  0.00000 -0.47398
       5     C     3.16453  3.16453  0.00000 -0.32907
       6     H     0.39875  0.39875  0.00000  0.20250
       7     H     0.40980  0.40980  0.00000  0.18041
       8     C     3.15198  3.15198  0.00000 -0.30395
       9     H     0.41194  0.41194  0.00000  0.17612
      10     H     0.41947  0.41947  0.00000  0.16107
      11     C     3.24056  3.24056  0.00000 -0.48112
      12     H     0.41855  0.41855  0.00000  0.16289
      13     H     0.42106  0.42106  0.00000  0.15788
      14     H     0.41930  0.41930  0.00000  0.16140
      15     H     0.41646  0.41646  0.00000  0.16708
      16     H     0.42048  0.42048  0.00000  0.15904

   Total alpha = 24.00000, Total beta = 24.00000, Total charge =  0.00000
