  ==> Input File <==

--------------------------------------------------------------------------
set {
	reference rhf
	basis cc-pvtz
}

set_num_threads( 4 )
memory 2 gb

molecule MOL {
0 1

H	 1.348116	 -1.300694	 0.345546
C	 0.788096	 -0.429819	 0.000000
N	 -0.537714	 -0.645117	 0.000000
O	 1.333201	 0.575690	 -0.329441
C	 -1.522613	 0.412524	 0.000000
H	 -0.845894	 -1.585866	 0.000000
H	 -2.150256	 0.356137	 -0.880771
H	 -1.005621	 1.357208	 0.000000
H	 -2.150256	 0.356137	 0.880771

	symmetry c1
}
set optking {
	frozen_dihedral = ("
		1 2 3 6
	")
}

ee = optimize('scf')
oeprop('DIPOLE', 'QUADRUPOLE', 'MULLIKEN_CHARGES')
f=open( 'psi4out.xyz', 'w' )
f.write( "9  " )
f.write( str(ee) + "\n" )
f.write( MOL.save_string_xyz() )
f.close()
--------------------------------------------------------------------------

    Molecular point group: c1
  Charge       = 0
  Multiplicity = 1
  Basis Set: CC-PVTZ
  Basis Set:
  @DF-RHF Final Energy:  -208.03903929053561
    Total Energy =                       -208.0390392905356975
    Molecular point group: c1
  Basis Set: CC-PVTZ
  Basis Set:
  Basis Set: CC-PVTZ
  Basis Set:
  @DF-RHF Final Energy:  -208.03996943989344
    Total Energy =                       -208.0399694398934969
  Basis Set: CC-PVTZ
  Basis Set:
  Basis Set: CC-PVTZ
  Basis Set:
  @DF-RHF Final Energy:  -208.04145760938235
    Total Energy =                       -208.0414576093822916
  Basis Set: CC-PVTZ
  Basis Set:
  Basis Set: CC-PVTZ
  Basis Set:
  @DF-RHF Final Energy:  -208.04260812024100
    Total Energy =                       -208.0426081202409421
  Basis Set: CC-PVTZ
  Basis Set:
  @DF-RHF Final Energy:  -208.04270162486233
    Total Energy =                       -208.0427016248623318
  @DF-RHF Final Energy:  -208.04280360268581
    Total Energy =                       -208.0428036026858649
  @DF-RHF Final Energy:  -208.04308492060608
    Total Energy =                       -208.0430849206060202
  Basis Set: CC-PVTZ
  Basis Set:
  @DF-RHF Final Energy:  -208.04318022483466
    Total Energy =                       -208.0431802248345434
  Basis Set: CC-PVTZ
  Basis Set:
  Basis Set: CC-PVTZ
  Basis Set:
  @DF-RHF Final Energy:  -208.04320753376567
    Total Energy =                       -208.0432075337656670
  Basis Set: CC-PVTZ
  Basis Set:
  Basis Set: CC-PVTZ
  Basis Set:
  @DF-RHF Final Energy:  -208.04320897038005
    Total Energy =                       -208.0432089703800216
  Basis Set: CC-PVTZ
  Basis Set:
  Charge       = 0
  Multiplicity = 1
  Basis Set: CC-PVTZ
  Basis Set:

    Orbital Energies (a.u.)
    -----------------------

    Doubly Occupied:

       1A    -20.520468     2A    -15.584115     3A    -11.337566
       4A    -11.259009     5A     -1.397038     6A     -1.239192
       7A     -0.967804     8A     -0.807670     9A     -0.747749
      10A     -0.647278    11A     -0.631672    12A     -0.593915
      13A     -0.556737    14A     -0.538866    15A     -0.431084
      16A     -0.399632

  @DF-RHF Final Energy:  -208.04320941860723

   => Energetics <=

    Nuclear Repulsion Energy =            122.9180573481607155
    One-Electron Energy =                -526.6029433227403160
    Two-Electron Energy =                 195.6416765559722535
    DFT Exchange-Correlation Energy =       0.0000000000000000
    Empirical Dispersion Energy =           0.0000000000000000
    PCM Polarization Energy =               0.0000000000000000
    EFP Energy =                            0.0000000000000000
    Total Energy =                       -208.0432094186073755
    Molecular point group: c1
  Basis Set: CC-PVTZ
  Basis Set:

  -Total Gradient:
     Atom            X                  Y                   Z
    ------   -----------------  -----------------  -----------------
       1        0.000480531188     0.000776835421     0.001981258113
       2       -0.000890604703    -0.000986017910    -0.003407970391
       3        0.001057522247     0.000257752470     0.003799300089
       4        0.000055477698     0.000008163372    -0.000005152321
       5        0.000010030783    -0.000022599844     0.000018407784
       6       -0.000705795084    -0.000034890631    -0.002368490704
       7       -0.000006212528    -0.000002175679    -0.000017763178
       8       -0.000000182039    -0.000006608442     0.000007572898
       9       -0.000000767560     0.000009541246    -0.000007162291

  **** Optimization is complete! (in 11 steps) ****
    Final optimized geometry and variables:
    Molecular point group: c1

    Geometry (in Angstrom), charge = 0, multiplicity = 1:

    H            1.383409445860    -1.331202194960     0.187997447101
    C            0.783540538937    -0.440064654833    -0.005854017818
    N           -0.502135513860    -0.586215592012     0.371945161145
    O            1.257474797215     0.553680483558    -0.454966674938
    C           -1.483031865704     0.445396185882     0.109138989902
    H           -0.829003422918    -1.515904523261     0.478451345058
    H           -1.733742253563     0.514394936768    -0.943302683981
    H           -1.093020412085     1.399325232065     0.427197755462
    H           -2.379110810791     0.227678620643     0.672574611042

  Mulliken Charges: (a.u.)
   Center  Symbol    Alpha    Beta     Spin     Total
       1     H     0.46284  0.46284  0.00000  0.07432
       2     C     2.88048  2.88048  0.00000  0.23905
       3     N     3.60449  3.60449  0.00000 -0.20897
       4     O     4.21033  4.21033  0.00000 -0.42067
       5     C     3.07872  3.07872  0.00000 -0.15744
       6     H     0.41489  0.41489  0.00000  0.17022
       7     H     0.45556  0.45556  0.00000  0.08888
       8     H     0.43968  0.43968  0.00000  0.12063
       9     H     0.45301  0.45301  0.00000  0.09398

   Total alpha = 16.00000, Total beta = 16.00000, Total charge =  0.00000
