  ==> Input File <==

--------------------------------------------------------------------------
set {
	reference rhf
	basis 6-31G*
}

set_num_threads( 1 )
memory 2 gb

molecule MOL {
0 1

H	 3.109895	 -3.047881	 -2.602807
C	 2.991580	 -1.977911	 -2.743124
C	 1.692212	 -1.478496	 -2.112724
H	 3.853163	 -1.488753	 -2.298443
H	 3.012847	 -1.779964	 -3.811377
C	 1.490608	 0.027038	 -2.298563
H	 1.693596	 -1.715290	 -1.053701
H	 0.850918	 -2.011157	 -2.553391
C	 0.188966	 0.553173	 -1.693438
H	 2.324912	 0.562626	 -1.859558
H	 1.490696	 0.256922	 -3.361669
C	 0.169600	 0.576866	 -0.172154
H	 0.018964	 1.577513	 -2.021462
H	 -0.665060	 -0.016186	 -2.053504
C	 -1.181045	 0.701995	 0.511084
O	 1.176543	 0.518283	 0.467407
C	 -2.285934	 -0.139295	 -0.145128
H	 -1.449051	 1.751551	 0.493206
H	 -1.071135	 0.403303	 1.551943
C	 -3.651768	 0.085446	 0.506485
H	 -2.346596	 0.110469	 -1.202272
H	 -2.034737	 -1.195320	 -0.088721
C	 -4.759797	 -0.746382	 -0.137905
H	 -3.908762	 1.140117	 0.445781
H	 -3.588286	 -0.154158	 1.565709
H	 -4.868882	 -0.505166	 -1.191300
H	 -4.548009	 -1.809175	 -0.062213
H	 -5.715422	 -0.564821	 0.343442

	symmetry c1
}
set optking {
	frozen_dihedral = ("
		10 6 3 2,
		12 15 17 21
	")
}

ee = energy('scf')
oeprop('DIPOLE', 'QUADRUPOLE', 'MULLIKEN_CHARGES')
f=open( 'psi4out.xyz', 'w' )
f.write( "28  " )
f.write( str(ee) + "\n" )
f.write( MOL.save_string_xyz() )
f.close()
--------------------------------------------------------------------------

    Molecular point group: c1

    Geometry (in Angstrom), charge = 0, multiplicity = 1:

       Center              X                  Y                   Z               Mass
    ------------   -----------------  -----------------  -----------------  -----------------
           H          3.526943347800    -2.843620883495    -1.815781784649     1.007825032070
           C          3.408628347800    -1.773650883495    -1.956098784649    12.000000000000
           C          2.109260347800    -1.274235883495    -1.325698784649    12.000000000000
           H          4.270211347800    -1.284492883495    -1.511417784649     1.007825032070
           H          3.429895347800    -1.575703883495    -3.024351784649     1.007825032070
           C          1.907656347800     0.231298116505    -1.511537784649    12.000000000000
           H          2.110644347800    -1.511029883495    -0.266675784649     1.007825032070
           H          1.267966347800    -1.806896883495    -1.766365784649     1.007825032070
           C          0.606014347800     0.757433116505    -0.906412784649    12.000000000000
           H          2.741960347800     0.766886116505    -1.072532784649     1.007825032070
           H          1.907744347800     0.461182116505    -2.574643784649     1.007825032070
           C          0.586648347800     0.781126116505     0.614871215351    12.000000000000
           H          0.436012347800     1.781773116505    -1.234436784649     1.007825032070
           H         -0.248011652200     0.188074116505    -1.266478784649     1.007825032070
           C         -0.763996652200     0.906255116505     1.298109215351    12.000000000000
           O          1.593591347800     0.722543116505     1.254432215351    15.994914619560
           C         -1.868885652200     0.064965116505     0.641897215351    12.000000000000
           H         -1.032002652200     1.955811116505     1.280231215351     1.007825032070
           H         -0.654086652200     0.607563116505     2.338968215351     1.007825032070
           C         -3.234719652200     0.289706116505     1.293510215351    12.000000000000
           H         -1.929547652200     0.314729116505    -0.415246784649     1.007825032070
           H         -1.617688652200    -0.991059883495     0.698304215351     1.007825032070
           C         -4.342748652200    -0.542121883495     0.649120215351    12.000000000000
           H         -3.491713652200     1.344377116505     1.232806215351     1.007825032070
           H         -3.171237652200     0.050102116505     2.352734215351     1.007825032070
           H         -4.451833652200    -0.300905883495    -0.404274784649     1.007825032070
           H         -4.130960652200    -1.604914883495     0.724812215351     1.007825032070
           H         -5.298373652200    -0.360560883495     1.130467215351     1.007825032070

  Charge       = 0
  Multiplicity = 1
  Basis Set: 6-31G*
  Basis Set:

    Orbital Energies (a.u.)
    -----------------------

    Doubly Occupied:

       1A    -20.547117     2A    -11.322525     3A    -11.230947
       4A    -11.229907     5A    -11.228528     6A    -11.226022
       7A    -11.216672     8A    -11.216116     9A    -11.212370
      10A    -11.205735    11A     -1.392560    12A     -1.097314
      13A     -1.076517    14A     -1.023247    15A     -0.990186
      16A     -0.906256    17A     -0.875116    18A     -0.810300
      19A     -0.800785    20A     -0.721231    21A     -0.665962
      22A     -0.658912    23A     -0.628658    24A     -0.619068
      25A     -0.609811    26A     -0.588460    27A     -0.580603
      28A     -0.573323    29A     -0.545298    30A     -0.527990
      31A     -0.524918    32A     -0.508322    33A     -0.495723
      34A     -0.486872    35A     -0.477962    36A     -0.474281
      37A     -0.470735    38A     -0.463314    39A     -0.455821
      40A     -0.391989

  @DF-RHF Final Energy:  -426.16462081401960

   => Energetics <=

    Nuclear Repulsion Energy =            537.0302736150566716
    One-Electron Energy =               -1642.2345597512346558
    Two-Electron Energy =                 679.0396653221587258
    DFT Exchange-Correlation Energy =       0.0000000000000000
    Empirical Dispersion Energy =           0.0000000000000000
    PCM Polarization Energy =               0.0000000000000000
    EFP Energy =                            0.0000000000000000
    Total Energy =                       -426.1646208140191447

  Mulliken Charges: (a.u.)
   Center  Symbol    Alpha    Beta     Spin     Total
       1     H     0.41946  0.41946  0.00000  0.16109
       2     C     3.24009  3.24009  0.00000 -0.48018
       3     C     3.15640  3.15640  0.00000 -0.31280
       4     H     0.41820  0.41820  0.00000  0.16359
       5     H     0.42361  0.42361  0.00000  0.15279
       6     C     3.14795  3.14795  0.00000 -0.29590
       7     H     0.41073  0.41073  0.00000  0.17853
       8     H     0.42783  0.42783  0.00000  0.14433
       9     C     3.21594  3.21594  0.00000 -0.43187
      10     H     0.40682  0.40682  0.00000  0.18636
      11     H     0.42216  0.42216  0.00000  0.15568
      12     C     2.72890  2.72890  0.00000  0.54220
      13     H     0.40520  0.40520  0.00000  0.18961
      14     H     0.40776  0.40776  0.00000  0.18448
      15     C     3.20172  3.20172  0.00000 -0.40344
      16     O     4.26922  4.26922  0.00000 -0.53844
      17     C     3.16686  3.16686  0.00000 -0.33372
      18     H     0.40719  0.40719  0.00000  0.18562
      19     H     0.39931  0.39931  0.00000  0.20139
      20     C     3.15103  3.15103  0.00000 -0.30205
      21     H     0.41882  0.41882  0.00000  0.16236
      22     H     0.41549  0.41549  0.00000  0.16901
      23     C     3.24009  3.24009  0.00000 -0.48018
      24     H     0.42138  0.42138  0.00000  0.15724
      25     H     0.41955  0.41955  0.00000  0.16090
      26     H     0.42121  0.42121  0.00000  0.15757
      27     H     0.42019  0.42019  0.00000  0.15962
      28     H     0.41689  0.41689  0.00000  0.16622

   Total alpha = 40.00000, Total beta = 40.00000, Total charge = -0.00000
