                              Psi4 1.0.54 Driver

  ==> Input File <==

--------------------------------------------------------------------------
set {
	reference rhf
	basis cc-pvtz
}

set_num_threads( 4 )
memory 2 gb

molecule MOL {
0 1

O	 0.267439	 0.950022	 -0.865143
C	 0.485107	 0.171416	 -0.000134
C	 1.606966	 -0.836201	 0.000174
O	 -0.241942	 0.082972	 1.099940
C	 2.988788	 -0.202529	 -0.000115
H	 1.465110	 -1.474645	 -0.864821
H	 1.465209	 -1.474077	 0.865596
H	 3.131767	 0.419673	 -0.873407
H	 3.750876	 -0.972315	 0.000098
H	 3.131883	 0.420264	 0.872742
C	 -1.339803	 0.973314	 1.242342
C	 -2.006072	 0.676824	 2.565470
H	 -2.020016	 0.830204	 0.414588
H	 -0.977193	 1.990673	 1.199701
H	 -2.364084	 -0.344554	 2.596885
H	 -2.850881	 1.340689	 2.706233
H	 -1.315368	 0.822580	 3.386478

	symmetry c1
}
set optking {
	frozen_dihedral = ("
		4 2 3 6
	")
}

ee,wfn = optimize('scf', return_wfn=True)
oeprop( wfn, 'DIPOLE', 'QUADRUPOLE', 'MULLIKEN_CHARGES')
f=open( 'psi4out.xyz', 'w' )
f.write( "17  " )
f.write( str(ee) + "\n" )
f.write( MOL.save_string_xyz() )
f.close()
--------------------------------------------------------------------------

    Molecular point group: c1
  Charge       = 0
  Multiplicity = 1
  Basis Set: CC-PVTZ
  Basis Set:
  @DF-RHF Final Energy:  -345.03821148206526
    Total Energy =                       -345.0382114820649804
    Molecular point group: c1
  Basis Set: CC-PVTZ
  Basis Set:
  Basis Set: CC-PVTZ
  Basis Set:
  @DF-RHF Final Energy:  -345.03889490453702
    Total Energy =                       -345.0388949045370168
  Basis Set: CC-PVTZ
  Basis Set:
  Basis Set: CC-PVTZ
  Basis Set:
  @DF-RHF Final Energy:  -345.03883061818607
    Total Energy =                       -345.0388306181860685
  Basis Set: CC-PVTZ
  Basis Set:
  Basis Set: CC-PVTZ
  Basis Set:
  @DF-RHF Final Energy:  -345.03888308232177
    Total Energy =                       -345.0388830823218314
  Basis Set: CC-PVTZ
  Basis Set:
  Charge       = 0
  Multiplicity = 1
  Basis Set: CC-PVTZ
  Basis Set:

    Orbital Energies (a.u.)
    -----------------------

    Doubly Occupied:

       1A    -20.596004     2A    -20.530032     3A    -11.363170
       4A    -11.282667     5A    -11.234552     6A    -11.220703
       7A    -11.220632     8A     -1.470907     9A     -1.363807
      10A     -1.071131    11A     -1.033132    12A     -0.910269
      13A     -0.851621    14A     -0.778170    15A     -0.696810
      16A     -0.688757    17A     -0.669354    18A     -0.620959
      19A     -0.596432    20A     -0.576484    21A     -0.555891
      22A     -0.533539    23A     -0.525942    24A     -0.511131
      25A     -0.502699    26A     -0.494318    27A     -0.455233
      28A     -0.436338

  @DF-RHF Final Energy:  -345.03893183307099

   => Energetics <=

    Nuclear Repulsion Energy =            315.7563148160559763
    One-Electron Energy =               -1096.0091295092122436
    Two-Electron Energy =                 435.2138828600856755
    DFT Exchange-Correlation Energy =       0.0000000000000000
    Empirical Dispersion Energy =           0.0000000000000000
    PCM Polarization Energy =               0.0000000000000000
    EFP Energy =                            0.0000000000000000
    Total Energy =                       -345.0389318330706487
    Molecular point group: c1
  Basis Set: CC-PVTZ
  Basis Set:

  -Total Gradient:
     Atom            X                  Y                   Z
    ------   -----------------  -----------------  -----------------
       1        0.000025358215    -0.000204840725     0.000146259599
       2       -0.000061836317     0.000005321154    -0.000603985554
       3       -0.000208939480    -0.000275656595     0.000330417336
       4       -0.000025146511     0.000210086548     0.000412197317
       5       -0.000115373174    -0.000029305601     0.000025990547
       6        0.000209622177     0.000244759012    -0.000273369906
       7       -0.000002328439     0.000071493182    -0.000027949942
       8        0.000006657384    -0.000007902457     0.000011553344
       9        0.000047796583     0.000007920026    -0.000002840710
      10        0.000059612869     0.000024372865     0.000006628536
      11        0.000103006711    -0.000084426801    -0.000034107919
      12       -0.000006899340     0.000021904426     0.000011030721
      13       -0.000016862587     0.000005977336    -0.000009694482
      14       -0.000015967505     0.000015246962     0.000010506281
      15        0.000003433375    -0.000003871285    -0.000007017746
      16       -0.000001438583     0.000000886046     0.000002274957
      17       -0.000000695379    -0.000001964095     0.000002107618

  **** Optimization is complete! (in 5 steps) ****
    Final optimized geometry and variables:
    Molecular point group: c1

    Geometry (in Angstrom), charge = 0, multiplicity = 1:

    O            0.109316145624     0.680098005881    -1.413511441162
    C            0.259742804083    -0.117529620599    -0.550339003867
    C            1.351340137278    -1.159863232870    -0.550570709813
    O           -0.511044740304    -0.184870463889     0.519427621804
    C            2.737379768385    -0.517925327225    -0.601212670153
    H            1.200917567573    -1.766261655116    -1.436128590875
    H            1.247803594822    -1.794990750524     0.316631952545
    H            2.831302526528     0.119181603026    -1.469567446917
    H            3.501679334117    -1.283223981216    -0.650813376552
    H            2.923023786601     0.082268440007     0.282109955654
    C           -1.576661000676     0.749400778629     0.625837660876
    C           -2.305931049515     0.472481901526     1.919685026940
    H           -2.228387732208     0.639278987603    -0.229306240627
    H           -1.170707756594     1.750826546644     0.604764409892
    H           -2.706924604063    -0.533243927660     1.929045857656
    H           -3.127379906341     1.170081981779     2.032615318840
    H           -1.642644617683     0.584260552323     2.768184262952

  Mulliken Charges: (a.u.)
   Center  Symbol    Alpha    Beta     Spin     Total
       1     O     4.20457  4.20457  0.00000 -0.40915
       2     C     2.81044  2.81044  0.00000  0.37912
       3     C     3.08486  3.08486  0.00000 -0.16971
       4     O     4.14851  4.14851  0.00000 -0.29701
       5     C     3.14583  3.14583  0.00000 -0.29166
       6     H     0.44532  0.44532  0.00000  0.10937
       7     H     0.44030  0.44030  0.00000  0.11940
       8     H     0.44187  0.44187  0.00000  0.11625
       9     H     0.44929  0.44929  0.00000  0.10142
      10     H     0.45344  0.45344  0.00000  0.09312
      11     C     2.97758  2.97758  0.00000  0.04485
      12     C     3.13319  3.13319  0.00000 -0.26638
      13     H     0.45388  0.45388  0.00000  0.09225
      14     H     0.45392  0.45392  0.00000  0.09217
      15     H     0.45131  0.45131  0.00000  0.09738
      16     H     0.45421  0.45421  0.00000  0.09157
      17     H     0.45150  0.45150  0.00000  0.09700

   Total alpha = 28.00000, Total beta = 28.00000, Total charge = -0.00000

*** Psi4 exiting successfully. Buy a developer a beer!
