  ==> Input File <==

--------------------------------------------------------------------------
set {
	reference rhf
	basis 6-31G*
}

set_num_threads( 4 )
memory 2 gb

molecule MOL {
0 1

O	 3.225979	 0.970355	 -0.599647
C	 2.701189	 0.057885	 -0.047330
C	 1.245376	 -0.013843	 0.345420
O	 3.347903	 -1.046386	 0.304773
C	 0.455112	 1.231400	 -0.050772
H	 0.838542	 -0.913825	 -0.103701
H	 1.208210	 -0.175333	 1.419774
C	 -0.998893	 1.219485	 0.433193
H	 0.482531	 1.345121	 -1.130325
H	 0.957290	 2.103070	 0.354729
C	 -1.883438	 0.145884	 -0.207175
H	 -1.431207	 2.195402	 0.224832
H	 -1.019646	 1.105716	 1.516076
C	 -3.347647	 0.245583	 0.225435
H	 -1.822183	 0.231698	 -1.291012
H	 -1.510341	 -0.844814	 0.042401
C	 -4.330702	 0.190081	 -0.945315
H	 -3.497780	 1.172729	 0.775974
H	 -3.573230	 -0.560941	 0.921374
C	 -5.790527	 0.294114	 -0.505101
H	 -4.106063	 0.994743	 -1.642236
H	 -4.185128	 -0.737953	 -1.494261
H	 -6.462578	 0.251736	 -1.356664
H	 -5.976900	 1.228383	 0.017012
H	 -6.056292	 -0.517344	 0.166596
C	 4.728119	 -1.109107	 -0.004993
H	 4.882018	 -1.033965	 -1.071845
H	 5.068212	 -2.067527	 0.355250
H	 5.265056	 -0.311663	 0.488280

	symmetry c1
}
set optking {
	frozen_dihedral = ("
		17 14 11 15
	")
}

ee = optimize('scf')
oeprop('DIPOLE', 'QUADRUPOLE', 'MULLIKEN_CHARGES')
f=open( 'psi4out.xyz', 'w' )
f.write( "29  " )
f.write( str(ee) + "\n" )
f.write( MOL.save_string_xyz() )
f.close()
--------------------------------------------------------------------------

    Molecular point group: c1
  Charge       = 0
  Multiplicity = 1
  Basis Set: 6-31G*
  Basis Set:
  @DF-RHF Final Energy:  -501.03898206484416
    Total Energy =                       -501.0389820648442765
    Molecular point group: c1
  Basis Set: 6-31G*
  Basis Set:
  Basis Set: 6-31G*
  Basis Set:
  @DF-RHF Final Energy:  -501.03920064600936
    Total Energy =                       -501.0392006460094763
  Basis Set: 6-31G*
  Basis Set:
  Basis Set: 6-31G*
  Basis Set:
  @DF-RHF Final Energy:  -501.03923618054057
    Total Energy =                       -501.0392361805409109
  Basis Set: 6-31G*
  Basis Set:
  Basis Set: 6-31G*
  Basis Set:
  @DF-RHF Final Energy:  -501.03929439301203
    Total Energy =                       -501.0392943930115734
  Basis Set: 6-31G*
  Basis Set:
  Basis Set: 6-31G*
  Basis Set:
  @DF-RHF Final Energy:  -501.03926866006520
    Total Energy =                       -501.0392686600650904
  Basis Set: 6-31G*
  Basis Set:
  Basis Set: 6-31G*
  Basis Set:
  @DF-RHF Final Energy:  -501.03929139496972
    Total Energy =                       -501.0392913949690410
  Basis Set: 6-31G*
  Basis Set:
  Basis Set: 6-31G*
  Basis Set:
  @DF-RHF Final Energy:  -501.03929978193571
    Total Energy =                       -501.0392997819366201
  Basis Set: 6-31G*
  Basis Set:
  Charge       = 0
  Multiplicity = 1
  Basis Set: 6-31G*
  Basis Set:

    Orbital Energies (a.u.)
    -----------------------

    Doubly Occupied:

       1A    -20.603389     2A    -20.545207     3A    -11.372026
       4A    -11.280676     5A    -11.234802     6A    -11.219014
       7A    -11.218079     8A    -11.215972     9A    -11.215567
      10A    -11.214125    11A    -11.208670    12A     -1.469083
      13A     -1.362528    14A     -1.096912    15A     -1.065871
      16A     -1.019107    17A     -0.976420    18A     -0.928166
      19A     -0.862180    20A     -0.801488    21A     -0.789711
      22A     -0.764026    23A     -0.701064    24A     -0.682291
      25A     -0.671893    26A     -0.643836    27A     -0.627118
      28A     -0.607639    29A     -0.597359    30A     -0.579605
      31A     -0.563333    32A     -0.553963    33A     -0.531900
      34A     -0.529905    35A     -0.519418    36A     -0.508334
      37A     -0.496987    38A     -0.476300    39A     -0.472671
      40A     -0.462057    41A     -0.455973    42A     -0.451311
      43A     -0.441485    44A     -0.435601

  @DF-RHF Final Energy:  -501.03929978219878

   => Energetics <=

    Nuclear Repulsion Energy =            609.6283394364826336
    One-Electron Energy =               -1890.3891562211988457
    Two-Electron Energy =                 779.7215170025173165
    DFT Exchange-Correlation Energy =       0.0000000000000000
    Empirical Dispersion Energy =           0.0000000000000000
    PCM Polarization Energy =               0.0000000000000000
    EFP Energy =                            0.0000000000000000
    Total Energy =                       -501.0392997821987819
    Molecular point group: c1
  Basis Set: 6-31G*
  Basis Set:

  -Total Gradient:
     Atom            X                  Y                   Z
    ------   -----------------  -----------------  -----------------
       1       -0.000011503668    -0.000001777822    -0.000015695352
       2        0.000015409392     0.000004563120     0.000035227486
       3       -0.000000654243    -0.000016650213    -0.000003705588
       4       -0.000005733602    -0.000009511590    -0.000009346027
       5       -0.000022898036    -0.000007953932    -0.000012761651
       6       -0.000000640591    -0.000010288989     0.000002688708
       7        0.000010671322     0.000001195506    -0.000005598307
       8        0.000040565243     0.000076642952     0.000038364465
       9        0.000014004554     0.000021092093    -0.000020106356
      10       -0.000033035530    -0.000017243477     0.000006016593
      11        0.000415351824     0.003969761284     0.000258714479
      12       -0.000026015795     0.000021124566     0.000016965829
      13        0.000007528635     0.000010734735     0.000004846829
      14       -0.000246765115    -0.003387327710     0.000210034445
      15       -0.000199272812    -0.002683024427    -0.000225492203
      16       -0.000010891050     0.000010890251    -0.000075960248
      17       -0.000010142625     0.001940685119    -0.000186225137
      18        0.000012881829     0.000012452231    -0.000012737104
      19        0.000007614454     0.000061994694     0.000024710985
      20        0.000045681823    -0.000000515638     0.000008373397
      21       -0.000030029199     0.000006737886    -0.000010508103
      22        0.000001271512    -0.000001972128    -0.000033731527
      23        0.000030674980     0.000001507108    -0.000002823772
      24        0.000000156928     0.000007201481     0.000008139087
      25       -0.000002912284    -0.000011088875     0.000000273783
      26        0.000000017153     0.000001605411     0.000001491890
      27        0.000000176869    -0.000000101740    -0.000000566671
      28       -0.000001327659    -0.000000109692    -0.000000220233
      29       -0.000000184315    -0.000000622205    -0.000000369697

  **** Optimization is complete! (in 8 steps) ****
    Final optimized geometry and variables:
    Molecular point group: c1

    Geometry (in Angstrom), charge = 0, multiplicity = 1:

    O            3.259979092609     0.772968728107    -0.491294596370
    C            2.724485565786    -0.134550394547     0.058892702906
    C            1.265307819594    -0.194987349100     0.440936303498
    O            3.360437648287    -1.242862046184     0.417839810932
    C            0.486944280054     1.054879537578     0.035275446821
    H            0.855977266528    -1.093765297158    -0.008152362933
    H            1.219213854154    -0.352665813300     1.515492925126
    C           -0.970628877410     1.056155245032     0.507315054615
    H            0.524136918604     1.166341237907    -1.044318135263
    H            0.992409410556     1.923538704745     0.443116177794
    C           -1.863787698924     0.000467676823    -0.150042897958
    H           -1.391547728455     2.038220525336     0.304132786468
    H           -1.003171328962     0.932958845557     1.589054859160
    C           -3.336109081536     0.068601205570     0.309814320971
    H           -1.811693356998     0.105007327425    -1.231928273990
    H           -1.474394384694    -0.992491640163     0.057717592386
    C           -4.340611838835     0.016792994327    -0.843936818137
    H           -3.501537294662     0.991080694914     0.863093075005
    H           -3.545371938507    -0.737000478191     1.008958270710
    C           -5.793566964632     0.064309469209    -0.374410719621
    H           -4.149512187903     0.849605991015    -1.517276519317
    H           -4.178335573127    -0.888386239384    -1.425964731366
    H           -6.480023166552     0.035336151856    -1.214972987598
    H           -5.995021337927     0.973114669905     0.185939824754
    H           -6.025074856954    -0.778548272159     0.270835352628
    C            4.742450078939    -1.316246988308     0.118591149594
    H            4.904913085761    -1.244215838705    -0.947209715283
    H            5.072763078692    -2.276457371977     0.483120519147
    H            5.281485228710    -0.521842383974     0.614471541209

  Mulliken Charges: (a.u.)
   Center  Symbol    Alpha    Beta     Spin     Total
       1     O     4.28595  4.28595  0.00000 -0.57189
       2     C     2.60483  2.60483  0.00000  0.79034
       3     C     3.20959  3.20959  0.00000 -0.41919
       4     O     4.30745  4.30745  0.00000 -0.61489
       5     C     3.15457  3.15457  0.00000 -0.30914
       6     H     0.39900  0.39900  0.00000  0.20200
       7     H     0.40116  0.40116  0.00000  0.19768
       8     C     3.15826  3.15826  0.00000 -0.31652
       9     H     0.41296  0.41296  0.00000  0.17409
      10     H     0.40869  0.40869  0.00000  0.18261
      11     C     3.15796  3.15796  0.00000 -0.31593
      12     H     0.41810  0.41810  0.00000  0.16380
      13     H     0.42333  0.42333  0.00000  0.15335
      14     C     3.15319  3.15319  0.00000 -0.30637
      15     H     0.42011  0.42011  0.00000  0.15979
      16     H     0.42163  0.42163  0.00000  0.15674
      17     C     3.15309  3.15309  0.00000 -0.30619
      18     H     0.42168  0.42168  0.00000  0.15664
      19     H     0.42133  0.42133  0.00000  0.15735
      20     C     3.24011  3.24011  0.00000 -0.48021
      21     H     0.42242  0.42242  0.00000  0.15516
      22     H     0.42291  0.42291  0.00000  0.15418
      23     H     0.41912  0.41912  0.00000  0.16177
      24     H     0.42165  0.42165  0.00000  0.15669
      25     H     0.42181  0.42181  0.00000  0.15638
      26     C     3.09240  3.09240  0.00000 -0.18481
      27     H     0.40908  0.40908  0.00000  0.18184
      28     H     0.40851  0.40851  0.00000  0.18297
      29     H     0.40912  0.40912  0.00000  0.18175

   Total alpha = 44.00000, Total beta = 44.00000, Total charge = -0.00000
