  ==> Input File <==

--------------------------------------------------------------------------
set {
	reference rhf
	basis 6-31G*
}

set_num_threads( 1 )
memory 2 gb

molecule MOL {
0 1

H	 3.735572	 -0.036818	 0.814020
O	 2.832707	 -0.223601	 1.052141
C	 2.077727	 -0.067559	 -0.035091
C	 0.624473	 -0.343591	 0.253101
O	 2.537782	 0.251399	 -1.082770
C	 -0.265902	 0.883932	 0.072916
H	 0.324016	 -1.163849	 -0.390541
H	 0.565024	 -0.726111	 1.268924
C	 -1.728698	 0.646073	 0.462102
H	 -0.209144	 1.219470	 -0.958188
H	 0.135059	 1.692851	 0.673903
C	 -2.482460	 -0.343073	 -0.431425
H	 -2.245265	 1.602650	 0.432430
H	 -1.779332	 0.308348	 1.496285
C	 -3.960546	 -0.461025	 -0.060175
H	 -2.395034	 -0.026811	 -1.468912
H	 -2.024850	 -1.327147	 -0.371646
H	 -4.472726	 -1.168004	 -0.705284
H	 -4.465146	 0.496508	 -0.151489
H	 -4.081218	 -0.800940	 0.964585

	symmetry c1
}
set optking {
	frozen_dihedral = ("
		16 12 9 6,
		7 4 6 10,
		12 9 6 10,
		1 2 3 5
	")
}

ee = energy('scf')
oeprop('DIPOLE', 'QUADRUPOLE', 'MULLIKEN_CHARGES')
f=open( 'psi4out.xyz', 'w' )
f.write( "20  " )
f.write( str(ee) + "\n" )
f.write( MOL.save_string_xyz() )
f.close()
--------------------------------------------------------------------------

    Molecular point group: c1

    Geometry (in Angstrom), charge = 0, multiplicity = 1:

       Center              X                  Y                   Z               Mass
    ------------   -----------------  -----------------  -----------------  -----------------
           H          3.735311395791    -0.073794814520     0.777289040320     1.007825032070
           O          2.832446395791    -0.260577814520     1.015410040320    15.994914619560
           C          2.077466395791    -0.104535814520    -0.071821959680    12.000000000000
           C          0.624212395791    -0.380567814520     0.216370040320    12.000000000000
           O          2.537521395791     0.214422185480    -1.119500959680    15.994914619560
           C         -0.266162604209     0.846955185480     0.036185040320    12.000000000000
           H          0.323755395791    -1.200825814520    -0.427271959680     1.007825032070
           H          0.564763395791    -0.763087814520     1.232193040320     1.007825032070
           C         -1.728958604209     0.609096185480     0.425371040320    12.000000000000
           H         -0.209404604209     1.182493185480    -0.994918959680     1.007825032070
           H          0.134798395791     1.655874185480     0.637172040320     1.007825032070
           C         -2.482720604209    -0.380049814520    -0.468155959680    12.000000000000
           H         -2.245525604209     1.565673185480     0.395699040320     1.007825032070
           H         -1.779592604209     0.271371185480     1.459554040320     1.007825032070
           C         -3.960806604209    -0.498001814520    -0.096905959680    12.000000000000
           H         -2.395294604209    -0.063787814520    -1.505642959680     1.007825032070
           H         -2.025110604209    -1.364123814520    -0.408376959680     1.007825032070
           H         -4.472986604209    -1.204980814520    -0.742014959680     1.007825032070
           H         -4.465406604209     0.459531185480    -0.188219959680     1.007825032070
           H         -4.081478604209    -0.837916814520     0.927854040320     1.007825032070

  Charge       = 0
  Multiplicity = 1
  Basis Set: 6-31G*
  Basis Set:

    Orbital Energies (a.u.)
    -----------------------

    Doubly Occupied:

       1A    -20.613378     2A    -20.549004     3A    -11.380224
       4A    -11.238123     5A    -11.231197     6A    -11.223885
       7A    -11.221689     8A    -11.213508     9A     -1.473966
      10A     -1.364295    11A     -1.099118    12A     -1.042056
      13A     -0.961876    14A     -0.868587    15A     -0.819827
      16A     -0.784116    17A     -0.701411    18A     -0.686951
      19A     -0.652361    20A     -0.630417    21A     -0.615521
      22A     -0.594674    23A     -0.577812    24A     -0.557116
      25A     -0.538723    26A     -0.518702    27A     -0.496622
      28A     -0.483680    29A     -0.471886    30A     -0.469207
      31A     -0.459784    32A     -0.437346

  @DF-RHF Final Energy:  -383.94627699893550

   => Energetics <=

    Nuclear Repulsion Energy =            375.7134523338590384
    One-Electron Energy =               -1267.3654644542505139
    Two-Electron Energy =                 507.7057351214567689
    DFT Exchange-Correlation Energy =       0.0000000000000000
    Empirical Dispersion Energy =           0.0000000000000000
    PCM Polarization Energy =               0.0000000000000000
    EFP Energy =                            0.0000000000000000
    Total Energy =                       -383.9462769989346498

  Mulliken Charges: (a.u.)
   Center  Symbol    Alpha    Beta     Spin     Total
       1     H     0.26876  0.26876  0.00000  0.46249
       2     O     4.34777  4.34777  0.00000 -0.69555
       3     C     2.62748  2.62748  0.00000  0.74504
       4     C     3.20809  3.20809  0.00000 -0.41619
       5     O     4.27914  4.27914  0.00000 -0.55829
       6     C     3.16253  3.16253  0.00000 -0.32506
       7     H     0.39768  0.39768  0.00000  0.20463
       8     H     0.39998  0.39998  0.00000  0.20004
       9     C     3.15452  3.15452  0.00000 -0.30904
      10     H     0.40602  0.40602  0.00000  0.18796
      11     H     0.41282  0.41282  0.00000  0.17436
      12     C     3.15489  3.15489  0.00000 -0.30979
      13     H     0.41769  0.41769  0.00000  0.16462
      14     H     0.42167  0.42167  0.00000  0.15665
      15     C     3.23959  3.23959  0.00000 -0.47917
      16     H     0.41997  0.41997  0.00000  0.16006
      17     H     0.42191  0.42191  0.00000  0.15618
      18     H     0.41766  0.41766  0.00000  0.16468
      19     H     0.42066  0.42066  0.00000  0.15867
      20     H     0.42115  0.42115  0.00000  0.15769

   Total alpha = 32.00000, Total beta = 32.00000, Total charge =  0.00000
