                              Psi4 1.0.54 Driver

  ==> Input File <==

--------------------------------------------------------------------------
set {
	reference rhf
	basis cc-pvtz
}

set_num_threads( 4 )
memory 2 gb

molecule MOL {
0 1

H	 -2.035430	 -2.864065	 -0.894289
C	 -2.587774	 -1.916421	 -0.955711
C	 -2.506313	 -1.054635	 0.274972
O	 -3.193339	 -1.647202	 -1.934547
C	 -1.065695	 -0.813966	 0.735812
H	 -3.023244	 -0.124244	 0.078783
H	 -3.048884	 -1.579861	 1.057952
C	 -0.247837	 0.040196	 -0.230469
H	 -1.092417	 -0.333268	 1.707694
H	 -0.571346	 -1.770661	 0.885968
C	 1.181757	 0.280428	 0.247371
H	 -0.747754	 0.995014	 -0.370150
H	 -0.223910	 -0.431859	 -1.209253
C	 2.151032	 -0.811012	 -0.202643
H	 1.515939	 1.247397	 -0.115449
H	 1.191514	 0.341223	 1.333422
C	 3.580021	 -0.656538	 0.320835
H	 2.170545	 -0.847575	 -1.289412
H	 1.766632	 -1.772905	 0.124928
C	 4.327657	 0.562694	 -0.213579
H	 4.138806	 -1.549270	 0.057813
H	 3.561991	 -0.620783	 1.406976
H	 4.355973	 0.557257	 -1.298551
H	 3.867136	 1.491650	 0.100501
H	 5.351524	 0.571613	 0.142204

	symmetry c1
}
set optking {
	frozen_dihedral = ("
		12 8 11 14
	")
}

ee,wfn = optimize('scf', return_wfn=True)
oeprop( wfn, 'DIPOLE', 'QUADRUPOLE', 'MULLIKEN_CHARGES')
f=open( 'psi4out.xyz', 'w' )
f.write( "25  " )
f.write( str(ee) + "\n" )
f.write( MOL.save_string_xyz() )
f.close()
--------------------------------------------------------------------------

    Molecular point group: c1
  Charge       = 0
  Multiplicity = 1
  Basis Set: CC-PVTZ
  Basis Set:
  @DF-RHF Final Energy:  -387.25721102167768
    Total Energy =                       -387.2572110216776764
    Molecular point group: c1
  Basis Set: CC-PVTZ
  Basis Set:
  Basis Set: CC-PVTZ
  Basis Set:
  @DF-RHF Final Energy:  -387.25742734354873
    Total Energy =                       -387.2574273435485566
  Basis Set: CC-PVTZ
  Basis Set:
  Basis Set: CC-PVTZ
  Basis Set:
  @DF-RHF Final Energy:  -387.25743991429925
    Total Energy =                       -387.2574399142993116
  Basis Set: CC-PVTZ
  Basis Set:
  Basis Set: CC-PVTZ
  Basis Set:
  @DF-RHF Final Energy:  -387.25725953187532
    Total Energy =                       -387.2572595318753201
  Basis Set: CC-PVTZ
  Basis Set:
  Basis Set: CC-PVTZ
  Basis Set:
  @DF-RHF Final Energy:  -387.25747120545230
    Total Energy =                       -387.2574712054522479
  Basis Set: CC-PVTZ
  Basis Set:
  Charge       = 0
  Multiplicity = 1
  Basis Set: CC-PVTZ
  Basis Set:

    Orbital Energies (a.u.)
    -----------------------

    Doubly Occupied:

       1A    -20.551347     2A    -11.320964     3A    -11.233731
       4A    -11.232860     5A    -11.221716     6A    -11.217770
       7A    -11.217147     8A    -11.216387     9A    -11.208958
      10A     -1.406362    11A     -1.105198    12A     -1.070584
      13A     -1.013758    14A     -0.942266    15A     -0.880569
      16A     -0.821656    17A     -0.790800    18A     -0.779504
      19A     -0.669038    20A     -0.654203    21A     -0.633795
      22A     -0.626964    23A     -0.611642    24A     -0.595210
      25A     -0.574019    26A     -0.561896    27A     -0.531307
      28A     -0.524135    29A     -0.517428    30A     -0.497938
      31A     -0.489658    32A     -0.480979    33A     -0.464953
      34A     -0.451232    35A     -0.446592    36A     -0.411876

  @DF-RHF Final Energy:  -387.25747162132399

   => Energetics <=

    Nuclear Repulsion Energy =            443.9590843614789151
    One-Electron Energy =               -1404.4842340022639746
    Two-Electron Energy =                 573.2676780194611865
    DFT Exchange-Correlation Energy =       0.0000000000000000
    Empirical Dispersion Energy =           0.0000000000000000
    PCM Polarization Energy =               0.0000000000000000
    EFP Energy =                            0.0000000000000000
    Total Energy =                       -387.2574716213238162
    Molecular point group: c1
  Basis Set: CC-PVTZ
  Basis Set:

  -Total Gradient:
     Atom            X                  Y                   Z
    ------   -----------------  -----------------  -----------------
       1        0.000058077540     0.000047658669    -0.000028430474
       2       -0.000187029114    -0.000123813024     0.000101857815
       3        0.000031513056     0.000001757796    -0.000027433779
       4        0.000055612807     0.000041523283    -0.000053175132
       5        0.000012136239     0.000022171292    -0.000022514991
       6        0.000025586934    -0.000016944253    -0.000010776193
       7       -0.000002397028    -0.000003606553     0.000004671809
       8       -0.000782318212     0.000405988615     0.002585082488
       9       -0.000015690232     0.000010676409    -0.000018230617
      10        0.000018634678    -0.000007930163    -0.000005375291
      11       -0.000351068081    -0.001447244524     0.001661723092
      12        0.000766196483     0.000093520382    -0.002578082749
      13       -0.000012559785    -0.000050322428     0.000034751586
      14        0.000359067055     0.001026161629    -0.001581586039
      15        0.000049643760     0.000063532843     0.000011762172
      16       -0.000004179549    -0.000044272361    -0.000024182576
      17        0.000046503131    -0.000046007582    -0.000085176674
      18        0.000000448047    -0.000004566638     0.000007555284
      19       -0.000011313152     0.000022114284     0.000024328709
      20       -0.000025322222     0.000008764215     0.000025356893
      21        0.000006936137    -0.000027860146     0.000004311551
      22       -0.000013222846     0.000012268590    -0.000021848630
      23        0.000011454684    -0.000005613540    -0.000008357918
      24       -0.000028965298     0.000023193146    -0.000009137812
      25       -0.000007745022    -0.000001149938     0.000012907472

  **** Optimization is complete! (in 6 steps) ****
    Final optimized geometry and variables:
    Molecular point group: c1

    Geometry (in Angstrom), charge = 0, multiplicity = 1:

    H           -2.189883619116    -2.214848006461    -0.606091130299
    C           -2.755603319226    -1.277488517097    -0.696268358160
    C           -2.699449686978    -0.384359150088     0.513400613353
    O           -3.354194683499    -1.040969106484    -1.687763992277
    C           -1.267935410534    -0.114431423919     0.985855692051
    H           -3.224776540216     0.534585797028     0.287608956054
    H           -3.245743439782    -0.896404313404     1.302522629550
    C           -0.455906951049     0.740890287676     0.014708696497
    H           -1.312288882721     0.383737797015     1.948075891900
    H           -0.763692610758    -1.061315747155     1.159277198216
    C            0.996194108444     0.969640739834     0.454249387126
    H           -0.952709673604     1.696146625168    -0.122316185427
    H           -0.456345101881     0.277747398008    -0.968898262613
    C            1.952674303976    -0.131798567689    -0.004758112971
    H            1.334232102809     1.918623306972     0.054467852814
    H            1.039289071607     1.065268794895     1.536517418331
    C            3.383286128769     0.001128476686     0.520077360506
    H            1.970345014726    -0.150741583600    -1.091632128473
    H            1.564219881444    -1.097231054174     0.307737934391
    C            4.135923791562     1.230487358353     0.016718618012
    H            3.937199810564    -0.887421038636     0.233196242782
    H            3.366667648296     0.009154737829     1.606781451239
    H            4.161706460708     1.254205444655    -1.068048920627
    H            3.680978420491     2.152891523926     0.356879308006
    H            5.160567090525     1.224050594301     0.370233879019

  Mulliken Charges: (a.u.)
   Center  Symbol    Alpha    Beta     Spin     Total
       1     H     0.46381  0.46381  0.00000  0.07239
       2     C     2.90573  2.90573  0.00000  0.18854
       3     C     3.08820  3.08820  0.00000 -0.17640
       4     O     4.16602  4.16602  0.00000 -0.33203
       5     C     3.11351  3.11351  0.00000 -0.22702
       6     H     0.44294  0.44294  0.00000  0.11412
       7     H     0.44058  0.44058  0.00000  0.11885
       8     C     3.10067  3.10067  0.00000 -0.20134
       9     H     0.44248  0.44248  0.00000  0.11504
      10     H     0.44965  0.44965  0.00000  0.10070
      11     C     3.10225  3.10225  0.00000 -0.20451
      12     H     0.44210  0.44210  0.00000  0.11579
      13     H     0.44806  0.44806  0.00000  0.10387
      14     C     3.09508  3.09508  0.00000 -0.19017
      15     H     0.44271  0.44271  0.00000  0.11459
      16     H     0.45461  0.45461  0.00000  0.09079
      17     C     3.09014  3.09014  0.00000 -0.18027
      18     H     0.45178  0.45178  0.00000  0.09643
      19     H     0.45033  0.45033  0.00000  0.09935
      20     C     3.15288  3.15288  0.00000 -0.30576
      21     H     0.44814  0.44814  0.00000  0.10372
      22     H     0.45448  0.45448  0.00000  0.09103
      23     H     0.45410  0.45410  0.00000  0.09181
      24     H     0.45374  0.45374  0.00000  0.09251
      25     H     0.44601  0.44601  0.00000  0.10798

   Total alpha = 36.00000, Total beta = 36.00000, Total charge = -0.00000

*** Psi4 exiting successfully. Buy a developer a beer!
