                              Psi4 1.0.54 Driver

  ==> Input File <==

--------------------------------------------------------------------------
set {
	reference rhf
	basis cc-pvtz
}

set_num_threads( 4 )
memory 2 gb

molecule MOL {
0 1

O	 0.503949	 0.386457	 -0.975066
C	 1.121787	 0.124983	 0.000110
C	 0.838504	 0.651986	 1.383397
O	 2.167739	 -0.685178	 -0.000678
C	 -0.356272	 1.592282	 1.448778
H	 0.698523	 -0.207061	 2.031412
H	 1.742614	 1.140425	 1.731928
C	 -0.614903	 2.106071	 2.862087
H	 -1.236445	 1.079317	 1.077695
H	 -0.191180	 2.428359	 0.778506
C	 -1.811695	 3.047659	 2.939484
H	 -0.776281	 1.263727	 3.529660
H	 0.270482	 2.618919	 3.228579
H	 -2.719724	 2.552890	 2.611961
H	 -1.971463	 3.396178	 3.953233
H	 -1.665341	 3.917962	 2.308822
C	 3.449556	 -0.089977	 -0.000570
H	 3.585694	 0.522473	 -0.879546
H	 4.155805	 -0.904274	 -0.001389
H	 3.586173	 0.521118	 0.879272

	symmetry c1
}
set optking {
	frozen_dihedral = ("
		1 2 4 17
	")
}

ee,wfn = optimize('scf', return_wfn=True)
oeprop( wfn, 'DIPOLE', 'QUADRUPOLE', 'MULLIKEN_CHARGES')
f=open( 'psi4out.xyz', 'w' )
f.write( "20  " )
f.write( str(ee) + "\n" )
f.write( MOL.save_string_xyz() )
f.close()
--------------------------------------------------------------------------

    Molecular point group: c1
  Charge       = 0
  Multiplicity = 1
  Basis Set: CC-PVTZ
  Basis Set:
  @DF-RHF Final Energy:  -384.06106995013351
    Total Energy =                       -384.0610699501334011
    Molecular point group: c1
  Basis Set: CC-PVTZ
  Basis Set:
  Basis Set: CC-PVTZ
  Basis Set:
  @DF-RHF Final Energy:  -383.86117109933696
    Total Energy =                       -383.8611710993370139
  Basis Set: CC-PVTZ
  Basis Set:
  Basis Set: CC-PVTZ
  Basis Set:
  @DF-RHF Final Energy:  -383.98911670339186
    Total Energy =                       -383.9891167033918009
  Basis Set: CC-PVTZ
  Basis Set:
  Basis Set: CC-PVTZ
  Basis Set:
  @DF-RHF Final Energy:  -384.05514650714605
    Total Energy =                       -384.0551465071462758
  Basis Set: CC-PVTZ
  Basis Set:
  @DF-RHF Final Energy:  -384.05925467811954
    Total Energy =                       -384.0592546781191459
  @DF-RHF Final Energy:  -384.06294117552579
    Total Energy =                       -384.0629411755259071
  @DF-RHF Final Energy:  -384.06311466836934
    Total Energy =                       -384.0631146683692805
  Basis Set: CC-PVTZ
  Basis Set:
  @DF-RHF Final Energy:  -384.06314732656227
    Total Energy =                       -384.0631473265618752
  Basis Set: CC-PVTZ
  Basis Set:
  Basis Set: CC-PVTZ
  Basis Set:
  @DF-RHF Final Energy:  -384.06315986593660
    Total Energy =                       -384.0631598659365409
  Basis Set: CC-PVTZ
  Basis Set:
  Basis Set: CC-PVTZ
  Basis Set:
  @DF-RHF Final Energy:  -384.06316377224255
    Total Energy =                       -384.0631637722428877
  Basis Set: CC-PVTZ
  Basis Set:
  Charge       = 0
  Multiplicity = 1
  Basis Set: CC-PVTZ
  Basis Set:

    Orbital Energies (a.u.)
    -----------------------

    Doubly Occupied:

       1A    -20.578455     2A    -20.545274     3A    -11.367875
       4A    -11.289959     5A    -11.239078     6A    -11.221561
       7A    -11.220734     8A    -11.211085     9A     -1.461497
      10A     -1.370226    11A     -1.091918    12A     -1.019700
      13A     -0.972699    14A     -0.898207    15A     -0.808891
      16A     -0.767206    17A     -0.698388    18A     -0.681597
      19A     -0.677225    20A     -0.645863    21A     -0.618539
      22A     -0.591178    23A     -0.590166    24A     -0.551087
      25A     -0.539281    26A     -0.515044    27A     -0.495114
      28A     -0.493103    29A     -0.480424    30A     -0.473799
      31A     -0.454870    32A     -0.436595

  @DF-RHF Final Energy:  -384.06316433479782

   => Energetics <=

    Nuclear Repulsion Energy =            382.1524699392605839
    One-Electron Energy =               -1280.4179927196787503
    Two-Electron Energy =                 514.2023584456205754
    DFT Exchange-Correlation Energy =       0.0000000000000000
    Empirical Dispersion Energy =           0.0000000000000000
    PCM Polarization Energy =               0.0000000000000000
    EFP Energy =                            0.0000000000000000
    Total Energy =                       -384.0631643347976478
    Molecular point group: c1
  Basis Set: CC-PVTZ
  Basis Set:

  -Total Gradient:
     Atom            X                  Y                   Z
    ------   -----------------  -----------------  -----------------
       1       -0.000731751892    -0.001253726882    -0.000117709050
       2        0.001097712960     0.001594498510     0.000732427192
       3       -0.000017891552     0.000007736742    -0.000017786920
       4       -0.000348766398     0.000071757281    -0.001705573428
       5        0.000025625293     0.000010005544     0.000004982147
       6        0.000006529407     0.000004429905     0.000005971658
       7        0.000009463133    -0.000002590687     0.000006040448
       8       -0.000016281365    -0.000024311696    -0.000003796413
       9       -0.000010769176    -0.000000389242    -0.000000676667
      10       -0.000002950302    -0.000014786857     0.000002003978
      11        0.000017888535     0.000008175919     0.000012547537
      12        0.000001533069     0.000018047935    -0.000003806730
      13        0.000007307749     0.000003711949     0.000002833485
      14       -0.000011614117    -0.000002063688    -0.000002372172
      15       -0.000002892742     0.000001948258    -0.000009087666
      16       -0.000002125177    -0.000009773571     0.000000303412
      17       -0.000054348873    -0.000438000351     0.001099911038
      18        0.000037123400     0.000016765823     0.000003794501
      19       -0.000009477695     0.000002806348    -0.000003182130
      20        0.000005685744     0.000005758760    -0.000006824229

  **** Optimization is complete! (in 11 steps) ****
    Final optimized geometry and variables:
    Molecular point group: c1

    Geometry (in Angstrom), charge = 0, multiplicity = 1:

    O           -0.116474242501     0.138566616046    -1.946149644932
    C            0.528061256389    -0.347030101145    -1.091187925352
    C            0.149915759679    -0.360702553520     0.368798944684
    O            1.659256310382    -1.029477703598    -1.373103097154
    C           -1.111893046744     0.426318191022     0.692277629984
    H            0.043086046161    -1.405429066780     0.645622482438
    H            0.993693267786     0.007640348449     0.943470666115
    C           -1.469759364714     0.371752758179     2.174656391713
    H           -1.933578122241     0.039978585780     0.100640063378
    H           -0.979376229583     1.457945420607     0.384537875868
    C           -2.734626370459     1.155693290522     2.507018267144
    H           -1.598562509837    -0.663976545408     2.477477114737
    H           -0.641722885000     0.759588797198     2.762506551732
    H           -3.588317123898     0.768865140176     1.961155945696
    H           -2.964238796896     1.099140828142     3.564654819534
    H           -2.624845880102     2.203044569538     2.247072183775
    C            2.888316298040    -0.364558012123    -1.200915240718
    H            2.937326133522     0.517152890359    -1.827985222774
    H            3.658870273138    -1.056367503087    -1.499857732814
    H            3.049372004474    -0.083732809417    -0.166620395328

  Mulliken Charges: (a.u.)
   Center  Symbol    Alpha    Beta     Spin     Total
       1     O     4.16753  4.16753  0.00000 -0.33506
       2     C     2.78605  2.78605  0.00000  0.42791
       3     C     3.12291  3.12291  0.00000 -0.24582
       4     O     4.16630  4.16630  0.00000 -0.33261
       5     C     3.08275  3.08275  0.00000 -0.16550
       6     H     0.43781  0.43781  0.00000  0.12438
       7     H     0.44446  0.44446  0.00000  0.11109
       8     C     3.08546  3.08546  0.00000 -0.17091
       9     H     0.44339  0.44339  0.00000  0.11321
      10     H     0.44792  0.44792  0.00000  0.10416
      11     C     3.14948  3.14948  0.00000 -0.29897
      12     H     0.45446  0.45446  0.00000  0.09108
      13     H     0.45589  0.45589  0.00000  0.08822
      14     H     0.45308  0.45308  0.00000  0.09385
      15     H     0.44807  0.44807  0.00000  0.10386
      16     H     0.45398  0.45398  0.00000  0.09204
      17     C     3.03661  3.03661  0.00000 -0.07322
      18     H     0.45642  0.45642  0.00000  0.08716
      19     H     0.44134  0.44134  0.00000  0.11731
      20     H     0.46610  0.46610  0.00000  0.06781

   Total alpha = 32.00000, Total beta = 32.00000, Total charge =  0.00000

*** Psi4 exiting successfully. Buy a developer a beer!
