  ==> Input File <==

--------------------------------------------------------------------------
set {
	reference rhf
	basis cc-pvtz
}

set_num_threads( 4 )
memory 2 gb

molecule MOL {
0 1

H	 -1.752232	 -2.214755	 -0.011938
C	 -1.343852	 -1.221619	 -0.018179
N	 -0.058800	 -1.097635	 -0.261688
C	 -2.148159	 -0.124236	 0.219734
C	 0.449026	 0.119242	 -0.273393
H	 -3.196988	 -0.237571	 0.417076
N	 -1.655094	 1.094230	 0.209506
C	 -0.370318	 1.215445	 -0.035100
C	 1.924033	 0.265863	 -0.538106
H	 0.033214	 2.210441	 -0.046812
C	 2.661268	 0.965155	 0.605102
H	 2.341054	 -0.723490	 -0.683145
H	 2.070737	 0.815019	 -1.460667
H	 3.722447	 1.021343	 0.393734
H	 2.527099	 0.423797	 1.532415
H	 2.293019	 1.975007	 0.747016

	symmetry c1
}
set optking {
	frozen_dihedral = ("
		12 9 5 3
	")
}

ee = optimize('scf')
oeprop('DIPOLE', 'QUADRUPOLE', 'MULLIKEN_CHARGES')
f=open( 'psi4out.xyz', 'w' )
f.write( "16  " )
f.write( str(ee) + "\n" )
f.write( MOL.save_string_xyz() )
f.close()
--------------------------------------------------------------------------

    Molecular point group: c1
  Charge       = 0
  Multiplicity = 1
  Basis Set: CC-PVTZ
  Basis Set:
  @DF-RHF Final Energy:  -340.87055150607858
    Total Energy =                       -340.8705515060785274
    Molecular point group: c1
  Basis Set: CC-PVTZ
  Basis Set:
  Basis Set: CC-PVTZ
  Basis Set:
  @DF-RHF Final Energy:  -340.87069259769095
    Total Energy =                       -340.8706925976910611
  Basis Set: CC-PVTZ
  Basis Set:
  Basis Set: CC-PVTZ
  Basis Set:
  @DF-RHF Final Energy:  -340.87077990142399
    Total Energy =                       -340.8707799014243847
  Basis Set: CC-PVTZ
  Basis Set:
  Basis Set: CC-PVTZ
  Basis Set:
  @DF-RHF Final Energy:  -340.87079758634275
    Total Energy =                       -340.8707975863428032
  Basis Set: CC-PVTZ
  Basis Set:
  Basis Set: CC-PVTZ
  Basis Set:
  @DF-RHF Final Energy:  -340.87080338155204
    Total Energy =                       -340.8708033815518093
  Basis Set: CC-PVTZ
  Basis Set:
  Basis Set: CC-PVTZ
  Basis Set:
  @DF-RHF Final Energy:  -340.87080535305790
    Total Energy =                       -340.8708053530576763
  Basis Set: CC-PVTZ
  Basis Set:
  Charge       = 0
  Multiplicity = 1
  Basis Set: CC-PVTZ
  Basis Set:

    Orbital Energies (a.u.)
    -----------------------

    Doubly Occupied:

       1A    -15.580400     2A    -15.575604     3A    -11.279227
       4A    -11.270673     5A    -11.269334     6A    -11.266687
       7A    -11.231562     8A    -11.221466     9A     -1.315545
      10A     -1.223512    11A     -1.086648    12A     -1.016483
      13A     -0.906126    14A     -0.896508    15A     -0.831581
      16A     -0.717031    17A     -0.713993    18A     -0.657341
      19A     -0.617371    20A     -0.607797    21A     -0.582303
      22A     -0.565180    23A     -0.523542    24A     -0.511655
      25A     -0.505919    26A     -0.483632    27A     -0.433972
      28A     -0.397620    29A     -0.346364

  @DF-RHF Final Energy:  -340.87080555620111

   => Energetics <=

    Nuclear Repulsion Energy =            350.1481319553856224
    One-Electron Energy =               -1154.7677219562422124
    Two-Electron Energy =                 463.7487844446558825
    DFT Exchange-Correlation Energy =       0.0000000000000000
    Empirical Dispersion Energy =           0.0000000000000000
    PCM Polarization Energy =               0.0000000000000000
    EFP Energy =                            0.0000000000000000
    Total Energy =                       -340.8708055562006507
    Molecular point group: c1
  Basis Set: CC-PVTZ
  Basis Set:

  -Total Gradient:
     Atom            X                  Y                   Z
    ------   -----------------  -----------------  -----------------
       1        0.000006995253    -0.000000872415     0.000037835021
       2       -0.000053423358     0.000012114898    -0.000085802187
       3       -0.000221996415     0.000092111106    -0.001161937508
       4        0.000000891101    -0.000023487807    -0.000029655158
       5        0.000406293086    -0.000208327857     0.001936746280
       6        0.000008960442     0.000005002233     0.000041070632
       7        0.000024608601     0.000019822614    -0.000037051723
       8       -0.000028719033     0.000005531802     0.000086410278
       9       -0.000432881455     0.000205031545    -0.002121891276
      10       -0.000007491058    -0.000006750480    -0.000008474875
      11        0.000023051877    -0.000004930480     0.000000153654
      12        0.000238228373    -0.000112724194     0.001344724226
      13        0.000023148627    -0.000010916360    -0.000025552593
      14        0.000000499581     0.000016323409     0.000023104096
      15        0.000010414045     0.000007285345    -0.000009588376
      16        0.000001420338     0.000004786636     0.000009909507

  **** Optimization is complete! (in 7 steps) ****
    Final optimized geometry and variables:
    Molecular point group: c1

    Geometry (in Angstrom), charge = 0, multiplicity = 1:

    H           -1.737107412550    -2.383102196696    -0.008912802726
    C           -1.333865244503    -1.388247746317    -0.015385251413
    N           -0.040095385282    -1.262578677058    -0.242596406324
    C           -2.140672357626    -0.296147719850     0.203039553771
    C            0.465851050513    -0.050051940651    -0.249234008885
    H           -3.191831916994    -0.407813761652     0.386802467886
    N           -1.648233691651     0.928254602917     0.189791309498
    C           -0.364914979496     1.049738627376    -0.033070755590
    C            1.941368145152     0.107153495789    -0.521658141956
    H            0.033878201224     2.046529416619    -0.049785752311
    C            2.709155375308     0.803001255268     0.604442201340
    H            2.345201788737    -0.883509379555    -0.673625108526
    H            2.075824829755     0.659492537180    -1.446444013385
    H            3.762901862677     0.860098376245     0.359792028795
    H            2.609844290396     0.256147167294     1.534630640773
    H            2.355432550257     1.813027068390     0.772526275183

  Mulliken Charges: (a.u.)
   Center  Symbol    Alpha    Beta     Spin     Total
       1     H     0.41377  0.41377  0.00000  0.17247
       2     C     3.04065  3.04065  0.00000 -0.08130
       3     N     3.59014  3.59014  0.00000 -0.18028
       4     C     3.04838  3.04838  0.00000 -0.09675
       5     C     2.94753  2.94753  0.00000  0.10493
       6     H     0.41348  0.41348  0.00000  0.17303
       7     N     3.58740  3.58740  0.00000 -0.17480
       8     C     3.07659  3.07659  0.00000 -0.15318
       9     C     3.08431  3.08431  0.00000 -0.16862
      10     H     0.41471  0.41471  0.00000  0.17058
      11     C     3.14602  3.14602  0.00000 -0.29205
      12     H     0.44020  0.44020  0.00000  0.11959
      13     H     0.44607  0.44607  0.00000  0.10786
      14     H     0.44712  0.44712  0.00000  0.10577
      15     H     0.44878  0.44878  0.00000  0.10245
      16     H     0.45485  0.45485  0.00000  0.09029

   Total alpha = 29.00000, Total beta = 29.00000, Total charge = -0.00000
