  ==> Input File <==

--------------------------------------------------------------------------
set {
	reference rhf
	basis 6-31G*
}

set_num_threads( 4 )
memory 2 gb

molecule MOL {
0 1

H	 -0.000158	 1.970498	 0.756846
O	 -0.000074	 1.880206	 -0.189275
C	 -0.000015	 0.544847	 -0.545111
C	 -1.278839	 -0.123794	 -0.051638
C	 1.278751	 -0.123744	 -0.051407
H	 0.000080	 0.490777	 -1.623618
F	 -2.323340	 0.466332	 -0.592298
F	 -1.326055	 -1.401621	 -0.363547
F	 -1.389248	 -0.015456	 1.262771
F	 2.323329	 0.466597	 -0.591677
F	 1.326189	 -1.401510	 -0.363566
F	 1.388797	 -0.015660	 1.263045

	symmetry c1
}
set optking {
	frozen_dihedral = ("
		6 3 2 1
	")
}

ee = optimize('scf')
oeprop('DIPOLE', 'QUADRUPOLE', 'MULLIKEN_CHARGES')
f=open( 'psi4out.xyz', 'w' )
f.write( "12  " )
f.write( str(ee) + "\n" )
f.write( MOL.save_string_xyz() )
f.close()
--------------------------------------------------------------------------

    Molecular point group: c1
  Charge       = 0
  Multiplicity = 1
  Basis Set: 6-31G*
  Basis Set:

    Orbital Energies (a.u.)
    -----------------------

    Doubly Occupied:

       1A    -26.362839     2A    -26.362834     3A    -26.361818
       4A    -26.361811     5A    -26.358160     6A    -26.358160
       7A    -20.617156     8A    -11.525867     9A    -11.525851
      10A    -11.349340    11A     -1.764730    12A     -1.758796
      13A     -1.662115    14A     -1.657850    15A     -1.656907
      16A     -1.655325    17A     -1.435527    18A     -1.101870
      19A     -0.996955    20A     -0.938522    21A     -0.863707
      22A     -0.862862    23A     -0.852092    24A     -0.844417
      25A     -0.831904    26A     -0.816128    27A     -0.743714
      28A     -0.726920    29A     -0.724367    30A     -0.717565
      31A     -0.689163    32A     -0.686255    33A     -0.683321
      34A     -0.674508    35A     -0.670025    36A     -0.663076
      37A     -0.656558    38A     -0.653405    39A     -0.620463
      40A     -0.551561    41A     -0.506046

  @DF-RHF Final Energy:  -786.27809098456100

   => Energetics <=

    Nuclear Repulsion Energy =            670.5151844946658457
    One-Electron Energy =               -2427.8855717803107837
    Two-Electron Energy =                 971.0922963010837066
    DFT Exchange-Correlation Energy =       0.0000000000000000
    Empirical Dispersion Energy =           0.0000000000000000
    PCM Polarization Energy =               0.0000000000000000
    EFP Energy =                            0.0000000000000000
    Total Energy =                       -786.2780909845612314
    Molecular point group: c1
  Basis Set: 6-31G*
  Basis Set:

  -Total Gradient:
     Atom            X                  Y                   Z
    ------   -----------------  -----------------  -----------------
       1        0.000000627416    -0.000006759328     0.000026168697
       2        0.000000848885     0.000011600498    -0.000031602523
       3       -0.000002499436     0.000015312736    -0.000033458267
       4       -0.000037716338    -0.000007667263    -0.000061503628
       5        0.000041187251     0.000000301311    -0.000050342124
       6       -0.000001064819    -0.000003489139     0.000053842051
       7        0.000041052350    -0.000028354801     0.000025145470
       8       -0.000007100100     0.000030286923     0.000016067770
       9       -0.000000242363    -0.000002641278     0.000011119523
      10       -0.000042915332    -0.000029420765     0.000025180073
      11        0.000007869116     0.000025189784     0.000013754475
      12       -0.000000046627    -0.000004358674     0.000005628483

  **** Optimization is complete! (in 1 steps) ****
    Final optimized geometry and variables:
    Molecular point group: c1

    Geometry (in Angstrom), charge = 0, multiplicity = 1:

    H           -0.000106037743     1.970498172785     0.756846080751
    O           -0.000022037743     1.880206172785    -0.189274919249
    C            0.000036962257     0.544847172785    -0.545110919249
    C           -1.278787037743    -0.123793827215    -0.051637919249
    C            1.278802962257    -0.123743827215    -0.051406919249
    H            0.000131962257     0.490777172785    -1.623617919249
    F           -2.323288037743     0.466332172785    -0.592297919249
    F           -1.326003037743    -1.401620827215    -0.363546919249
    F           -1.389196037743    -0.015455827215     1.262771080751
    F            2.323380962257     0.466597172785    -0.591676919249
    F            1.326240962257    -1.401509827215    -0.363565919249
    F            1.388848962257    -0.015659827215     1.263045080751

  Mulliken Charges: (a.u.)
   Center  Symbol    Alpha    Beta     Spin     Total
       1     H     0.26565  0.26565  0.00000  0.46869
       2     O     4.36280  4.36280  0.00000 -0.72560
       3     C     3.04502  3.04502  0.00000 -0.09005
       4     C     2.44604  2.44604  0.00000  1.10793
       5     C     2.44604  2.44604  0.00000  1.10792
       6     H     0.37527  0.37527  0.00000  0.24947
       7     F     4.67485  4.67485  0.00000 -0.34970
       8     F     4.67388  4.67388  0.00000 -0.34775
       9     F     4.68086  4.68086  0.00000 -0.36173
      10     F     4.67485  4.67485  0.00000 -0.34969
      11     F     4.67388  4.67388  0.00000 -0.34776
      12     F     4.68086  4.68086  0.00000 -0.36172

   Total alpha = 41.00000, Total beta = 41.00000, Total charge =  0.00000
