  ==> Input File <==

--------------------------------------------------------------------------
set {
	reference rhf
	basis 6-31G*
}

set_num_threads( 1 )
memory 2 gb

molecule MOL {
0 1

H	 3.908541	 -3.025906	 -1.028046
C	 3.544111	 -2.186852	 -1.612597
C	 2.156100	 -1.749967	 -1.145978
H	 4.261208	 -1.377512	 -1.512180
H	 3.531565	 -2.490969	 -2.655744
C	 1.609034	 -0.571691	 -1.954802
H	 2.199896	 -1.478806	 -0.096142
H	 1.468886	 -2.590852	 -1.225607
C	 0.212854	 -0.123495	 -1.522290
H	 2.288788	 0.269481	 -1.877282
H	 1.568342	 -0.850362	 -3.005387
C	 0.169600	 0.576866	 -0.172154
H	 -0.188774	 0.580488	 -2.249527
H	 -0.479119	 -0.962694	 -1.512587
C	 -1.181045	 0.701995	 0.511084
O	 1.154146	 1.030239	 0.329371
C	 -2.285934	 -0.139295	 -0.145128
H	 -1.449051	 1.751551	 0.493206
H	 -1.071135	 0.403303	 1.551943
C	 -3.651768	 0.085446	 0.506485
H	 -2.346596	 0.110469	 -1.202272
H	 -2.034737	 -1.195320	 -0.088721
C	 -4.759797	 -0.746382	 -0.137905
H	 -3.908762	 1.140117	 0.445781
H	 -3.588286	 -0.154158	 1.565709
H	 -4.868882	 -0.505166	 -1.191300
H	 -4.548009	 -1.809175	 -0.062213
H	 -5.715422	 -0.564821	 0.343442

	symmetry c1
}
set optking {
	frozen_dihedral = ("
		10 6 3 2,
		12 15 17 21
	")
}

ee = energy('scf')
oeprop('DIPOLE', 'QUADRUPOLE', 'MULLIKEN_CHARGES')
f=open( 'psi4out.xyz', 'w' )
f.write( "28  " )
f.write( str(ee) + "\n" )
f.write( MOL.save_string_xyz() )
f.close()
--------------------------------------------------------------------------

    Molecular point group: c1

    Geometry (in Angstrom), charge = 0, multiplicity = 1:

       Center              X                  Y                   Z               Mass
    ------------   -----------------  -----------------  -----------------  -----------------
           H          4.209936450465    -2.700780097662    -0.491782569034     1.007825032070
           C          3.845506450465    -1.861726097662    -1.076333569034    12.000000000000
           C          2.457495450465    -1.424841097662    -0.609714569034    12.000000000000
           H          4.562603450465    -1.052386097662    -0.975916569034     1.007825032070
           H          3.832960450465    -2.165843097662    -2.119480569034     1.007825032070
           C          1.910429450465    -0.246565097662    -1.418538569034    12.000000000000
           H          2.501291450465    -1.153680097662     0.440121430966     1.007825032070
           H          1.770281450465    -2.265726097662    -0.689343569034     1.007825032070
           C          0.514249450465     0.201630902338    -0.986026569034    12.000000000000
           H          2.590183450465     0.594606902338    -1.341018569034     1.007825032070
           H          1.869737450465    -0.525236097662    -2.469123569034     1.007825032070
           C          0.470995450465     0.901991902338     0.364109430966    12.000000000000
           H          0.112621450465     0.905613902338    -1.713263569034     1.007825032070
           H         -0.177723549535    -0.637568097662    -0.976323569034     1.007825032070
           C         -0.879649549535     1.027120902338     1.047347430966    12.000000000000
           O          1.455541450465     1.355364902338     0.865634430966    15.994914619560
           C         -1.984538549535     0.185830902338     0.391135430966    12.000000000000
           H         -1.147655549535     2.076676902338     1.029469430966     1.007825032070
           H         -0.769739549535     0.728428902338     2.088206430966     1.007825032070
           C         -3.350372549535     0.410571902338     1.042748430966    12.000000000000
           H         -2.045200549535     0.435594902338    -0.666008569034     1.007825032070
           H         -1.733341549535    -0.870194097662     0.447542430966     1.007825032070
           C         -4.458401549535    -0.421256097662     0.398358430966    12.000000000000
           H         -3.607366549535     1.465242902338     0.982044430966     1.007825032070
           H         -3.286890549535     0.170967902338     2.101972430966     1.007825032070
           H         -4.567486549535    -0.180040097662    -0.655036569034     1.007825032070
           H         -4.246613549535    -1.484049097662     0.474050430966     1.007825032070
           H         -5.414026549535    -0.239695097662     0.879705430966     1.007825032070

  Charge       = 0
  Multiplicity = 1
  Basis Set: 6-31G*
  Basis Set:

    Orbital Energies (a.u.)
    -----------------------

    Doubly Occupied:

       1A    -20.545858     2A    -11.323205     3A    -11.231042
       4A    -11.229907     5A    -11.227990     6A    -11.225796
       7A    -11.216801     8A    -11.215392     9A    -11.212106
      10A    -11.205512    11A     -1.392051    12A     -1.098546
      13A     -1.075807    14A     -1.023536    15A     -0.989572
      16A     -0.904724    17A     -0.877137    18A     -0.810640
      19A     -0.800415    20A     -0.719264    21A     -0.665080
      22A     -0.662194    23A     -0.629355    24A     -0.618011
      25A     -0.609121    26A     -0.586355    27A     -0.583148
      28A     -0.572837    29A     -0.542044    30A     -0.531193
      31A     -0.525398    32A     -0.512572    33A     -0.489484
      34A     -0.488584    35A     -0.478268    36A     -0.476113
      37A     -0.469170    38A     -0.464226    39A     -0.453484
      40A     -0.391494

  @DF-RHF Final Energy:  -426.16337402475745

   => Energetics <=

    Nuclear Repulsion Energy =            536.6513331078147075
    One-Electron Energy =               -1641.4823181377807941
    Two-Electron Energy =                 678.6676110052083004
    DFT Exchange-Correlation Energy =       0.0000000000000000
    Empirical Dispersion Energy =           0.0000000000000000
    PCM Polarization Energy =               0.0000000000000000
    EFP Energy =                            0.0000000000000000
    Total Energy =                       -426.1633740247577862

  Mulliken Charges: (a.u.)
   Center  Symbol    Alpha    Beta     Spin     Total
       1     H     0.41951  0.41951  0.00000  0.16097
       2     C     3.24006  3.24006  0.00000 -0.48012
       3     C     3.15639  3.15639  0.00000 -0.31277
       4     H     0.41821  0.41821  0.00000  0.16358
       5     H     0.42364  0.42364  0.00000  0.15271
       6     C     3.14731  3.14731  0.00000 -0.29462
       7     H     0.41064  0.41064  0.00000  0.17872
       8     H     0.42816  0.42816  0.00000  0.14369
       9     C     3.21851  3.21851  0.00000 -0.43703
      10     H     0.40708  0.40708  0.00000  0.18585
      11     H     0.42236  0.42236  0.00000  0.15528
      12     C     2.73144  2.73144  0.00000  0.53712
      13     H     0.40423  0.40423  0.00000  0.19153
      14     H     0.40672  0.40672  0.00000  0.18656
      15     C     3.19982  3.19982  0.00000 -0.39964
      16     O     4.27001  4.27001  0.00000 -0.54001
      17     C     3.16886  3.16886  0.00000 -0.33772
      18     H     0.40085  0.40085  0.00000  0.19829
      19     H     0.39982  0.39982  0.00000  0.20035
      20     C     3.15065  3.15065  0.00000 -0.30130
      21     H     0.41782  0.41782  0.00000  0.16435
      22     H     0.41770  0.41770  0.00000  0.16459
      23     C     3.23987  3.23987  0.00000 -0.47975
      24     H     0.42103  0.42103  0.00000  0.15794
      25     H     0.42053  0.42053  0.00000  0.15893
      26     H     0.42103  0.42103  0.00000  0.15793
      27     H     0.42088  0.42088  0.00000  0.15825
      28     H     0.41685  0.41685  0.00000  0.16630

   Total alpha = 40.00000, Total beta = 40.00000, Total charge =  0.00000
