                              Psi4 1.0.54 Driver

  ==> Input File <==

--------------------------------------------------------------------------
set {
	reference rhf
	basis cc-pvtz
}

set_num_threads( 4 )
memory 2 gb

molecule MOL {
0 1

H	 1.128311	 0.207724	 1.465118
C	 1.134565	 0.093781	 0.372499
C	 0.062554	 0.862911	 -0.350953
O	 1.948932	 -0.587720	 -0.146651
C	 0.600456	 2.125212	 -1.032035
H	 -0.727567	 1.096220	 0.351024
H	 -0.345534	 0.195111	 -1.106321
C	 1.076104	 3.190131	 -0.047983
H	 -0.182226	 2.536135	 -1.659032
H	 1.412989	 1.854934	 -1.700754
H	 0.269430	 3.502659	 0.605591
H	 1.438073	 4.065642	 -0.573435
H	 1.881948	 2.825562	 0.579504

	symmetry c1
}
set optking {
	frozen_dihedral = ("
		6 3 2 4
	")
}

ee,wfn = optimize('scf', return_wfn=True)
oeprop( wfn, 'DIPOLE', 'QUADRUPOLE', 'MULLIKEN_CHARGES')
f=open( 'psi4out.xyz', 'w' )
f.write( "13  " )
f.write( str(ee) + "\n" )
f.write( MOL.save_string_xyz() )
f.close()
--------------------------------------------------------------------------

    Molecular point group: c1
  Charge       = 0
  Multiplicity = 1
  Basis Set: CC-PVTZ
  Basis Set:
  @DF-RHF Final Energy:  -231.06828073770527
    Total Energy =                       -231.0682807377052086
    Molecular point group: c1
  Basis Set: CC-PVTZ
  Basis Set:
  Basis Set: CC-PVTZ
  Basis Set:
  @DF-RHF Final Energy:  -231.06864197698420
    Total Energy =                       -231.0686419769842246
  Basis Set: CC-PVTZ
  Basis Set:
  Basis Set: CC-PVTZ
  Basis Set:
  @DF-RHF Final Energy:  -231.06862094864431
    Total Energy =                       -231.0686209486444227
  Basis Set: CC-PVTZ
  Basis Set:
  Basis Set: CC-PVTZ
  Basis Set:
  @DF-RHF Final Energy:  -231.06866113417814
    Total Energy =                       -231.0686611341782282
  Basis Set: CC-PVTZ
  Basis Set:
  Basis Set: CC-PVTZ
  Basis Set:
  @DF-RHF Final Energy:  -231.06868230049818
    Total Energy =                       -231.0686823004980113
  Basis Set: CC-PVTZ
  Basis Set:
  Basis Set: CC-PVTZ
  Basis Set:
  @DF-RHF Final Energy:  -231.06868724652068
    Total Energy =                       -231.0686872465207387
  Basis Set: CC-PVTZ
  Basis Set:
  Basis Set: CC-PVTZ
  Basis Set:
  @DF-RHF Final Energy:  -231.06868933184907
    Total Energy =                       -231.0686893318490434
  Basis Set: CC-PVTZ
  Basis Set:
  Charge       = 0
  Multiplicity = 1
  Basis Set: CC-PVTZ
  Basis Set:

    Orbital Energies (a.u.)
    -----------------------

    Doubly Occupied:

       1A    -20.552491     2A    -11.321813     3A    -11.234206
       4A    -11.233616     5A    -11.220610     6A     -1.407525
       7A     -1.083993     8A     -0.972652     9A     -0.854498
      10A     -0.775316    11A     -0.687001    12A     -0.645464
      13A     -0.616740    14A     -0.600025    15A     -0.560970
      16A     -0.538760    17A     -0.506514    18A     -0.491355
      19A     -0.481145    20A     -0.411809

  @DF-RHF Final Energy:  -231.06868935937879

   => Energetics <=

    Nuclear Repulsion Energy =            174.7880030846827424
    One-Electron Energy =                -659.3203814865587447
    Two-Electron Energy =                 253.4636890424971796
    DFT Exchange-Correlation Energy =       0.0000000000000000
    Empirical Dispersion Energy =           0.0000000000000000
    PCM Polarization Energy =               0.0000000000000000
    EFP Energy =                            0.0000000000000000
    Total Energy =                       -231.0686893593788511
    Molecular point group: c1
  Basis Set: CC-PVTZ
  Basis Set:

  -Total Gradient:
     Atom            X                  Y                   Z
    ------   -----------------  -----------------  -----------------
       1        0.000000172799    -0.000001116889     0.000000683683
       2       -0.000266740113    -0.000322744215     0.000046615446
       3       -0.000098358407    -0.000228967629    -0.000096286608
       4        0.000206587549     0.000276636697    -0.000017253477
       5        0.000001663089     0.000002210288    -0.000006368233
       6        0.000149797592     0.000279442855     0.000078920333
       7        0.000001853883     0.000000576234    -0.000000587862
       8        0.000000214027    -0.000009771557    -0.000002529924
       9        0.000001844959     0.000004186916    -0.000003863530
      10       -0.000001148866     0.000003185719     0.000001452250
      11       -0.000000214445    -0.000009565283    -0.000001754095
      12       -0.000003138073     0.000000417518    -0.000001830652
      13        0.000007466009     0.000005509342     0.000002802669

  **** Optimization is complete! (in 8 steps) ****
    Final optimized geometry and variables:
    Molecular point group: c1

    Geometry (in Angstrom), charge = 0, multiplicity = 1:

    H            0.107570353027    -0.935563531717     1.703168279541
    C            0.123279216373    -1.046236101517     0.612897766851
    C           -0.922208167262    -0.280572697104    -0.162617930673
    O            0.944323849804    -1.727426145388     0.101898830012
    C           -0.348098748558     0.996120496676    -0.793582980161
    H           -1.748884734212    -0.030098495973     0.494117731592
    H           -1.290640841392    -0.934108945513    -0.943639340373
    C            0.126067181976     2.031905424985     0.222226589817
    H           -1.114897704640     1.434860764290    -1.421983701244
    H            0.471117989172     0.719415000170    -1.446865895298
    H           -0.678755856112     2.327219279605     0.887283639138
    H            0.483681183285     2.922885592617    -0.279297444160
    H            0.940106809895     1.654795988299     0.831646140418

  Mulliken Charges: (a.u.)
   Center  Symbol    Alpha    Beta     Spin     Total
       1     H     0.45689  0.45689  0.00000  0.08623
       2     C     2.91207  2.91207  0.00000  0.17585
       3     C     3.09056  3.09056  0.00000 -0.18112
       4     O     4.16813  4.16813  0.00000 -0.33627
       5     C     3.09133  3.09133  0.00000 -0.18266
       6     H     0.45022  0.45022  0.00000  0.09957
       7     H     0.43799  0.43799  0.00000  0.12403
       8     C     3.15079  3.15079  0.00000 -0.30158
       9     H     0.44712  0.44712  0.00000  0.10577
      10     H     0.44370  0.44370  0.00000  0.11260
      11     H     0.45459  0.45459  0.00000  0.09083
      12     H     0.44459  0.44459  0.00000  0.11081
      13     H     0.45203  0.45203  0.00000  0.09594

   Total alpha = 20.00000, Total beta = 20.00000, Total charge =  0.00000

*** Psi4 exiting successfully. Buy a developer a beer!
