  ==> Input File <==

--------------------------------------------------------------------------
set {
	reference rhf
	basis cc-pvtz
}

set_num_threads( 4 )
memory 2 gb

molecule MOL {
0 1

H	 -3.958600	 0.899431	 -0.410073
C	 -3.249946	 0.323492	 0.148866
C	 -2.114609	 -0.019340	 -0.408650
H	 -3.489424	 0.043045	 1.155741
O	 -1.189946	 -0.765863	 0.237511
H	 -1.860813	 0.263491	 -1.413996
C	 0.026572	 -0.995256	 -0.379403
C	 1.057223	 0.049888	 -0.004615
H	 -0.054361	 -1.010670	 -1.459674
H	 0.397526	 -1.952058	 -0.044198
F	 2.203233	 -0.234060	 -0.590375
F	 0.698147	 1.254887	 -0.392621
F	 1.266440	 0.094219	 1.288722

	symmetry c1
}
set optking {
	frozen_dihedral = ("
		3 5 7 9
	")
}

ee = optimize('scf')
oeprop('DIPOLE', 'QUADRUPOLE', 'MULLIKEN_CHARGES')
f=open( 'psi4out.xyz', 'w' )
f.write( "13  " )
f.write( str(ee) + "\n" )
f.write( MOL.save_string_xyz() )
f.close()
--------------------------------------------------------------------------

    Molecular point group: c1
  Charge       = 0
  Multiplicity = 1
  Basis Set: CC-PVTZ
  Basis Set:
  @DF-RHF Final Energy:  -527.74207835600691
    Total Energy =                       -527.7420783560063455
    Molecular point group: c1
  Basis Set: CC-PVTZ
  Basis Set:
  Basis Set: CC-PVTZ
  Basis Set:
  @DF-RHF Final Energy:  -527.74207972157092
    Total Energy =                       -527.7420797215703487
  Basis Set: CC-PVTZ
  Basis Set:
  Charge       = 0
  Multiplicity = 1
  Basis Set: CC-PVTZ
  Basis Set:

    Orbital Energies (a.u.)
    -----------------------

    Doubly Occupied:

       1A    -26.341790     2A    -26.340492     3A    -26.337988
       4A    -20.604148     5A    -11.497763     6A    -11.320204
       7A    -11.298812     8A    -11.213862     9A     -1.750415
      10A     -1.646918    11A     -1.645324    12A     -1.444796
      13A     -1.088342    14A     -1.020627    15A     -0.932242
      16A     -0.843989    17A     -0.839587    18A     -0.826785
      19A     -0.798648    20A     -0.728924    21A     -0.719248
      22A     -0.703971    23A     -0.681850    24A     -0.668092
      25A     -0.661552    26A     -0.650879    27A     -0.640658
      28A     -0.587948    29A     -0.566382    30A     -0.529083
      31A     -0.518757    32A     -0.356630

  @DF-RHF Final Energy:  -527.74208026763677

   => Energetics <=

    Nuclear Repulsion Energy =            413.4121394959050235
    One-Electron Energy =               -1550.6950273340978583
    Two-Electron Energy =                 609.5408075705560123
    DFT Exchange-Correlation Energy =       0.0000000000000000
    Empirical Dispersion Energy =           0.0000000000000000
    PCM Polarization Energy =               0.0000000000000000
    EFP Energy =                            0.0000000000000000
    Total Energy =                       -527.7420802676368794
    Molecular point group: c1
  Basis Set: CC-PVTZ
  Basis Set:

  -Total Gradient:
     Atom            X                  Y                   Z
    ------   -----------------  -----------------  -----------------
       1       -0.000004360318    -0.000007199855    -0.000004794420
       2        0.000012624816     0.000014845398     0.000001020418
       3       -0.000079366544    -0.000082278263     0.000010168686
       4        0.000001238675    -0.000000977621     0.000002054383
       5        0.000078702822     0.000181495959     0.000005323342
       6        0.000011626949    -0.000013370737    -0.000020983176
       7       -0.000085210276    -0.000270357961     0.000007939215
       8       -0.000039316380     0.000029151262    -0.000007758044
       9        0.000029256533     0.000155146638    -0.000001970710
      10        0.000038938440    -0.000001591318     0.000000447202
      11        0.000009160364    -0.000010146169    -0.000031211431
      12        0.000045022689    -0.000015924538     0.000021681799
      13       -0.000018317767     0.000021207204     0.000018082742

  **** Optimization is complete! (in 3 steps) ****
    Final optimized geometry and variables:
    Molecular point group: c1

    Geometry (in Angstrom), charge = 0, multiplicity = 1:

    H           -3.955210446497     0.904719536122    -0.407126991919
    C           -3.248290400105     0.326401143718     0.151564180587
    C           -2.110547386669    -0.012544127784    -0.403527080543
    H           -3.491302994866     0.040574940260     1.156085323525
    O           -1.186965654485    -0.760393529110     0.242179825789
    H           -1.853544168912     0.275888112454    -1.406525535068
    C            0.028720068090    -0.993018813075    -0.375023028681
    C            1.058926231096     0.053518218014    -0.002927683040
    H           -0.052563240211    -1.009175161494    -1.455210816921
    H            0.400085512601    -1.949256126894    -0.038493780878
    F            2.204760765656    -0.230457423201    -0.589041929608
    F            0.698217510615     1.257288381632    -0.393074269615
    F            1.269072418220     0.100684601623     1.290217001544

  Mulliken Charges: (a.u.)
   Center  Symbol    Alpha    Beta     Spin     Total
       1     H     0.42513  0.42513  0.00000  0.14974
       2     C     3.19756  3.19756  0.00000 -0.39511
       3     C     2.95867  2.95867  0.00000  0.08266
       4     H     0.42475  0.42475  0.00000  0.15050
       5     O     4.14447  4.14447  0.00000 -0.28894
       6     H     0.43463  0.43463  0.00000  0.13074
       7     C     3.01886  3.01886  0.00000 -0.03772
       8     C     2.67547  2.67547  0.00000  0.64905
       9     H     0.45534  0.45534  0.00000  0.08931
      10     H     0.43532  0.43532  0.00000  0.12937
      11     F     4.61264  4.61264  0.00000 -0.22527
      12     F     4.61039  4.61039  0.00000 -0.22078
      13     F     4.60678  4.60678  0.00000 -0.21355

   Total alpha = 32.00000, Total beta = 32.00000, Total charge = -0.00000
