  ==> Input File <==

--------------------------------------------------------------------------
set {
	reference rhf
	basis cc-pvtz
}

set_num_threads( 4 )
memory 2 gb

molecule MOL {
0 1

H	 -3.268214	 -0.875720	 0.463107
C	 -2.806015	 0.000007	 0.024886
N	 -1.391133	 0.000016	 0.301321
H	 -3.029448	 0.000055	 -1.045738
H	 -3.268126	 0.875758	 0.463150
C	 -0.609806	 -0.457588	 -0.827263
C	 -1.063254	 -0.751952	 1.493198
H	 -0.855539	 -1.490821	 -1.089741
H	 -0.839090	 0.161428	 -1.686527
C	 0.874191	 -0.364348	 -0.525482
H	 -1.623564	 -0.347838	 2.327964
H	 -1.339893	 -1.805252	 1.388902
C	 0.420744	 -0.658712	 1.794979
H	 1.434502	 -0.768462	 -1.360248
H	 1.150831	 0.688952	 -0.421186
N	 1.202071	 -1.116315	 0.666395
H	 0.650028	 -1.277727	 2.654243
H	 0.666477	 0.374521	 2.057458
C	 2.616953	 -1.116306	 0.942830
H	 3.158619	 -1.522843	 0.097911
H	 2.825243	 -1.739277	 1.803692
H	 3.009759	 -0.116120	 1.146517

	symmetry c1
}
set optking {
	frozen_dihedral = ("
		6 3 2 4
	")
}

ee = optimize('scf')
oeprop('DIPOLE', 'QUADRUPOLE', 'MULLIKEN_CHARGES')
f=open( 'psi4out.xyz', 'w' )
f.write( "22  " )
f.write( str(ee) + "\n" )
f.write( MOL.save_string_xyz() )
f.close()
--------------------------------------------------------------------------

    Molecular point group: c1
  Charge       = 0
  Multiplicity = 1
  Basis Set: CC-PVTZ
  Basis Set:
  @DF-RHF Final Energy:  -344.34572545361527
    Total Energy =                       -344.3457254536150458
    Molecular point group: c1
  Basis Set: CC-PVTZ
  Basis Set:
  Basis Set: CC-PVTZ
  Basis Set:
  @DF-RHF Final Energy:  -344.34667517858759
    Total Energy =                       -344.3466751785874749
  Basis Set: CC-PVTZ
  Basis Set:
  Basis Set: CC-PVTZ
  Basis Set:
  @DF-RHF Final Energy:  -344.34680890040886
    Total Energy =                       -344.3468089004087460
  Basis Set: CC-PVTZ
  Basis Set:
  Basis Set: CC-PVTZ
  Basis Set:
  @DF-RHF Final Energy:  -344.34681943489579
    Total Energy =                       -344.3468194348955649
  Basis Set: CC-PVTZ
  Basis Set:
  Charge       = 0
  Multiplicity = 1
  Basis Set: CC-PVTZ
  Basis Set:

    Orbital Energies (a.u.)
    -----------------------

    Doubly Occupied:

       1A    -15.537387     2A    -15.534120     3A    -11.237607
       4A    -11.237364     5A    -11.236580     6A    -11.236568
       7A    -11.234259     8A    -11.234040     9A     -1.255882
      10A     -1.204349    11A     -1.026052    12A     -0.992296
      13A     -0.912621    14A     -0.868406    15A     -0.836402
      16A     -0.754009    17A     -0.666348    18A     -0.637317
      19A     -0.632052    20A     -0.626417    21A     -0.621452
      22A     -0.580989    23A     -0.552442    24A     -0.548026
      25A     -0.543119    26A     -0.518945    27A     -0.497173
      28A     -0.488849    29A     -0.467233    30A     -0.457305
      31A     -0.351338    32A     -0.341488

  @DF-RHF Final Energy:  -344.34682030367145

   => Energetics <=

    Nuclear Repulsion Energy =            421.5744396101741245
    One-Electron Energy =               -1302.1056470780522432
    Two-Electron Energy =                 536.1843871642067825
    DFT Exchange-Correlation Energy =       0.0000000000000000
    Empirical Dispersion Energy =           0.0000000000000000
    PCM Polarization Energy =               0.0000000000000000
    EFP Energy =                            0.0000000000000000
    Total Energy =                       -344.3468203036713930
    Molecular point group: c1
  Basis Set: CC-PVTZ
  Basis Set:

  -Total Gradient:
     Atom            X                  Y                   Z
    ------   -----------------  -----------------  -----------------
       1       -0.000019778641    -0.000009098980    -0.000000110513
       2        0.000282172214     0.006969216567    -0.000214998271
       3       -0.000445110104    -0.005723509701     0.001383983564
       4       -0.000172045505    -0.004434961145    -0.000192003407
       5        0.000029515249    -0.000043393955     0.000006439602
       6        0.000315088524     0.003206950988    -0.001034941781
       7        0.000005515062     0.000032145071     0.000018694411
       8       -0.000015555961     0.000007367614     0.000008815160
       9        0.000003460345     0.000001657790     0.000006128703
      10        0.000016990717     0.000019907728     0.000009593590
      11       -0.000003910456    -0.000004126010     0.000001962892
      12        0.000011003747     0.000014498131    -0.000003732703
      13       -0.000004235187    -0.000041415309     0.000024237263
      14        0.000001600122     0.000000635289     0.000002850353
      15        0.000003914035     0.000009574730    -0.000006184325
      16       -0.000019959227     0.000009918621    -0.000011924946
      17        0.000021810119    -0.000001418892     0.000010173663
      18       -0.000014993022    -0.000009568090    -0.000006392192
      19        0.000003105128    -0.000006871798    -0.000002438326
      20        0.000000466925     0.000001151959     0.000001486380
      21        0.000002096570     0.000000922407    -0.000000245365
      22       -0.000001150647     0.000000416987    -0.000001393748

  **** Optimization is complete! (in 5 steps) ****
    Final optimized geometry and variables:
    Molecular point group: c1

    Geometry (in Angstrom), charge = 0, multiplicity = 1:

    H           -3.244070332162    -0.307526515476    -0.086349410384
    C           -2.723559813050     0.582340027825    -0.444808470067
    N           -1.300605967140     0.517081252268    -0.194163447860
    H           -2.918020541782     0.633821132889    -1.508002420360
    H           -3.167985373286     1.444443350693     0.038661921362
    C           -0.511425837485     0.083210846808    -1.323766674226
    C           -0.965806168955    -0.198125741119     1.013697596552
    H           -0.735729977002    -0.950253941832    -1.606359718622
    H           -0.740424871019     0.712705984136    -2.174631579156
    C            0.969462278227     0.194276625966    -1.010290751113
    H           -1.527472415435     0.224127554794     1.839274264704
    H           -1.237772983138    -1.255461476045     0.939174233603
    C            0.517885659194    -0.089129672643     1.311556722472
    H            1.540735717543    -0.203530919568    -1.840742681929
    H            1.231879368653     1.251323109950    -0.904946147758
    N            1.299679163044    -0.551140195411     0.185120416081
    H            0.754717036259    -0.697597320714     2.176415062398
    H            0.756246313324     0.948755450437     1.562704088660
    C            2.714588230780    -0.544788236438     0.460999784765
    H            3.257384783599    -0.954695806318    -0.381609341005
    H            2.925382930889    -1.161668882200     1.325684876912
    H            3.104382120239     0.457967618176     0.658403771104

  Mulliken Charges: (a.u.)
   Center  Symbol    Alpha    Beta     Spin     Total
       1     H     0.46703  0.46703  0.00000  0.06594
       2     C     3.09497  3.09497  0.00000 -0.18993
       3     N     3.61394  3.61394  0.00000 -0.22787
       4     H     0.45617  0.45617  0.00000  0.08766
       5     H     0.44978  0.44978  0.00000  0.10044
       6     C     3.03373  3.03373  0.00000 -0.06745
       7     C     3.03443  3.03443  0.00000 -0.06886
       8     H     0.46976  0.46976  0.00000  0.06048
       9     H     0.45392  0.45392  0.00000  0.09215
      10     C     3.03644  3.03644  0.00000 -0.07289
      11     H     0.45393  0.45393  0.00000  0.09214
      12     H     0.46848  0.46848  0.00000  0.06305
      13     C     3.03666  3.03666  0.00000 -0.07332
      14     H     0.45405  0.45405  0.00000  0.09190
      15     H     0.46867  0.46867  0.00000  0.06267
      16     N     3.61310  3.61310  0.00000 -0.22621
      17     H     0.45401  0.45401  0.00000  0.09198
      18     H     0.46852  0.46852  0.00000  0.06296
      19     C     3.09830  3.09830  0.00000 -0.19661
      20     H     0.45195  0.45195  0.00000  0.09609
      21     H     0.45195  0.45195  0.00000  0.09611
      22     H     0.47021  0.47021  0.00000  0.05959

   Total alpha = 32.00000, Total beta = 32.00000, Total charge =  0.00000
