  ==> Input File <==

--------------------------------------------------------------------------
set {
	reference rhf
	basis cc-pvtz
}

set_num_threads( 4 )
memory 2 gb

molecule MOL {
0 1

H	 1.596000	 1.287000	 0.000000
C	 0.933000	 0.414000	 -0.000000
C	 -0.540000	 0.734000	 0.000000
O	 1.389000	 -0.683000	 0.000000
C	 -1.435000	 -0.500000	 -0.000000
H	 -0.736000	 1.364000	 -0.866000
H	 -0.736000	 1.364000	 0.867000
H	 -1.250000	 -1.112000	 -0.875000
H	 -2.481000	 -0.210000	 0.000000
H	 -1.250000	 -1.112000	 0.875000

	symmetry c1
}
ee = optimize('scf')
oeprop('DIPOLE', 'QUADRUPOLE', 'MULLIKEN_CHARGES')
f=open( 'psi4out.xyz', 'w' )
f.write( "10  " )
f.write( str(ee) + "\n" )
f.write( MOL.save_string_xyz() )
f.close()
--------------------------------------------------------------------------

    Molecular point group: c1
  Charge       = 0
  Multiplicity = 1
  Basis Set: CC-PVTZ
  Basis Set:
  @DF-RHF Final Energy:  -192.02473393748522
    Total Energy =                       -192.0247339374853937
    Molecular point group: c1
  Basis Set: CC-PVTZ
  Basis Set:
  Basis Set: CC-PVTZ
  Basis Set:
  @DF-RHF Final Energy:  -192.02484673022320
    Total Energy =                       -192.0248467302231461
  Basis Set: CC-PVTZ
  Basis Set:
  Basis Set: CC-PVTZ
  Basis Set:
  @DF-RHF Final Energy:  -192.02485088682411
    Total Energy =                       -192.0248508868240833
  Basis Set: CC-PVTZ
  Basis Set:
  Basis Set: CC-PVTZ
  Basis Set:
  @DF-RHF Final Energy:  -192.02481002673750
    Total Energy =                       -192.0248100267374980
  Basis Set: CC-PVTZ
  Basis Set:
  Charge       = 0
  Multiplicity = 1
  Basis Set: CC-PVTZ
  Basis Set:

    Orbital Energies (a.u.)
    -----------------------

    Doubly Occupied:

       1A    -20.553720     2A    -11.323384     3A    -11.239808
       4A    -11.218053     5A     -1.409227     6A     -1.061900
       7A     -0.911764     8A     -0.774030     9A     -0.685923
      10A     -0.636664    11A     -0.634213    12A     -0.543692
      13A     -0.535536    14A     -0.520292    15A     -0.495617
      16A     -0.417081

  @DF-RHF Final Energy:  -192.02485126401561

   => Energetics <=

    Nuclear Repulsion Energy =            119.3781038107486268
    One-Electron Energy =                -496.8840996861235908
    Two-Electron Energy =                 185.4811446113592979
    DFT Exchange-Correlation Energy =       0.0000000000000000
    Empirical Dispersion Energy =           0.0000000000000000
    PCM Polarization Energy =               0.0000000000000000
    EFP Energy =                            0.0000000000000000
    Total Energy =                       -192.0248512640156946
    Molecular point group: c1
  Basis Set: CC-PVTZ
  Basis Set:

  -Total Gradient:
     Atom            X                  Y                   Z
    ------   -----------------  -----------------  -----------------
       1        0.000008030997     0.000030679712    -0.000000936037
       2        0.000018394341     0.000001208781     0.000002816985
       3        0.000031707152    -0.000006694262    -0.000003404844
       4       -0.000020817373    -0.000006849872    -0.000000440447
       5       -0.000028676739    -0.000007288187     0.000001244330
       6        0.000003230252     0.000004793062    -0.000002676837
       7        0.000003849131     0.000003990121     0.000003581418
       8        0.000000093001    -0.000005771971    -0.000002023345
       9       -0.000015591392    -0.000007622767    -0.000000096378
      10       -0.000000219372    -0.000006444615     0.000001935155

  **** Optimization is complete! (in 5 steps) ****
    Final optimized geometry and variables:
    Molecular point group: c1

    Geometry (in Angstrom), charge = 0, multiplicity = 1:

    H            1.503796140956     1.319727722546     0.000038701616
    C            0.848384808982     0.440007995782     0.000010915911
    C           -0.623496371405     0.751021408100     0.000090057935
    O            1.313020352272    -0.646895064253    -0.000082588203
    C           -1.523724730862    -0.474323512940    -0.000013470953
    H           -0.813142981972     1.382931641020    -0.864897328806
    H           -0.813070706808     1.382715853843     0.865253151881
    H           -1.342980163806    -1.087347841859    -0.873015744904
    H           -2.565268728831    -0.177463688874     0.000070390986
    H           -1.342898153178    -1.087563836839     0.872819681979

  Mulliken Charges: (a.u.)
   Center  Symbol    Alpha    Beta     Spin     Total
       1     H     0.45352  0.45352  0.00000  0.09295
       2     C     2.91605  2.91605  0.00000  0.16790
       3     C     3.08388  3.08388  0.00000 -0.16776
       4     O     4.16467  4.16467  0.00000 -0.32934
       5     C     3.14054  3.14054  0.00000 -0.28107
       6     H     0.44843  0.44843  0.00000  0.10315
       7     H     0.44843  0.44843  0.00000  0.10314
       8     H     0.44751  0.44751  0.00000  0.10498
       9     H     0.44947  0.44947  0.00000  0.10106
      10     H     0.44751  0.44751  0.00000  0.10499

   Total alpha = 16.00000, Total beta = 16.00000, Total charge = -0.00000
