  ==> Input File <==

--------------------------------------------------------------------------
set {
	reference rhf
	basis cc-pvtz
}

set_num_threads( 4 )
memory 2 gb

molecule MOL {
0 1

H	 -0.000105	 1.988529	 0.748933
O	 -0.000098	 1.879786	 -0.188206
C	 -0.000014	 0.545691	 -0.532416
C	 -1.286000	 -0.125171	 -0.046657
C	 1.286016	 -0.125031	 -0.046584
H	 0.000021	 0.481103	 -1.610604
F	 -2.271674	 0.196577	 -0.847772
F	 -1.190868	 -1.430699	 -0.030609
F	 -1.608079	 0.277242	 1.164005
F	 2.317750	 0.468717	 -0.594166
F	 1.336617	 -1.393765	 -0.365123
F	 1.414467	 -0.024806	 1.259108

	symmetry c1
}
set optking {
	frozen_dihedral = ("
		7 4 3 6
	")
}

ee = optimize('scf')
oeprop('DIPOLE', 'QUADRUPOLE', 'MULLIKEN_CHARGES')
f=open( 'psi4out.xyz', 'w' )
f.write( "12  " )
f.write( str(ee) + "\n" )
f.write( MOL.save_string_xyz() )
f.close()
--------------------------------------------------------------------------

    Molecular point group: c1
  Charge       = 0
  Multiplicity = 1
  Basis Set: CC-PVTZ
  Basis Set:
  @DF-RHF Final Energy:  -786.58796377253475
    Total Energy =                       -786.5879637725340672
    Molecular point group: c1
  Basis Set: CC-PVTZ
  Basis Set:
  Basis Set: CC-PVTZ
  Basis Set:
  @DF-RHF Final Energy:  -786.58844066928384
    Total Energy =                       -786.5884406692840685
  Basis Set: CC-PVTZ
  Basis Set:
  Basis Set: CC-PVTZ
  Basis Set:
  @DF-RHF Final Energy:  -786.58857676449747
    Total Energy =                       -786.5885767644978159
  Basis Set: CC-PVTZ
  Basis Set:
  Basis Set: CC-PVTZ
  Basis Set:
  @DF-RHF Final Energy:  -786.58860359893208
    Total Energy =                       -786.5886035989324228
  Basis Set: CC-PVTZ
  Basis Set:
  Basis Set: CC-PVTZ
  Basis Set:
  @DF-RHF Final Energy:  -786.58860635885196
    Total Energy =                       -786.5886063588515071
  Basis Set: CC-PVTZ
  Basis Set:
  Charge       = 0
  Multiplicity = 1
  Basis Set: CC-PVTZ
  Basis Set:

    Orbital Energies (a.u.)
    -----------------------

    Doubly Occupied:

       1A    -26.360572     2A    -26.357960     3A    -26.357359
       4A    -26.355811     5A    -26.355304     6A    -26.353155
       7A    -20.609007     8A    -11.521341     9A    -11.518713
      10A    -11.351417    11A     -1.772456    12A     -1.766404
      13A     -1.667773    14A     -1.664230    15A     -1.663390
      16A     -1.660549    17A     -1.438854    18A     -1.102464
      19A     -1.002009    20A     -0.944997    21A     -0.871770
      22A     -0.868871    23A     -0.858960    24A     -0.853030
      25A     -0.840506    26A     -0.822627    27A     -0.747284
      28A     -0.735324    29A     -0.732117    30A     -0.727253
      31A     -0.695840    32A     -0.692099    33A     -0.689287
      34A     -0.682387    35A     -0.677444    36A     -0.668084
      37A     -0.664735    38A     -0.656102    39A     -0.625357
      40A     -0.554415    41A     -0.509790

  @DF-RHF Final Energy:  -786.58860670980198

   => Energetics <=

    Nuclear Repulsion Energy =            670.8967868584638836
    One-Electron Energy =               -2428.9766882262729268
    Two-Electron Energy =                 971.4912946580069502
    DFT Exchange-Correlation Energy =       0.0000000000000000
    Empirical Dispersion Energy =           0.0000000000000000
    PCM Polarization Energy =               0.0000000000000000
    EFP Energy =                            0.0000000000000000
    Total Energy =                       -786.5886067098020931
    Molecular point group: c1
  Basis Set: CC-PVTZ
  Basis Set:

  -Total Gradient:
     Atom            X                  Y                   Z
    ------   -----------------  -----------------  -----------------
       1       -0.000002777673     0.000005090437    -0.000001116945
       2        0.000018684145    -0.000029189176    -0.000010739703
       3        0.001929583038    -0.003993133275    -0.000162631077
       4       -0.000883079094     0.003409817416     0.001863691468
       5       -0.000003324442     0.000023014954    -0.000082555892
       6       -0.001491160612     0.002812647065    -0.000190246697
       7        0.000481561990    -0.002186135366    -0.001446088635
       8       -0.000026351190     0.000010741486     0.000005486036
       9       -0.000022816218    -0.000033663523    -0.000043632558
      10       -0.000008089732     0.000005623574     0.000021670386
      11       -0.000003684250     0.000001991282     0.000044908122
      12        0.000011454029    -0.000026804876     0.000001255494

  **** Optimization is complete! (in 6 steps) ****
    Final optimized geometry and variables:
    Molecular point group: c1

    Geometry (in Angstrom), charge = 0, multiplicity = 1:

    H           -0.045943167312     2.022530744521     0.676085493121
    O            0.009036223142     1.879354520848    -0.254450021094
    C            0.004722712203     0.533182841831    -0.553106092584
    C           -1.284179051236    -0.113620738323    -0.029611749067
    C            1.285654405337    -0.135416577989    -0.054824881614
    H           -0.012315657003     0.452577710169    -1.629429042248
    F           -2.285102423181     0.204614315716    -0.814138921528
    F           -1.212526081617    -1.421165950672     0.008873135224
    F           -1.566875805142     0.310250016329     1.182162536006
    F            2.326181449428     0.532453057416    -0.485090070170
    F            1.394981647263    -1.367194023085    -0.485116168899
    F            1.334909151358    -0.151976383707     1.260798350666

  Mulliken Charges: (a.u.)
   Center  Symbol    Alpha    Beta     Spin     Total
       1     H     0.38085  0.38085  0.00000  0.23830
       2     O     4.18983  4.18983  0.00000 -0.37965
       3     C     3.01041  3.01041  0.00000 -0.02082
       4     C     2.68037  2.68037  0.00000  0.63925
       5     C     2.68337  2.68337  0.00000  0.63327
       6     H     0.42457  0.42457  0.00000  0.15086
       7     F     4.60307  4.60307  0.00000 -0.20615
       8     F     4.60202  4.60202  0.00000 -0.20404
       9     F     4.61023  4.61023  0.00000 -0.22047
      10     F     4.60098  4.60098  0.00000 -0.20195
      11     F     4.60344  4.60344  0.00000 -0.20689
      12     F     4.61086  4.61086  0.00000 -0.22171

   Total alpha = 41.00000, Total beta = 41.00000, Total charge =  0.00000
