                              Psi4 1.0.54 Driver

  ==> Input File <==

--------------------------------------------------------------------------
set {
	reference rhf
	basis cc-pvtz
}

set_num_threads( 4 )
memory 2 gb

molecule MOL {
0 1

H	 -4.079795	 -0.189091	 0.524783
O	 -3.515113	 -0.019339	 -0.206321
C	 -2.302264	 0.528872	 0.237390
C	 -1.175688	 -0.398187	 -0.171891
H	 -2.148018	 1.514076	 -0.197759
H	 -2.310727	 0.646384	 1.319032
C	 0.196029	 0.106276	 0.266738
H	 -1.201873	 -0.515469	 -1.250677
H	 -1.365975	 -1.378728	 0.252664
C	 1.330220	 -0.826136	 -0.155230
H	 0.359542	 1.097229	 -0.145561
H	 0.212134	 0.218135	 1.348778
C	 2.719700	 -0.407669	 0.328325
H	 1.339388	 -0.911200	 -1.239363
H	 1.119001	 -1.821953	 0.224128
C	 3.241564	 0.893452	 -0.276737
H	 3.418299	 -1.204729	 0.093035
H	 2.711776	 -0.323368	 1.411960
H	 3.254204	 0.841071	 -1.360784
H	 2.634460	 1.745075	 0.005842
H	 4.254264	 1.092401	 0.054971

	symmetry c1
}
set optking {
	frozen_dihedral = ("
		1 2 3 5
	")
}

ee,wfn = optimize('scf', return_wfn=True)
oeprop( wfn, 'DIPOLE', 'QUADRUPOLE', 'MULLIKEN_CHARGES')
f=open( 'psi4out.xyz', 'w' )
f.write( "21  " )
f.write( str(ee) + "\n" )
f.write( MOL.save_string_xyz() )
f.close()
--------------------------------------------------------------------------

    Molecular point group: c1
  Charge       = 0
  Multiplicity = 1
  Basis Set: CC-PVTZ
  Basis Set:
  @DF-RHF Final Energy:  -310.33082561943047
    Total Energy =                       -310.3308256194304704
    Molecular point group: c1
  Basis Set: CC-PVTZ
  Basis Set:
  Basis Set: CC-PVTZ
  Basis Set:
  @DF-RHF Final Energy:  -310.33120004045719
    Total Energy =                       -310.3312000404575883
  Basis Set: CC-PVTZ
  Basis Set:
  Basis Set: CC-PVTZ
  Basis Set:
  @DF-RHF Final Energy:  -310.33130113666806
    Total Energy =                       -310.3313011366680030
  Basis Set: CC-PVTZ
  Basis Set:
  Charge       = 0
  Multiplicity = 1
  Basis Set: CC-PVTZ
  Basis Set:

    Orbital Energies (a.u.)
    -----------------------

    Doubly Occupied:

       1A    -20.544158     2A    -11.265436     3A    -11.213670
       4A    -11.213560     5A    -11.211944     6A    -11.208989
       7A    -11.206277     8A     -1.361648     9A     -1.087751
      10A     -1.034453    11A     -0.955630    12A     -0.877609
      13A     -0.810753    14A     -0.779393    15A     -0.702943
      16A     -0.651617    17A     -0.619956    18A     -0.610384
      19A     -0.589129    20A     -0.569896    21A     -0.543364
      22A     -0.525495    23A     -0.502905    24A     -0.496573
      25A     -0.472528    26A     -0.463766    27A     -0.460806
      28A     -0.456124    29A     -0.423929

  @DF-RHF Final Energy:  -310.33130187026273

   => Energetics <=

    Nuclear Repulsion Energy =            312.5839887845797307
    One-Electron Energy =               -1040.1092085493755803
    Two-Electron Energy =                 417.1939178945331150
    DFT Exchange-Correlation Energy =       0.0000000000000000
    Empirical Dispersion Energy =           0.0000000000000000
    PCM Polarization Energy =               0.0000000000000000
    EFP Energy =                            0.0000000000000000
    Total Energy =                       -310.3313018702626778
    Molecular point group: c1
  Basis Set: CC-PVTZ
  Basis Set:

  -Total Gradient:
     Atom            X                  Y                   Z
    ------   -----------------  -----------------  -----------------
       1        0.000004216582     0.000003664454    -0.000030347235
       2       -0.000156813722    -0.000072134536    -0.000025401568
       3        0.000077749635     0.000012546897     0.000061435851
       4        0.000026182395     0.000070444640    -0.000006940352
       5        0.000046558526    -0.000042397906     0.000007218906
       6        0.000017514597     0.000009833580    -0.000000142381
       7       -0.000059020096    -0.000014030354    -0.000004333605
       8       -0.000017947901     0.000002029168    -0.000009309358
       9       -0.000021747199     0.000029816511     0.000008415767
      10        0.000016974719     0.000036079078    -0.000017792857
      11       -0.000024427140    -0.000046138207     0.000005954427
      12        0.000011592360     0.000017845444    -0.000002377878
      13        0.000001385484    -0.000009599957     0.000020892270
      14       -0.000005606255     0.000015535142     0.000003724723
      15        0.000011781005     0.000001012795    -0.000013912285
      16        0.000019690837    -0.000003499651    -0.000007789762
      17        0.000029540628    -0.000010729275     0.000017411723
      18       -0.000008276466     0.000013148289     0.000006012710
      19       -0.000004255915     0.000006612094    -0.000010277117
      20        0.000034391283    -0.000009084297     0.000006870291
      21        0.000000516637    -0.000010953906    -0.000009312269

  **** Optimization is complete! (in 4 steps) ****
    Final optimized geometry and variables:
    Molecular point group: c1

    Geometry (in Angstrom), charge = 0, multiplicity = 1:

    H           -4.117135301294    -0.127868564891     0.515799193390
    O           -3.539296507064     0.062271545665    -0.197302150151
    C           -2.298780773248     0.523486991849     0.278872776189
    C           -1.176695497404    -0.398487568396    -0.163077981481
    H           -2.132989937165     1.522208747312    -0.112296175808
    H           -2.309532693600     0.602996540695     1.362324420039
    C            0.201964600200     0.096182973564     0.264638912389
    H           -1.219294463322    -0.492995409229    -1.243719177102
    H           -1.359272254583    -1.389736815731     0.241627980401
    C            1.330039245275    -0.829402437456    -0.187743715646
    H            0.359938401551     1.093747907961    -0.133293341939
    H            0.233556931043     0.190839943176     1.348288958691
    C            2.725533295039    -0.423945846791     0.289672855080
    H            1.327533969193    -0.892201765933    -1.273351107467
    H            1.120740972506    -1.832476198122     0.173288479539
    C            3.246236889123     0.885489616624    -0.298042936214
    H            3.419175378482    -1.219121469482     0.034132554086
    H            2.728224883707    -0.358175918779     1.374636045361
    H            3.246062267182     0.852456173511    -1.382881957126
    H            2.646357114754     1.734505180219     0.006746693877
    H            4.263587399682     1.073976256303     0.025360140462

  Mulliken Charges: (a.u.)
   Center  Symbol    Alpha    Beta     Spin     Total
       1     H     0.39140  0.39140  0.00000  0.21719
       2     O     4.20442  4.20442  0.00000 -0.40884
       3     C     2.97096  2.97096  0.00000  0.05808
       4     C     3.07977  3.07977  0.00000 -0.15953
       5     H     0.46304  0.46304  0.00000  0.07392
       6     H     0.47357  0.47357  0.00000  0.05285
       7     C     3.10418  3.10418  0.00000 -0.20837
       8     H     0.45046  0.45046  0.00000  0.09907
       9     H     0.45688  0.45688  0.00000  0.08624
      10     C     3.09381  3.09381  0.00000 -0.18762
      11     H     0.45224  0.45224  0.00000  0.09552
      12     H     0.45627  0.45627  0.00000  0.08745
      13     C     3.08992  3.08992  0.00000 -0.17985
      14     H     0.45279  0.45279  0.00000  0.09441
      15     H     0.44927  0.44927  0.00000  0.10146
      16     C     3.15231  3.15231  0.00000 -0.30461
      17     H     0.44844  0.44844  0.00000  0.10313
      18     H     0.45523  0.45523  0.00000  0.08954
      19     H     0.45448  0.45448  0.00000  0.09104
      20     H     0.45405  0.45405  0.00000  0.09191
      21     H     0.44650  0.44650  0.00000  0.10700

   Total alpha = 29.00000, Total beta = 29.00000, Total charge = -0.00000

*** Psi4 exiting successfully. Buy a developer a beer!
