  ==> Input File <==

--------------------------------------------------------------------------
set {
	reference rhf
	basis 6-31G*
}

set_num_threads( 4 )
memory 2 gb

molecule MOL {
0 1

H	 1.959421	 1.507842	 -2.435858
O	 1.152089	 1.544320	 -1.943340
C	 1.345770	 0.971700	 -0.674577
C	 0.031547	 1.023609	 0.088541
H	 2.104013	 1.521897	 -0.120284
H	 1.694692	 -0.054256	 -0.768215
C	 -1.134819	 0.293262	 -0.585751
H	 -0.236203	 2.067825	 0.223485
H	 0.200999	 0.610384	 1.081390
C	 -1.917817	 -0.639439	 0.339494
H	 -0.758119	 -0.268455	 -1.433105
H	 -1.813832	 1.041889	 -0.986690
H	 -2.777680	 -1.057197	 -0.174994
H	 -1.310268	 -1.471279	 0.680599
H	 -2.283753	 -0.111424	 1.216626

	symmetry c1
}
set optking {
	frozen_dihedral = ("
		8 4 7 11
	")
}

ee = optimize('scf')
oeprop('DIPOLE', 'QUADRUPOLE', 'MULLIKEN_CHARGES')
f=open( 'psi4out.xyz', 'w' )
f.write( "15  " )
f.write( str(ee) + "\n" )
f.write( MOL.save_string_xyz() )
f.close()
--------------------------------------------------------------------------

    Molecular point group: c1
  Charge       = 0
  Multiplicity = 1
  Basis Set: 6-31G*
  Basis Set:
  @DF-RHF Final Energy:  -232.13979657593561
    Total Energy =                       -232.1397965759356339
    Molecular point group: c1
  Basis Set: 6-31G*
  Basis Set:
  Basis Set: 6-31G*
  Basis Set:
  @DF-RHF Final Energy:  -232.14036652794798
    Total Energy =                       -232.1403665279480037
  Basis Set: 6-31G*
  Basis Set:
  Basis Set: 6-31G*
  Basis Set:
  @DF-RHF Final Energy:  -232.14042142241126
    Total Energy =                       -232.1404214224111229
  Basis Set: 6-31G*
  Basis Set:
  Charge       = 0
  Multiplicity = 1
  Basis Set: 6-31G*
  Basis Set:

    Orbital Energies (a.u.)
    -----------------------

    Doubly Occupied:

       1A    -20.553002     2A    -11.267939     3A    -11.211842
       4A    -11.208990     5A    -11.205881     6A     -1.359853
       7A     -1.062159     8A     -0.973785     9A     -0.857023
      10A     -0.786111    11A     -0.702794    12A     -0.646883
      13A     -0.600722    14A     -0.585853    15A     -0.551863
      16A     -0.537048    17A     -0.502065    18A     -0.475880
      19A     -0.468806    20A     -0.452005    21A     -0.429998

  @DF-RHF Final Energy:  -232.14042238880774

   => Energetics <=

    Nuclear Repulsion Energy =            188.7334996972082877
    One-Electron Energy =                -688.8668425286175534
    Two-Electron Energy =                 267.9929204426018714
    DFT Exchange-Correlation Energy =       0.0000000000000000
    Empirical Dispersion Energy =           0.0000000000000000
    PCM Polarization Energy =               0.0000000000000000
    EFP Energy =                            0.0000000000000000
    Total Energy =                       -232.1404223888073943
    Molecular point group: c1
  Basis Set: 6-31G*
  Basis Set:

  -Total Gradient:
     Atom            X                  Y                   Z
    ------   -----------------  -----------------  -----------------
       1       -0.000001186564    -0.000018086414     0.000043597403
       2       -0.000086445427     0.000003555384     0.000027446502
       3        0.000104880676     0.000043968457    -0.000019897153
       4       -0.001322334482    -0.000228198376     0.002322342404
       5        0.000023026160     0.000009250696    -0.000012515621
       6       -0.000011089164    -0.000021429573     0.000046055097
       7        0.000697513875    -0.002212317003     0.001325412378
       8        0.000999664373     0.000526551285    -0.002184355200
       9        0.000015137214     0.000002003629    -0.000036203063
      10       -0.000069679059    -0.000032003088    -0.000040404428
      11       -0.000358551177     0.001917473703    -0.001478284719
      12       -0.000014179528    -0.000010204636     0.000013781661
      13       -0.000009093874    -0.000021501350     0.000011799977
      14        0.000022988996     0.000028572897    -0.000002424367
      15        0.000009347982     0.000012364387    -0.000016350869

  **** Optimization is complete! (in 4 steps) ****
    Final optimized geometry and variables:
    Molecular point group: c1

    Geometry (in Angstrom), charge = 0, multiplicity = 1:

    H            1.997530529226     0.874929565494    -1.848725926688
    O            1.211729595755     0.943424802957    -1.325599286400
    C            1.405641427082     0.300277918763    -0.091530033024
    C            0.102311668908     0.357410831613     0.686764075079
    H            2.196827865396     0.790376941389     0.473389729745
    H            1.702864040398    -0.736872892516    -0.243173219453
    C           -1.060575694373    -0.378430904147    -0.011631577999
    H           -0.144724101255     1.405499951365     0.824038360914
    H            0.281821115131    -0.062786796198     1.673532407979
    C           -1.849542567858    -1.292604487435     0.924871519175
    H           -0.679699074350    -0.948019948322    -0.853953977801
    H           -1.734811701877     0.351020462005    -0.448682773543
    H           -2.670853020459    -1.775680962973     0.404305155363
    H           -1.215677853307    -2.072084160185     1.339430162948
    H           -2.268965393360    -0.733473555458     1.756921427276

  Mulliken Charges: (a.u.)
   Center  Symbol    Alpha    Beta     Spin     Total
       1     H     0.28073  0.28073  0.00000  0.43853
       2     O     4.36923  4.36923  0.00000 -0.73845
       3     C     3.00038  3.00038  0.00000 -0.00076
       4     C     3.16157  3.16157  0.00000 -0.32314
       5     H     0.42989  0.42989  0.00000  0.14023
       6     H     0.43292  0.43292  0.00000  0.13416
       7     C     3.15162  3.15162  0.00000 -0.30324
       8     H     0.41256  0.41256  0.00000  0.17487
       9     H     0.42165  0.42165  0.00000  0.15670
      10     C     3.24129  3.24129  0.00000 -0.48258
      11     H     0.41582  0.41582  0.00000  0.16836
      12     H     0.41584  0.41584  0.00000  0.16832
      13     H     0.42017  0.42017  0.00000  0.15965
      14     H     0.42415  0.42415  0.00000  0.15169
      15     H     0.42217  0.42217  0.00000  0.15566

   Total alpha = 21.00000, Total beta = 21.00000, Total charge = -0.00000
