  ==> Input File <==

--------------------------------------------------------------------------
set {
	reference rhf
	basis 6-31G*
}

set_num_threads( 4 )
memory 2 gb

molecule MOL {
0 1

H	 -3.892951	 0.981613	 -0.358725
C	 -3.196921	 0.361773	 0.172313
C	 -2.076860	 -0.007332	 -0.404944
H	 -3.439953	 0.057760	 1.173024
O	 -2.021685	 -0.344822	 -1.720207
H	 -1.138224	 -0.045953	 0.119142
C	 -0.844775	 -0.890051	 -2.209550
C	 -0.800879	 -2.389306	 -2.018234
H	 0.034070	 -0.463752	 -1.738810
H	 -0.805198	 -0.690302	 -3.270220
F	 0.322763	 -2.866704	 -2.533331
F	 -0.828803	 -2.721723	 -0.738175
F	 -1.808821	 -2.993816	 -2.612381

	symmetry c1
}
set optking {
	frozen_dihedral = ("
		6 3 2 1
	")
}

ee = optimize('scf')
oeprop('DIPOLE', 'QUADRUPOLE', 'MULLIKEN_CHARGES')
f=open( 'psi4out.xyz', 'w' )
f.write( "13  " )
f.write( str(ee) + "\n" )
f.write( MOL.save_string_xyz() )
f.close()
--------------------------------------------------------------------------

    Molecular point group: c1
  Charge       = 0
  Multiplicity = 1
  Basis Set: 6-31G*
  Basis Set:
  @DF-RHF Final Energy:  -527.49982376009507
    Total Energy =                       -527.4998237600950688
    Molecular point group: c1
  Basis Set: 6-31G*
  Basis Set:
  Basis Set: 6-31G*
  Basis Set:
  @DF-RHF Final Energy:  -527.51628631677181
    Total Energy =                       -527.5162863167716978
  Basis Set: 6-31G*
  Basis Set:
  Basis Set: 6-31G*
  Basis Set:
  @DF-RHF Final Energy:  -527.52106833516245
    Total Energy =                       -527.5210683351619991
  Basis Set: 6-31G*
  Basis Set:
  Basis Set: 6-31G*
  Basis Set:
  @DF-RHF Final Energy:  -527.52126296941515
    Total Energy =                       -527.5212629694148063
  Basis Set: 6-31G*
  Basis Set:
  @DF-RHF Final Energy:  -527.52128321150713
    Total Energy =                       -527.5212832115071251
  @DF-RHF Final Energy:  -527.52128935485962
    Total Energy =                       -527.5212893548596185
  @DF-RHF Final Energy:  -527.52129042684771
    Total Energy =                       -527.5212904268475995
  @DF-RHF Final Energy:  -527.46253106466384
    Total Energy =                       -527.4625310646637217
  @DF-RHF Final Energy:  -527.48546492864648
    Total Energy =                       -527.4854649286464792
  @DF-RHF Final Energy:  -527.49331989403345
    Total Energy =                       -527.4933198940333341
  @DF-RHF Final Energy:  -527.50084689929417
    Total Energy =                       -527.5008468992939470
  @DF-RHF Final Energy:  -527.51485604100515
    Total Energy =                       -527.5148560410046912
  @DF-RHF Final Energy:  -527.52012403057370
    Total Energy =                       -527.5201240305739248
  @DF-RHF Final Energy:  -527.52122534402724
    Total Energy =                       -527.5212253440274708
  @DF-RHF Final Energy:  -527.52128598602621
    Total Energy =                       -527.5212859860266690
  @DF-RHF Final Energy:  -527.52129321114137
    Total Energy =                       -527.5212932111417103
  @DF-RHF Final Energy:  -527.52129543510205
    Total Energy =                       -527.5212954351013650
  @DF-RHF Final Energy:  -527.52129601638171
    Total Energy =                       -527.5212960163815978
  @DF-RHF Final Energy:  -527.52129586864544
    Total Energy =                       -527.5212958686455522
  @DF-RHF Final Energy:  -527.52129589767401
    Total Energy =                       -527.5212958976738946
  @DF-RHF Final Energy:  -527.39929434741089
    Total Energy =                       -527.3992943474105459
  @DF-RHF Final Energy:  -527.50407785477000
    Total Energy =                       -527.5040778547702303
  @DF-RHF Final Energy:  -527.52074958191258
    Total Energy =                       -527.5207495819124688
  @DF-RHF Final Energy:  -527.52124599429158
    Total Energy =                       -527.5212459942922578
  @DF-RHF Final Energy:  -527.52127935084479
    Total Energy =                       -527.5212793508449067
  @DF-RHF Final Energy:  -527.52129003337268
    Total Energy =                       -527.5212900333727930
  @DF-RHF Final Energy:  -527.52128862859672
    Total Energy =                       -527.5212886285966079
  @DF-RHF Final Energy:  -527.51073381290416
    Total Energy =                       -527.5107338129040500
  @DF-RHF Final Energy:  -527.51425443929134
    Total Energy =                       -527.5142544392915624
  @DF-RHF Final Energy:  -527.52058620225262
    Total Energy =                       -527.5205862022523888
  @DF-RHF Final Energy:  -527.52114890318205
    Total Energy =                       -527.5211489031819383
  @DF-RHF Final Energy:  -527.52126774802900
    Total Energy =                       -527.5212677480290040
  @DF-RHF Final Energy:  -527.52128830048969
    Total Energy =                       -527.5212883004899140
  @DF-RHF Final Energy:  -527.52128976968515
    Total Energy =                       -527.5212897696851542
  @DF-RHF Final Energy:  -527.52129276014307
    Total Energy =                       -527.5212927601430692
  @DF-RHF Final Energy:  -527.52129318854736
    Total Energy =                       -527.5212931885473608
  Basis Set: 6-31G*
  Basis Set:
  @DF-RHF Final Energy:  -527.52129349100630
    Total Energy =                       -527.5212934910064178
  Basis Set: 6-31G*
  Basis Set:
  Basis Set: 6-31G*
  Basis Set:
  @DF-RHF Final Energy:  -527.52129354457986
    Total Energy =                       -527.5212935445797484
  Basis Set: 6-31G*
  Basis Set:
  Basis Set: 6-31G*
  Basis Set:
  @DF-RHF Final Energy:  -527.52129347607433
    Total Energy =                       -527.5212934760743337
  Basis Set: 6-31G*
  Basis Set:
  Charge       = 0
  Multiplicity = 1
  Basis Set: 6-31G*
  Basis Set:

    Orbital Energies (a.u.)
    -----------------------

    Doubly Occupied:

       1A    -26.343874     2A    -26.342780     3A    -26.339775
       4A    -20.607448     5A    -11.502489     6A    -11.318771
       7A    -11.302969     8A    -11.216825     9A     -1.740916
      10A     -1.639005    11A     -1.637474    12A     -1.437177
      13A     -1.084570    14A     -1.016256    15A     -0.924593
      16A     -0.836229    17A     -0.830131    18A     -0.820938
      19A     -0.792385    20A     -0.720156    21A     -0.710681
      22A     -0.694672    23A     -0.675492    24A     -0.659745
      25A     -0.654103    26A     -0.642285    27A     -0.634375
      28A     -0.583989    29A     -0.561152    30A     -0.527108
      31A     -0.510243    32A     -0.347349

  @DF-RHF Final Energy:  -527.52129346335528

   => Energetics <=

    Nuclear Repulsion Energy =            412.7909574810378786
    One-Electron Energy =               -1549.3125901832472664
    Two-Electron Energy =                 609.0003392388541670
    DFT Exchange-Correlation Energy =       0.0000000000000000
    Empirical Dispersion Energy =           0.0000000000000000
    PCM Polarization Energy =               0.0000000000000000
    EFP Energy =                            0.0000000000000000
    Total Energy =                       -527.5212934633552777
    Molecular point group: c1
  Basis Set: 6-31G*
  Basis Set:

  -Total Gradient:
     Atom            X                  Y                   Z
    ------   -----------------  -----------------  -----------------
       1        0.010188405596     0.021291286226     0.004173671767
       2       -0.012838406680    -0.021530209436    -0.010334665409
       3       -0.000301654097    -0.020819194167     0.016984698560
       4       -0.000182647760     0.000224089642    -0.000046965193
       5       -0.000058522439    -0.000210766923    -0.000399275986
       6        0.003142714639     0.021008387573    -0.010449793137
       7        0.000008876550     0.000246718327     0.000086335192
       8       -0.000168768829    -0.000149261026     0.000105332676
       9        0.000002667994    -0.000008246402    -0.000003428056
      10        0.000005465114     0.000008429716     0.000001936796
      11        0.000220828798    -0.000117531585    -0.000082212958
      12        0.000005161700     0.000056892320    -0.000015739328
      13       -0.000024120587    -0.000000594267    -0.000019894931

    Molecular point group: c1

    Geometry (in Angstrom), charge = 0, multiplicity = 1:

    H           -2.692131692608     2.389801249985     1.177927882745
    C           -1.908173351462     1.937869486837     1.761663607410
    C           -0.770726463641     1.536134409198     1.238471583354
    H           -1.919093310209     2.177123130184     2.808813239350
    O           -0.652219147050     1.283813521687    -0.093199243789
    H            0.179495173051     1.673204333193     1.728738951264
    C            0.525007591956     0.743364832640    -0.576414845845
    C            0.542658050991    -0.761749058920    -0.477957559276
    H            1.398778195263     1.128134682313    -0.059724230059
    H            0.598331884101     0.992330595315    -1.624339233070
    F            1.669378409123    -1.214176096550    -1.005376514378
    F            0.486675001962    -1.185426745626     0.770585264954
    F           -0.460086124555    -1.307442364759    -1.129607734510

  Mulliken Charges: (a.u.)
   Center  Symbol    Alpha    Beta     Spin     Total
       1     H     0.40086  0.40086  0.00000  0.19829
       2     C     3.22997  3.22997  0.00000 -0.45993
       3     C     2.89874  2.89874  0.00000  0.20252
       4     H     0.41219  0.41219  0.00000  0.17562
       5     O     4.29954  4.29954  0.00000 -0.59908
       6     H     0.40646  0.40646  0.00000  0.18708
       7     C     3.06388  3.06388  0.00000 -0.12776
       8     C     2.45513  2.45513  0.00000  1.08973
       9     H     0.40673  0.40673  0.00000  0.18654
      10     H     0.38985  0.38985  0.00000  0.22029
      11     F     4.68323  4.68323  0.00000 -0.36645
      12     F     4.67904  4.67904  0.00000 -0.35807
      13     F     4.67439  4.67439  0.00000 -0.34877

   Total alpha = 32.00000, Total beta = 32.00000, Total charge =  0.00000
