  ==> Input File <==

--------------------------------------------------------------------------
set {
	reference rhf
	basis cc-pvtz
}

set_num_threads( 4 )
memory 2 gb

molecule MOL {
0 1

H	 3.163263	 0.384590	 -0.709766
N	 2.337676	 -0.175529	 -0.693555
C	 1.263552	 0.494993	 0.021953
H	 2.575946	 -1.038680	 -0.251363
C	 -0.016533	 -0.325589	 -0.026925
H	 1.092845	 1.452701	 -0.458308
H	 1.514196	 0.706961	 1.062256
C	 -1.280353	 0.525521	 0.047747
H	 -0.016686	 -0.912532	 -0.939714
H	 -0.014099	 -1.037598	 0.796369
C	 -2.560681	 -0.301323	 -0.007747
H	 -1.279957	 1.241025	 -0.770189
H	 -1.270445	 1.110526	 0.963468
H	 -2.617064	 -0.872870	 -0.928010
H	 -3.439525	 0.331102	 0.043462
H	 -2.609427	 -1.002736	 0.818585

	symmetry c1
}
set optking {
	frozen_dihedral = ("
		6 3 5 9
	")
}

ee = optimize('scf')
oeprop('DIPOLE', 'QUADRUPOLE', 'MULLIKEN_CHARGES')
f=open( 'psi4out.xyz', 'w' )
f.write( "16  " )
f.write( str(ee) + "\n" )
f.write( MOL.save_string_xyz() )
f.close()
--------------------------------------------------------------------------

    Molecular point group: c1
  Charge       = 0
  Multiplicity = 1
  Basis Set: CC-PVTZ
  Basis Set:
  @DF-RHF Final Energy:  -212.39765709007389
    Total Energy =                       -212.3976570900740626
    Molecular point group: c1
  Basis Set: CC-PVTZ
  Basis Set:
  Basis Set: CC-PVTZ
  Basis Set:
  @DF-RHF Final Energy:  -212.39792462241476
    Total Energy =                       -212.3979246224148483
  Basis Set: CC-PVTZ
  Basis Set:
  Basis Set: CC-PVTZ
  Basis Set:
  @DF-RHF Final Energy:  -212.39797499972360
    Total Energy =                       -212.3979749997238855
  Basis Set: CC-PVTZ
  Basis Set:
  Basis Set: CC-PVTZ
  Basis Set:
  @DF-RHF Final Energy:  -212.39797692762170
    Total Energy =                       -212.3979769276218121
  Basis Set: CC-PVTZ
  Basis Set:
  Charge       = 0
  Multiplicity = 1
  Basis Set: CC-PVTZ
  Basis Set:

    Orbital Energies (a.u.)
    -----------------------

    Doubly Occupied:

       1A    -15.527365     2A    -11.237990     3A    -11.213278
       4A    -11.207840     5A    -11.205729     6A     -1.178480
       7A     -1.060616     8A     -0.959262     9A     -0.844596
      10A     -0.793557    11A     -0.657246    12A     -0.647419
      13A     -0.599758    14A     -0.578311    15A     -0.571247
      16A     -0.520006    17A     -0.502752    18A     -0.469407
      19A     -0.465016    20A     -0.462651    21A     -0.383375

  @DF-RHF Final Energy:  -212.39797718146821

   => Energetics <=

    Nuclear Repulsion Energy =            186.4684590515315108
    One-Electron Energy =                -655.5610725321371319
    Two-Electron Energy =                 256.6946362991374144
    DFT Exchange-Correlation Energy =       0.0000000000000000
    Empirical Dispersion Energy =           0.0000000000000000
    PCM Polarization Energy =               0.0000000000000000
    EFP Energy =                            0.0000000000000000
    Total Energy =                       -212.3979771814682067
    Molecular point group: c1
  Basis Set: CC-PVTZ
  Basis Set:

  -Total Gradient:
     Atom            X                  Y                   Z
    ------   -----------------  -----------------  -----------------
       1        0.000040356801    -0.000002429874    -0.000011767921
       2       -0.000036671465     0.000044733182     0.000029016135
       3        0.002013184160    -0.002826143421    -0.004382071988
       4        0.000015983164    -0.000021541151     0.000008889101
       5       -0.002729542853     0.004524523869    -0.001616830317
       6       -0.001293080114     0.001662158879     0.003854753337
       7        0.000017481069    -0.000004608902     0.000030698053
       8        0.000029609802    -0.000044978067     0.000025948211
       9        0.001968163105    -0.003327829029     0.002053005941
      10       -0.000006218674    -0.000012899567     0.000014298842
      11       -0.000024410544     0.000019264845    -0.000009037262
      12        0.000007413107    -0.000011085169     0.000006627252
      13        0.000004378086    -0.000001483653     0.000001733904
      14        0.000002095215     0.000001421990     0.000002213360
      15       -0.000014613495    -0.000008087106    -0.000005727069
      16        0.000005872636     0.000008983173    -0.000001749578

  **** Optimization is complete! (in 5 steps) ****
    Final optimized geometry and variables:
    Molecular point group: c1

    Geometry (in Angstrom), charge = 0, multiplicity = 1:

    H            3.222700002967     0.327724244151    -0.459887946192
    N            2.383526551408    -0.208174473988    -0.529630881740
    C            1.280444148320     0.462183252051     0.138789031676
    H            2.567501763369    -1.094457446378    -0.106712935122
    C           -0.007552560851    -0.354287667291     0.053306434379
    H            1.128233382937     1.432116710482    -0.322581890907
    H            1.490340609399     0.672050005046     1.189027704760
    C           -1.273000077001     0.488249259701     0.162713909164
    H            0.002595296855    -0.922740813082    -0.871054885083
    H           -0.007064020048    -1.097313797099     0.849019527066
    C           -2.549432257501    -0.345802658792     0.164280605895
    H           -1.303701591227     1.192916469911    -0.663260543334
    H           -1.232084061062     1.084509308788     1.070877505792
    H           -2.630831155064    -0.935202826021    -0.742842592319
    H           -3.429762822215     0.283190945449     0.230446765964
    H           -2.568535288014    -1.031125259805     1.005130796639

  Mulliken Charges: (a.u.)
   Center  Symbol    Alpha    Beta     Spin     Total
       1     H     0.43073  0.43073  0.00000  0.13855
       2     N     3.68601  3.68601  0.00000 -0.37203
       3     C     3.02566  3.02566  0.00000 -0.05132
       4     H     0.43103  0.43103  0.00000  0.13795
       5     C     3.08565  3.08565  0.00000 -0.17129
       6     H     0.45972  0.45972  0.00000  0.08057
       7     H     0.46852  0.46852  0.00000  0.06296
       8     C     3.08642  3.08642  0.00000 -0.17284
       9     H     0.44969  0.44969  0.00000  0.10061
      10     H     0.45928  0.45928  0.00000  0.08143
      11     C     3.14970  3.14970  0.00000 -0.29939
      12     H     0.45306  0.45306  0.00000  0.09388
      13     H     0.45601  0.45601  0.00000  0.08799
      14     H     0.45404  0.45404  0.00000  0.09193
      15     H     0.44885  0.44885  0.00000  0.10230
      16     H     0.45564  0.45564  0.00000  0.08872

   Total alpha = 21.00000, Total beta = 21.00000, Total charge = -0.00000
