  ==> Input File <==

--------------------------------------------------------------------------
set {
	reference rhf
	basis 6-31G*
}

set_num_threads( 4 )
memory 2 gb

molecule MOL {
0 1

H	 1.373018	 -1.804866	 1.478836
C	 1.544344	 -0.723526	 1.414384
C	 0.299366	 0.117027	 1.294222
O	 2.651235	 -0.292039	 1.441566
C	 -0.558097	 -0.297372	 0.091132
H	 0.596614	 1.157113	 1.228311
H	 -0.277462	 -0.011274	 2.209448
C	 -1.850991	 0.512573	 -0.019058
H	 0.022064	 -0.177310	 -0.820883
H	 -0.801968	 -1.355656	 0.164757
C	 -3.096943	 -0.368295	 -0.099594
H	 -1.800724	 1.150330	 -0.898172
H	 -1.931651	 1.177355	 0.838044
H	 -3.060452	 -1.020287	 -0.967456
H	 -3.996858	 0.233488	 -0.175704
H	 -3.191959	 -0.995686	 0.782074

	symmetry c1
}
set optking {
	frozen_dihedral = ("
		9 5 8 12
	")
}

ee = optimize('scf')
oeprop('DIPOLE', 'QUADRUPOLE', 'MULLIKEN_CHARGES')
f=open( 'psi4out.xyz', 'w' )
f.write( "16  " )
f.write( str(ee) + "\n" )
f.write( MOL.save_string_xyz() )
f.close()
--------------------------------------------------------------------------

    Molecular point group: c1
  Charge       = 0
  Multiplicity = 1
  Basis Set: 6-31G*
  Basis Set:
  @DF-RHF Final Energy:  -270.01399306252222
    Total Energy =                       -270.0139930625222178
    Molecular point group: c1
  Basis Set: 6-31G*
  Basis Set:
  Basis Set: 6-31G*
  Basis Set:
  @DF-RHF Final Energy:  -270.01416098730795
    Total Energy =                       -270.0141609873077186
  Basis Set: 6-31G*
  Basis Set:
  Basis Set: 6-31G*
  Basis Set:
  @DF-RHF Final Energy:  -270.01409351361292
    Total Energy =                       -270.0140935136126927
  Basis Set: 6-31G*
  Basis Set:
  Basis Set: 6-31G*
  Basis Set:
  @DF-RHF Final Energy:  -270.01430127188991
    Total Energy =                       -270.0143012718899627
  Basis Set: 6-31G*
  Basis Set:
  Basis Set: 6-31G*
  Basis Set:
  @DF-RHF Final Energy:  -270.01429973373411
    Total Energy =                       -270.0142997337341626
  Basis Set: 6-31G*
  Basis Set:
  Basis Set: 6-31G*
  Basis Set:
  @DF-RHF Final Energy:  -270.01431233780784
    Total Energy =                       -270.0143123378079508
  Basis Set: 6-31G*
  Basis Set:
  Basis Set: 6-31G*
  Basis Set:
  @DF-RHF Final Energy:  -270.01431347346954
    Total Energy =                       -270.0143134734696559
  Basis Set: 6-31G*
  Basis Set:
  Charge       = 0
  Multiplicity = 1
  Basis Set: 6-31G*
  Basis Set:

    Orbital Energies (a.u.)
    -----------------------

    Doubly Occupied:

       1A    -20.562522     2A    -11.326233     3A    -11.236475
       4A    -11.235400     5A    -11.229095     6A    -11.219335
       7A     -1.402175     8A     -1.094017     9A     -1.018264
      10A     -0.905938    11A     -0.812422    12A     -0.793907
      13A     -0.679034    14A     -0.638190    15A     -0.630598
      16A     -0.611949    17A     -0.577058    18A     -0.550719
      19A     -0.532343    20A     -0.507111    21A     -0.487585
      22A     -0.482591    23A     -0.472737    24A     -0.408522

  @DF-RHF Final Energy:  -270.01431361856874

   => Energetics <=

    Nuclear Repulsion Energy =            229.0494157084807512
    One-Electron Energy =                -819.2990165404246454
    Two-Electron Energy =                 320.2352872133753294
    DFT Exchange-Correlation Energy =       0.0000000000000000
    Empirical Dispersion Energy =           0.0000000000000000
    PCM Polarization Energy =               0.0000000000000000
    EFP Energy =                            0.0000000000000000
    Total Energy =                       -270.0143136185685648
    Molecular point group: c1
  Basis Set: 6-31G*
  Basis Set:

  -Total Gradient:
     Atom            X                  Y                   Z
    ------   -----------------  -----------------  -----------------
       1        0.000000824319     0.000001204573    -0.000010332978
       2        0.000006017232    -0.000002708301     0.000019049629
       3       -0.000016935809    -0.000026923330    -0.000048836565
       4        0.000007563737     0.000002136025     0.000010146567
       5       -0.001085115794    -0.001847300672    -0.000986368180
       6       -0.000000974084     0.000000689088    -0.000002219307
       7        0.000006911254     0.000003172106    -0.000001841521
       8        0.000992852477     0.001726143491     0.001276043794
       9        0.000755029502     0.001278357539     0.000643785572
      10        0.000012549562     0.000001395882    -0.000000204625
      11       -0.000002104528     0.000021337971    -0.000005562646
      12       -0.000670731308    -0.001167031972    -0.000896426135
      13       -0.000007459913    -0.000000703891     0.000003948288
      14        0.000010209525    -0.000002442279     0.000006637599
      15       -0.000010750445    -0.000005896744    -0.000009764901
      16        0.000002114260     0.000018570513     0.000001945409

  **** Optimization is complete! (in 8 steps) ****
    Final optimized geometry and variables:
    Molecular point group: c1

    Geometry (in Angstrom), charge = 0, multiplicity = 1:

    H            1.556766725690    -1.624002592535     0.808868802686
    C            1.726303882405    -0.543432461819     0.728771683162
    C            0.479448194533     0.294853508026     0.615479133835
    O            2.833489724307    -0.111564532063     0.731448956806
    C           -0.386869452403    -0.124839513006    -0.581373271184
    H            0.773593659550     1.335417861825     0.543069482689
    H           -0.091808628021     0.168867470997     1.534529199871
    C           -1.693716424120     0.692468430809    -0.693962596859
    H            0.201557074217    -0.009078060597    -1.486773790666
    H           -0.619107472825    -1.183635403774    -0.497298692593
    C           -2.943773426788    -0.182937808626    -0.794759310296
    H           -1.647296895078     1.332690886530    -1.569330129102
    H           -1.792440438047     1.353063886671     0.162625589957
    H           -2.895442299207    -0.835647073508    -1.661618414432
    H           -3.839989869505     0.422640680297    -0.885499532808
    H           -3.054696623290    -0.810371687618     0.085306201977

  Mulliken Charges: (a.u.)
   Center  Symbol    Alpha    Beta     Spin     Total
       1     H     0.43222  0.43222  0.00000  0.13556
       2     C     2.83065  2.83065  0.00000  0.33871
       3     C     3.20976  3.20976  0.00000 -0.41952
       4     O     4.23698  4.23698  0.00000 -0.47397
       5     C     3.16802  3.16802  0.00000 -0.33604
       6     H     0.39893  0.39893  0.00000  0.20214
       7     H     0.41004  0.41004  0.00000  0.17991
       8     C     3.15478  3.15478  0.00000 -0.30956
       9     H     0.41004  0.41004  0.00000  0.17992
      10     H     0.41657  0.41657  0.00000  0.16686
      11     C     3.24120  3.24120  0.00000 -0.48239
      12     H     0.41530  0.41530  0.00000  0.16941
      13     H     0.41709  0.41709  0.00000  0.16583
      14     H     0.41944  0.41944  0.00000  0.16111
      15     H     0.41739  0.41739  0.00000  0.16522
      16     H     0.42159  0.42159  0.00000  0.15681

   Total alpha = 24.00000, Total beta = 24.00000, Total charge = -0.00000
