  ==> Input File <==

--------------------------------------------------------------------------
set {
	reference rhf
	basis 6-31G*
}

set_num_threads( 1 )
memory 2 gb

molecule MOL {
0 1

O	 -0.470385	 0.133758	 -0.704364
C	 0.486307	 0.169203	 0.000779
C	 1.608116	 -0.841643	 0.000302
O	 0.695813	 1.120551	 0.900030
C	 2.990107	 -0.200498	 -0.000684
H	 1.468623	 -1.481519	 -0.865924
H	 1.469683	 -1.481289	 0.866878
H	 3.129736	 0.423364	 -0.875135
H	 3.757882	 -0.966877	 -0.001197
H	 3.130964	 0.423383	 0.873533
C	 -0.285369	 2.146130	 1.013481
C	 0.176875	 3.098703	 2.095722
H	 -1.238473	 1.696765	 1.256894
H	 -0.386752	 2.644286	 0.058938
H	 0.278746	 2.583408	 3.044010
H	 -0.545301	 3.899740	 2.215929
H	 1.135109	 3.536226	 1.839564

	symmetry c1
}
set optking {
	frozen_dihedral = ("
		2 4 11 13,
		11 4 2 3
	")
}

ee = energy('scf')
oeprop('DIPOLE', 'QUADRUPOLE', 'MULLIKEN_CHARGES')
f=open( 'psi4out.xyz', 'w' )
f.write( "17  " )
f.write( str(ee) + "\n" )
f.write( MOL.save_string_xyz() )
f.close()
--------------------------------------------------------------------------

    Molecular point group: c1

    Geometry (in Angstrom), charge = 0, multiplicity = 1:

       Center              X                  Y                   Z               Mass
    ------------   -----------------  -----------------  -----------------  -----------------
           O         -1.211202482099    -0.688154584432    -1.183692963610    15.994914619560
           C         -0.254510482099    -0.652709584432    -0.478549963610    12.000000000000
           C          0.867298517901    -1.663555584432    -0.479026963610    12.000000000000
           O         -0.045004482099     0.298638415568     0.420701036390    15.994914619560
           C          2.249289517901    -1.022410584432    -0.480012963610    12.000000000000
           H          0.727805517901    -2.303431584432    -1.345252963610     1.007825032070
           H          0.728865517901    -2.303201584432     0.387549036390     1.007825032070
           H          2.388918517901    -0.398548584432    -1.354463963610     1.007825032070
           H          3.017064517901    -1.788789584432    -0.480525963610     1.007825032070
           H          2.390146517901    -0.398529584432     0.394204036390     1.007825032070
           C         -1.026186482099     1.324217415568     0.534152036390    12.000000000000
           C         -0.563942482099     2.276790415568     1.616393036390    12.000000000000
           H         -1.979290482099     0.874852415568     0.777565036390     1.007825032070
           H         -1.127569482099     1.822373415568    -0.420390963610     1.007825032070
           H         -0.462071482099     1.761495415568     2.564681036390     1.007825032070
           H         -1.286118482099     3.077827415568     1.736600036390     1.007825032070
           H          0.394291517901     2.714313415568     1.360235036390     1.007825032070

  Charge       = 0
  Multiplicity = 1
  Basis Set: 6-31G*
  Basis Set:

    Orbital Energies (a.u.)
    -----------------------

    Doubly Occupied:

       1A    -20.601930     2A    -20.543015     3A    -11.370842
       4A    -11.285251     5A    -11.236681     6A    -11.222952
       7A    -11.222233     8A     -1.467829     9A     -1.361173
      10A     -1.074449    11A     -1.030182    12A     -0.905848
      13A     -0.858532    14A     -0.778105    15A     -0.692321
      16A     -0.677854    17A     -0.673255    18A     -0.623168
      19A     -0.586007    20A     -0.572541    21A     -0.552642
      22A     -0.545182    23A     -0.526430    24A     -0.511589
      25A     -0.504323    26A     -0.492884    27A     -0.452304
      28A     -0.431162

  @DF-RHF Final Energy:  -344.90989667149034

   => Energetics <=

    Nuclear Repulsion Energy =            318.0328294350320562
    One-Electron Energy =               -1100.2841395594905407
    Two-Electron Energy =                 437.3414134529695616
    DFT Exchange-Correlation Energy =       0.0000000000000000
    Empirical Dispersion Energy =           0.0000000000000000
    PCM Polarization Energy =               0.0000000000000000
    EFP Energy =                            0.0000000000000000
    Total Energy =                       -344.9098966714889798

  Mulliken Charges: (a.u.)
   Center  Symbol    Alpha    Beta     Spin     Total
       1     O     4.28701  4.28701  0.00000 -0.57402
       2     C     2.60936  2.60936  0.00000  0.78128
       3     C     3.20100  3.20100  0.00000 -0.40199
       4     O     4.30924  4.30924  0.00000 -0.61848
       5     C     3.24677  3.24677  0.00000 -0.49354
       6     H     0.39858  0.39858  0.00000  0.20284
       7     H     0.40232  0.40232  0.00000  0.19535
       8     H     0.41467  0.41467  0.00000  0.17066
       9     H     0.41446  0.41446  0.00000  0.17107
      10     H     0.40555  0.40555  0.00000  0.18890
      11     C     3.00219  3.00219  0.00000 -0.00438
      12     C     3.24882  3.24882  0.00000 -0.49764
      13     H     0.41001  0.41001  0.00000  0.17998
      14     H     0.40998  0.40998  0.00000  0.18003
      15     H     0.41192  0.41192  0.00000  0.17617
      16     H     0.41603  0.41603  0.00000  0.16793
      17     H     0.41207  0.41207  0.00000  0.17585

   Total alpha = 28.00000, Total beta = 28.00000, Total charge = -0.00000
