                              Psi4 1.0.54 Driver

  ==> Input File <==

--------------------------------------------------------------------------
set {
	reference rhf
	basis cc-pvtz
}

set_num_threads( 4 )
memory 2 gb

molecule MOL {
0 1

H	 3.721907	 -0.933076	 -0.066039
O	 2.824271	 -1.154299	 0.131461
C	 2.076458	 -0.067370	 -0.038225
C	 0.626018	 -0.337582	 0.258241
O	 2.538288	 0.965419	 -0.381593
C	 -0.267326	 0.883135	 0.076490
H	 0.325620	 -1.161483	 -0.378003
H	 0.574537	 -0.713685	 1.275261
C	 -1.726822	 0.642622	 0.463839
H	 -0.210803	 1.217591	 -0.953497
H	 0.129920	 1.693110	 0.675679
C	 -2.169174	 1.305951	 1.767051
H	 -1.878729	 -0.428917	 0.553183
H	 -2.375533	 0.971771	 -0.345037
C	 -3.599525	 0.945633	 2.155307
H	 -1.493901	 1.009065	 2.565111
H	 -2.089052	 2.385160	 1.684316
H	 -3.887480	 1.426563	 3.082923
H	 -3.710506	 -0.125121	 2.288974
H	 -4.302590	 1.256501	 1.389660

	symmetry c1
}
set optking {
	frozen_dihedral = ("
		12 9 6 10
	")
}

ee,wfn = optimize('scf', return_wfn=True)
oeprop( wfn, 'DIPOLE', 'QUADRUPOLE', 'MULLIKEN_CHARGES')
f=open( 'psi4out.xyz', 'w' )
f.write( "20  " )
f.write( str(ee) + "\n" )
f.write( MOL.save_string_xyz() )
f.close()
--------------------------------------------------------------------------

    Molecular point group: c1
  Charge       = 0
  Multiplicity = 1
  Basis Set: CC-PVTZ
  Basis Set:
  @DF-RHF Final Energy:  -384.09108912693858
    Total Energy =                       -384.0910891269389822
    Molecular point group: c1
  Basis Set: CC-PVTZ
  Basis Set:
  Basis Set: CC-PVTZ
  Basis Set:
  @DF-RHF Final Energy:  -384.09159950229741
    Total Energy =                       -384.0915995022974130
  Basis Set: CC-PVTZ
  Basis Set:
  Basis Set: CC-PVTZ
  Basis Set:
  @DF-RHF Final Energy:  -384.09145901879265
    Total Energy =                       -384.0914590187924205
  Basis Set: CC-PVTZ
  Basis Set:
  Basis Set: CC-PVTZ
  Basis Set:
  @DF-RHF Final Energy:  -384.09167582449078
    Total Energy =                       -384.0916758244907214
  Basis Set: CC-PVTZ
  Basis Set:
  Basis Set: CC-PVTZ
  Basis Set:
  @DF-RHF Final Energy:  -384.09167571884012
    Total Energy =                       -384.0916757188401789
  Basis Set: CC-PVTZ
  Basis Set:
  Basis Set: CC-PVTZ
  Basis Set:
  @DF-RHF Final Energy:  -384.09168068924708
    Total Energy =                       -384.0916806892474824
  Basis Set: CC-PVTZ
  Basis Set:
  Charge       = 0
  Multiplicity = 1
  Basis Set: CC-PVTZ
  Basis Set:

    Orbital Energies (a.u.)
    -----------------------

    Doubly Occupied:

       1A    -20.603984     2A    -20.540660     3A    -11.373387
       4A    -11.239696     5A    -11.220441     6A    -11.218239
       7A    -11.217614     8A    -11.209649     9A     -1.477534
      10A     -1.369078    11A     -1.095766    12A     -1.043404
      13A     -0.960006    14A     -0.870448    15A     -0.809951
      16A     -0.788171    17A     -0.703772    18A     -0.692245
      19A     -0.666128    20A     -0.635746    21A     -0.604841
      22A     -0.595601    23A     -0.572770    24A     -0.559527
      25A     -0.543325    26A     -0.502310    27A     -0.501444
      28A     -0.484459    29A     -0.473540    30A     -0.468697
      31A     -0.456642    32A     -0.444586

  @DF-RHF Final Energy:  -384.09168077331844

   => Energetics <=

    Nuclear Repulsion Energy =            374.1991454261359422
    One-Electron Energy =               -1264.6943363528705504
    Two-Electron Energy =                 506.4035101534155956
    DFT Exchange-Correlation Energy =       0.0000000000000000
    Empirical Dispersion Energy =           0.0000000000000000
    PCM Polarization Energy =               0.0000000000000000
    EFP Energy =                            0.0000000000000000
    Total Energy =                       -384.0916807733190126
    Molecular point group: c1
  Basis Set: CC-PVTZ
  Basis Set:

  -Total Gradient:
     Atom            X                  Y                   Z
    ------   -----------------  -----------------  -----------------
       1        0.000013465221    -0.000005879879    -0.000000885618
       2        0.000017253348    -0.000005340208    -0.000001450064
       3       -0.000028477148     0.000022134689    -0.000002505640
       4        0.000000961700     0.000000582112     0.000010095667
       5        0.000003185023    -0.000019134589     0.000002834707
       6        0.000130845901    -0.002262985130    -0.001278282389
       7       -0.000001741015    -0.000000724984    -0.000000360119
       8        0.000002402140    -0.000001723709    -0.000001537463
       9        0.000674864428    -0.001413837193     0.001382948845
      10       -0.000284955688     0.002277294052     0.000755561572
      11       -0.000003218497     0.000003090323    -0.000002725517
      12       -0.000531728243     0.001411456860    -0.000862915951
      13        0.000001355092     0.000001107445    -0.000001608065
      14        0.000000038291    -0.000004035540    -0.000001534515
      15        0.000000308605    -0.000002584117     0.000001016701
      16       -0.000008492708     0.000002578440     0.000005581389
      17        0.000006216441    -0.000005384611    -0.000002618769
      18        0.000001610338     0.000000424896    -0.000001500590
      19        0.000001078892     0.000003273432    -0.000000435285
      20        0.000005027889    -0.000000312291     0.000000321100

  **** Optimization is complete! (in 7 steps) ****
    Final optimized geometry and variables:
    Molecular point group: c1

    Geometry (in Angstrom), charge = 0, multiplicity = 1:

    H            3.661622191658    -1.223691850788    -0.667255132621
    O            2.772838263964    -1.462240474371    -0.450654086426
    C            1.998742050043    -0.392812665693    -0.613213799196
    C            0.560372643615    -0.690683758448    -0.286576174155
    O            2.430770075242     0.647346769381    -0.973032966233
    C           -0.370461914706     0.500247685890    -0.467899782722
    H            0.257734647863    -1.526101370255    -0.909083553457
    H            0.534949400291    -1.058735155528     0.734259168648
    C           -1.826153675817     0.188845259068    -0.071371666978
    H           -0.320325864781     0.846135899826    -1.492132304973
    H            0.001668475996     1.325632057194     0.127103172353
    C           -2.252279727592     0.837884851921     1.244107898609
    H           -1.974943950392    -0.885449165209    -0.005670971764
    H           -2.495098662241     0.531639270597    -0.854027395658
    C           -3.684499869921     0.500454909579     1.642576544005
    H           -1.575352030739     0.529250368202     2.037046057995
    H           -2.144744755613     1.914924311415     1.156584775953
    H           -3.957492586088     0.984478532742     2.573118427851
    H           -3.813042722632    -0.568642288404     1.775726498369
    H           -4.388011770633     0.824226240318     0.882678634750

  Mulliken Charges: (a.u.)
   Center  Symbol    Alpha    Beta     Spin     Total
       1     H     0.38235  0.38235  0.00000  0.23530
       2     O     4.16023  4.16023  0.00000 -0.32046
       3     C     2.80626  2.80626  0.00000  0.38748
       4     C     3.10854  3.10854  0.00000 -0.21707
       5     O     4.19117  4.19117  0.00000 -0.38233
       6     C     3.09495  3.09495  0.00000 -0.18989
       7     H     0.43676  0.43676  0.00000  0.12648
       8     H     0.43756  0.43756  0.00000  0.12488
       9     C     3.09810  3.09810  0.00000 -0.19620
      10     H     0.43954  0.43954  0.00000  0.12092
      11     H     0.44601  0.44601  0.00000  0.10798
      12     C     3.08172  3.08172  0.00000 -0.16344
      13     H     0.45612  0.45612  0.00000  0.08775
      14     H     0.44589  0.44589  0.00000  0.10822
      15     C     3.15070  3.15070  0.00000 -0.30140
      16     H     0.45519  0.45519  0.00000  0.08962
      17     H     0.45154  0.45154  0.00000  0.09692
      18     H     0.44774  0.44774  0.00000  0.10452
      19     H     0.45514  0.45514  0.00000  0.08971
      20     H     0.45449  0.45449  0.00000  0.09101

   Total alpha = 32.00000, Total beta = 32.00000, Total charge = -0.00000

*** Psi4 exiting successfully. Buy a developer a beer!
