  ==> Input File <==

--------------------------------------------------------------------------
set {
	reference rhf
	basis 6-31G*
}

set_num_threads( 1 )
memory 2 gb

molecule MOL {
0 1

O	 -3.335737	 0.266654	 0.974714
C	 -2.668563	 0.129746	 -0.000350
C	 -3.078942	 0.601355	 -1.371642
O	 -1.481751	 -0.454642	 0.000584
H	 -3.255200	 1.669703	 -1.333844
H	 -2.328259	 0.379051	 -2.115613
H	 -4.014408	 0.124125	 -1.638166
C	 -0.334255	 0.388708	 0.000906
C	 0.891947	 -0.504646	 0.000751
H	 -0.365390	 1.025305	 -0.873475
H	 -0.365484	 1.024911	 0.875569
C	 2.191998	 0.301789	 0.000897
H	 0.855148	 -1.151283	 -0.871571
H	 0.855132	 -1.151660	 0.872805
C	 3.441114	 -0.581407	 0.000108
H	 2.215074	 0.954890	 -0.869742
H	 2.215465	 0.953923	 0.872248
C	 4.739576	 0.224112	 -0.001102
H	 3.419457	 -1.233487	 -0.870178
H	 3.420834	 -1.233096	 0.870717
H	 4.804918	 0.861552	 -0.878265
H	 5.606527	 -0.429058	 -0.001824
H	 4.806469	 0.861674	 0.875853

	symmetry c1
}
set optking {
	frozen_dihedral = ("
		13 9 8 10,
		2 4 8 10,
		16 12 9 13,
		19 15 12 16
	")
}

ee = energy('scf')
oeprop('DIPOLE', 'QUADRUPOLE', 'MULLIKEN_CHARGES')
f=open( 'psi4out.xyz', 'w' )
f.write( "23  " )
f.write( str(ee) + "\n" )
f.write( MOL.save_string_xyz() )
f.close()
--------------------------------------------------------------------------

    Molecular point group: c1

    Geometry (in Angstrom), charge = 0, multiplicity = 1:

       Center              X                  Y                   Z               Mass
    ------------   -----------------  -----------------  -----------------  -----------------
           O         -3.359943950905     0.217565606229     1.020607038589    15.994914619560
           C         -2.692769950905     0.080657606229     0.045543038589    12.000000000000
           C         -3.103148950905     0.552266606229    -1.325748961411    12.000000000000
           O         -1.505957950905    -0.503730393771     0.046477038589    15.994914619560
           H         -3.279406950905     1.620614606229    -1.287950961411     1.007825032070
           H         -2.352465950905     0.329962606229    -2.069719961411     1.007825032070
           H         -4.038614950905     0.075036606229    -1.592272961411     1.007825032070
           C         -0.358461950905     0.339619606229     0.046799038589    12.000000000000
           C          0.867740049095    -0.553734393771     0.046644038589    12.000000000000
           H         -0.389596950905     0.976216606229    -0.827581961411     1.007825032070
           H         -0.389690950905     0.975822606229     0.921462038589     1.007825032070
           C          2.167791049095     0.252700606229     0.046790038589    12.000000000000
           H          0.830941049095    -1.200371393771    -0.825677961411     1.007825032070
           H          0.830925049095    -1.200748393771     0.918698038589     1.007825032070
           C          3.416907049095    -0.630495393771     0.046001038589    12.000000000000
           H          2.190867049095     0.905801606229    -0.823848961411     1.007825032070
           H          2.191258049095     0.904834606229     0.918141038589     1.007825032070
           C          4.715369049095     0.175023606229     0.044791038589    12.000000000000
           H          3.395250049095    -1.282575393771    -0.824284961411     1.007825032070
           H          3.396627049095    -1.282184393771     0.916610038589     1.007825032070
           H          4.780711049095     0.812463606229    -0.832371961411     1.007825032070
           H          5.582320049095    -0.478146393771     0.044069038589     1.007825032070
           H          4.782262049095     0.812585606229     0.921746038589     1.007825032070

  Charge       = 0
  Multiplicity = 1
  Basis Set: 6-31G*
  Basis Set:

    Orbital Energies (a.u.)
    -----------------------

    Doubly Occupied:

       1A    -20.584382     2A    -20.550036     3A    -11.375022
       4A    -11.297028     5A    -11.233087     6A    -11.229821
       7A    -11.228563     8A    -11.224944     9A    -11.215781
      10A     -1.461469    11A     -1.365303    12A     -1.097757
      13A     -1.038668    14A     -1.008371    15A     -0.939732
      16A     -0.846862    17A     -0.807765    18A     -0.777727
      19A     -0.700568    20A     -0.686094    21A     -0.655600
      22A     -0.651395    23A     -0.619874    24A     -0.592466
      25A     -0.582118    26A     -0.578047    27A     -0.561572
      28A     -0.549232    29A     -0.519255    30A     -0.502719
      31A     -0.484128    32A     -0.479292    33A     -0.475165
      34A     -0.473267    35A     -0.455139    36A     -0.432829

  @DF-RHF Final Energy:  -422.95717178220826

   => Energetics <=

    Nuclear Repulsion Energy =            450.2612494397181422
    One-Electron Energy =               -1467.8747889214143925
    Two-Electron Energy =                 594.6563676994896923
    DFT Exchange-Correlation Energy =       0.0000000000000000
    Empirical Dispersion Energy =           0.0000000000000000
    PCM Polarization Energy =               0.0000000000000000
    EFP Energy =                            0.0000000000000000
    Total Energy =                       -422.9571717822066148

  Mulliken Charges: (a.u.)
   Center  Symbol    Alpha    Beta     Spin     Total
       1     O     4.25529  4.25529  0.00000 -0.51058
       2     C     2.62550  2.62550  0.00000  0.74900
       3     C     3.29568  3.29568  0.00000 -0.59135
       4     O     4.31584  4.31584  0.00000 -0.63168
       5     H     0.39909  0.39909  0.00000  0.20182
       6     H     0.40589  0.40589  0.00000  0.18822
       7     H     0.39399  0.39399  0.00000  0.21202
       8     C     2.99747  2.99747  0.00000  0.00505
       9     C     3.16305  3.16305  0.00000 -0.32611
      10     H     0.42205  0.42205  0.00000  0.15590
      11     H     0.41061  0.41061  0.00000  0.17878
      12     C     3.16147  3.16147  0.00000 -0.32294
      13     H     0.41253  0.41253  0.00000  0.17493
      14     H     0.40729  0.40729  0.00000  0.18543
      15     C     3.15185  3.15185  0.00000 -0.30370
      16     H     0.42249  0.42249  0.00000  0.15501
      17     H     0.42023  0.42023  0.00000  0.15954
      18     C     3.24003  3.24003  0.00000 -0.48005
      19     H     0.42097  0.42097  0.00000  0.15806
      20     H     0.41973  0.41973  0.00000  0.16054
      21     H     0.42131  0.42131  0.00000  0.15738
      22     H     0.41712  0.41712  0.00000  0.16577
      23     H     0.42052  0.42052  0.00000  0.15896

   Total alpha = 36.00000, Total beta = 36.00000, Total charge = -0.00000
