  ==> Input File <==

--------------------------------------------------------------------------
set {
	reference rhf
	basis cc-pvtz
}

set_num_threads( 4 )
memory 2 gb

molecule MOL {
0 1

H	 2.085576	 1.952817	 1.186225
N	 1.226154	 1.450522	 1.117792
C	 1.263552	 0.494993	 0.021953
H	 0.501718	 2.123771	 0.978994
C	 -0.016533	 -0.325589	 -0.026925
H	 2.106596	 -0.167245	 0.188420
H	 1.423816	 0.967694	 -0.948023
C	 -1.280353	 0.525521	 0.047747
H	 -0.016686	 -0.912532	 -0.939714
H	 -0.014099	 -1.037598	 0.796369
C	 -2.560681	 -0.301323	 -0.007747
H	 -1.279957	 1.241025	 -0.770189
H	 -1.270445	 1.110526	 0.963468
H	 -2.617064	 -0.872870	 -0.928010
H	 -3.439525	 0.331102	 0.043462
H	 -2.609427	 -1.002736	 0.818585

	symmetry c1
}
set optking {
	frozen_dihedral = ("
		6 3 5 9
	")
}

ee = optimize('scf')
oeprop('DIPOLE', 'QUADRUPOLE', 'MULLIKEN_CHARGES')
f=open( 'psi4out.xyz', 'w' )
f.write( "16  " )
f.write( str(ee) + "\n" )
f.write( MOL.save_string_xyz() )
f.close()
--------------------------------------------------------------------------

    Molecular point group: c1
  Charge       = 0
  Multiplicity = 1
  Basis Set: CC-PVTZ
  Basis Set:
  @DF-RHF Final Energy:  -212.39719546404368
    Total Energy =                       -212.3971954640437616
    Molecular point group: c1
  Basis Set: CC-PVTZ
  Basis Set:
  Basis Set: CC-PVTZ
  Basis Set:
  @DF-RHF Final Energy:  -212.39780329969020
    Total Energy =                       -212.3978032996901675
  Basis Set: CC-PVTZ
  Basis Set:
  Basis Set: CC-PVTZ
  Basis Set:
  @DF-RHF Final Energy:  -212.39837467886895
    Total Energy =                       -212.3983746788690041
  Basis Set: CC-PVTZ
  Basis Set:
  Basis Set: CC-PVTZ
  Basis Set:
  @DF-RHF Final Energy:  -212.39841524191195
    Total Energy =                       -212.3984152419121756
  Basis Set: CC-PVTZ
  Basis Set:
  Basis Set: CC-PVTZ
  Basis Set:
  @DF-RHF Final Energy:  -212.39842097321900
    Total Energy =                       -212.3984209732190038
  Basis Set: CC-PVTZ
  Basis Set:
  Basis Set: CC-PVTZ
  Basis Set:
  @DF-RHF Final Energy:  -212.39842198941244
    Total Energy =                       -212.3984219894123271
  Basis Set: CC-PVTZ
  Basis Set:
  Charge       = 0
  Multiplicity = 1
  Basis Set: CC-PVTZ
  Basis Set:

    Orbital Energies (a.u.)
    -----------------------

    Doubly Occupied:

       1A    -15.526470     2A    -11.238876     3A    -11.210962
       4A    -11.207697     5A    -11.204927     6A     -1.178314
       7A     -1.056995     8A     -0.961031     9A     -0.852005
      10A     -0.778798    11A     -0.665511    12A     -0.650197
      13A     -0.595961    14A     -0.586012    15A     -0.547780
      16A     -0.525516    17A     -0.514195    18A     -0.471639
      19A     -0.466759    20A     -0.452673    21A     -0.383571

  @DF-RHF Final Energy:  -212.39842203152480

   => Energetics <=

    Nuclear Repulsion Energy =            189.5033896829653202
    One-Electron Energy =                -661.6518430458849025
    Two-Electron Energy =                 259.7500313313948368
    DFT Exchange-Correlation Energy =       0.0000000000000000
    Empirical Dispersion Energy =           0.0000000000000000
    PCM Polarization Energy =               0.0000000000000000
    EFP Energy =                            0.0000000000000000
    Total Energy =                       -212.3984220315247171
    Molecular point group: c1
  Basis Set: CC-PVTZ
  Basis Set:

  -Total Gradient:
     Atom            X                  Y                   Z
    ------   -----------------  -----------------  -----------------
       1       -0.000000046642    -0.000000848585    -0.000001558683
       2        0.000000179822    -0.000005732471    -0.000002669326
       3       -0.000053531192     0.000046412300    -0.004839707874
       4       -0.000000796586    -0.000002070150    -0.000000004929
       5        0.002074456253    -0.003200744151     0.002926130646
       6       -0.000270305303     0.000453054382     0.003648360330
       7       -0.000000109729    -0.000001810794    -0.000002294170
       8        0.000002962100     0.000004393365     0.000011046642
       9       -0.001751428930     0.002709474784    -0.001733491509
      10       -0.000000920605     0.000003490891    -0.000000783073
      11       -0.000002740266    -0.000005264931    -0.000005351261
      12        0.000000787429    -0.000003345289     0.000000393631
      13        0.000000429622     0.000003569834     0.000001078320
      14       -0.000001842827    -0.000002338042    -0.000000807590
      15        0.000002374430     0.000000208542    -0.000000612087
      16        0.000000532422     0.000001550313     0.000000270934

  **** Optimization is complete! (in 7 steps) ****
    Final optimized geometry and variables:
    Molecular point group: c1

    Geometry (in Angstrom), charge = 0, multiplicity = 1:

    H            2.468581948076     1.468418952220     0.959709105722
    N            1.555875179232     1.075534114168     0.871697324677
    C            1.511183874359     0.119865618139    -0.227396196164
    H            0.925548236364     1.834167856571     0.722991111352
    C            0.227667527173    -0.705682169965    -0.219237967626
    H            2.350145854172    -0.550605261058    -0.081899032416
    H            1.632359925598     0.592369234705    -1.202348663885
    C           -1.055877609316     0.122797922315    -0.177097430817
    H            0.207343480486    -1.300749321444    -1.128917705634
    H            0.243188909074    -1.387203545709     0.624779873901
    C           -2.312436063903    -0.735150049186    -0.285463630274
    H           -1.045887158602     0.846528444895    -0.989690521218
    H           -1.094307387362     0.689460670800     0.746359714763
    H           -2.330479537801    -1.289674316642    -1.217862945085
    H           -3.208693924074    -0.126687177524    -0.245065517077
    H           -2.363946944474    -1.453484053186     0.525908405237

  Mulliken Charges: (a.u.)
   Center  Symbol    Alpha    Beta     Spin     Total
       1     H     0.42910  0.42910  0.00000  0.14181
       2     N     3.69241  3.69241  0.00000 -0.38482
       3     C     3.03887  3.03887  0.00000 -0.07775
       4     H     0.42793  0.42793  0.00000  0.14415
       5     C     3.07450  3.07450  0.00000 -0.14901
       6     H     0.45267  0.45267  0.00000  0.09466
       7     H     0.46400  0.46400  0.00000  0.07199
       8     C     3.09403  3.09403  0.00000 -0.18807
       9     H     0.45721  0.45721  0.00000  0.08558
      10     H     0.45389  0.45389  0.00000  0.09223
      11     C     3.14983  3.14983  0.00000 -0.29965
      12     H     0.45593  0.45593  0.00000  0.08814
      13     H     0.45071  0.45071  0.00000  0.09859
      14     H     0.45584  0.45584  0.00000  0.08832
      15     H     0.44919  0.44919  0.00000  0.10163
      16     H     0.45389  0.45389  0.00000  0.09221

   Total alpha = 21.00000, Total beta = 21.00000, Total charge = -0.00000
