  ==> Input File <==

--------------------------------------------------------------------------
set {
	reference rhf
	basis 6-31G*
}

set_num_threads( 4 )
memory 2 gb

molecule MOL {
0 1

H	 2.474999	 2.089865	 2.862986
N	 1.636288	 1.542562	 2.839178
C	 1.116666	 1.453402	 1.482133
H	 0.975527	 1.999374	 3.438801
C	 -0.103902	 0.540379	 1.433594
H	 1.900262	 1.037998	 0.855815
H	 0.858645	 2.426410	 1.056597
C	 -0.679275	 0.379305	 0.025956
H	 0.175988	 -0.428134	 1.837919
H	 -0.873329	 0.939536	 2.093892
C	 -1.903357	 -0.536963	 -0.023547
H	 0.090096	 -0.016796	 -0.635119
H	 -0.948384	 1.356638	 -0.371848
C	 -3.225172	 0.228290	 0.028445
H	 -1.867824	 -1.134999	 -0.931459
H	 -1.860449	 -1.239604	 0.805977
H	 -3.313397	 0.915643	 -0.808262
H	 -4.073500	 -0.448134	 -0.008893
H	 -3.306061	 0.809945	 0.942516

	symmetry c1
}
set optking {
	frozen_dihedral = ("
		12 8 11 15
	")
}

ee = optimize('scf')
oeprop('DIPOLE', 'QUADRUPOLE', 'MULLIKEN_CHARGES')
f=open( 'psi4out.xyz', 'w' )
f.write( "19  " )
f.write( str(ee) + "\n" )
f.write( MOL.save_string_xyz() )
f.close()
--------------------------------------------------------------------------

    Molecular point group: c1
  Charge       = 0
  Multiplicity = 1
  Basis Set: 6-31G*
  Basis Set:
  @DF-RHF Final Energy:  -251.34757373888652
    Total Energy =                       -251.3475737388865809
    Molecular point group: c1
  Basis Set: 6-31G*
  Basis Set:
  Basis Set: 6-31G*
  Basis Set:
  @DF-RHF Final Energy:  -251.34783941253329
    Total Energy =                       -251.3478394125332898
  Basis Set: 6-31G*
  Basis Set:
  Basis Set: 6-31G*
  Basis Set:
  @DF-RHF Final Energy:  -251.34791659175252
    Total Energy =                       -251.3479165917524369
  Basis Set: 6-31G*
  Basis Set:
  Charge       = 0
  Multiplicity = 1
  Basis Set: 6-31G*
  Basis Set:

    Orbital Energies (a.u.)
    -----------------------

    Doubly Occupied:

       1A    -15.532565     2A    -11.239705     3A    -11.213784
       4A    -11.212523     5A    -11.209863     6A    -11.208186
       7A     -1.176629     8A     -1.071563     9A     -0.996728
      10A     -0.901544    11A     -0.818723    12A     -0.784712
      13A     -0.663389    14A     -0.636534    15A     -0.610872
      16A     -0.600903    17A     -0.562075    18A     -0.557028
      19A     -0.518555    20A     -0.497400    21A     -0.492884
      22A     -0.462914    23A     -0.453484    24A     -0.449757
      25A     -0.381023

  @DF-RHF Final Energy:  -251.34791696664399

   => Energetics <=

    Nuclear Repulsion Energy =            247.6708706693584077
    One-Electron Energy =                -829.5308856071530954
    Two-Electron Energy =                 330.5120979711507516
    DFT Exchange-Correlation Energy =       0.0000000000000000
    Empirical Dispersion Energy =           0.0000000000000000
    PCM Polarization Energy =               0.0000000000000000
    EFP Energy =                            0.0000000000000000
    Total Energy =                       -251.3479169666438793
    Molecular point group: c1
  Basis Set: 6-31G*
  Basis Set:

  -Total Gradient:
     Atom            X                  Y                   Z
    ------   -----------------  -----------------  -----------------
       1       -0.000002849449     0.000015712003     0.000018111384
       2       -0.000000272211     0.000051956666     0.000022573088
       3       -0.000009311118    -0.000057276133    -0.000034360196
       4        0.000008709729     0.000005205566     0.000017991836
       5       -0.000010721163    -0.000085063983    -0.000003639250
       6       -0.000002488059    -0.000004647209     0.000005693574
       7        0.000005304522    -0.000005939458    -0.000013779247
       8        0.001836641815    -0.002917457736     0.003616359563
       9        0.000061347138     0.000012826169    -0.000021535512
      10       -0.000014023117    -0.000025512281    -0.000019583587
      11       -0.002370566492     0.003589115603    -0.002649635565
      12       -0.001226186089     0.001866552614    -0.002548815180
      13       -0.000006486444     0.000026312555    -0.000043448099
      14       -0.000004429257     0.000039448773    -0.000015747389
      15        0.001685119447    -0.002469956862     0.001664930003
      16        0.000015218532    -0.000007695439     0.000011936622
      17        0.000007063181     0.000001550967     0.000004850187
      18        0.000011682868    -0.000018794950    -0.000002419906
      19        0.000016246167    -0.000016336864    -0.000009482329

  **** Optimization is complete! (in 4 steps) ****
    Final optimized geometry and variables:
    Molecular point group: c1

    Geometry (in Angstrom), charge = 0, multiplicity = 1:

    H            2.953108427609     1.501416512762     1.881388007402
    N            2.130094480656     0.931003425433     1.852810489554
    C            1.614782700871     0.836235648305     0.494377398432
    H            1.456142209740     1.365335555908     2.454499841685
    C            0.420927762037    -0.110591364758     0.437449887981
    H            2.410466796838     0.447521907390    -0.134042626117
    H            1.329691883567     1.804357752446     0.075237037301
    C           -0.142988483508    -0.283704108125    -0.973437251902
    H            0.726251065666    -1.072902785381     0.837514735294
    H           -0.361159492990     0.263624474054     1.097565576936
    C           -1.404584033910    -1.165279428690    -1.031711227296
    H            0.622330897049    -0.691424936777    -1.629498125075
    H           -0.377887792325     0.695780066818    -1.388299675013
    C           -2.709937003434    -0.375517710759    -0.943821053728
    H           -1.394480829642    -1.763564559702    -1.938475088081
    H           -1.370827923665    -1.886199069923    -0.217401640653
    H           -2.814717470357     0.300611623330    -1.787511665875
    H           -3.570634632138    -1.037347416009    -0.940128281692
    H           -2.749981205700     0.221004799653    -0.036678858947

  Mulliken Charges: (a.u.)
   Center  Symbol    Alpha    Beta     Spin     Total
       1     H     0.33247  0.33247  0.00000  0.33506
       2     N     3.92186  3.92186  0.00000 -0.84372
       3     C     3.06061  3.06061  0.00000 -0.12121
       4     H     0.33539  0.33539  0.00000  0.32921
       5     C     3.15236  3.15236  0.00000 -0.30472
       6     H     0.42080  0.42080  0.00000  0.15839
       7     H     0.43461  0.43461  0.00000  0.13079
       8     C     3.15901  3.15901  0.00000 -0.31802
       9     H     0.41251  0.41251  0.00000  0.17498
      10     H     0.42734  0.42734  0.00000  0.14532
      11     C     3.15453  3.15453  0.00000 -0.30907
      12     H     0.42050  0.42050  0.00000  0.15899
      13     H     0.42401  0.42401  0.00000  0.15199
      14     C     3.23947  3.23947  0.00000 -0.47894
      15     H     0.42012  0.42012  0.00000  0.15976
      16     H     0.42088  0.42088  0.00000  0.15824
      17     H     0.42173  0.42173  0.00000  0.15655
      18     H     0.41971  0.41971  0.00000  0.16058
      19     H     0.42210  0.42210  0.00000  0.15581

   Total alpha = 25.00000, Total beta = 25.00000, Total charge = -0.00000
