                              Psi4 1.0.54 Driver

  ==> Input File <==

--------------------------------------------------------------------------
set {
	reference rhf
	basis cc-pvtz
}

set_num_threads( 4 )
memory 2 gb

molecule MOL {
0 1

H	 -1.835082	 1.385983	 0.000069
C	 -1.300516	 0.441153	 -0.000028
O	 -0.006604	 0.654344	 -0.000106
O	 -1.828920	 -0.612308	 0.000113
C	 0.576948	 1.187840	 1.185083
C	 2.059139	 1.342138	 0.940123
H	 0.376100	 0.515043	 2.006644
H	 0.108584	 2.135745	 1.408857
H	 2.513998	 0.386236	 0.713570
H	 2.534424	 1.747170	 1.825508
H	 2.245140	 2.015068	 0.112755

	symmetry c1
}
set optking {
	frozen_dihedral = ("
		5 3 2 4
	")
}

ee,wfn = optimize('scf', return_wfn=True)
oeprop( wfn, 'DIPOLE', 'QUADRUPOLE', 'MULLIKEN_CHARGES')
f=open( 'psi4out.xyz', 'w' )
f.write( "11  " )
f.write( str(ee) + "\n" )
f.write( MOL.save_string_xyz() )
f.close()
--------------------------------------------------------------------------

    Molecular point group: c1
  Charge       = 0
  Multiplicity = 1
  Basis Set: CC-PVTZ
  Basis Set:
  @DF-RHF Final Energy:  -266.91305328648110
    Total Energy =                       -266.9130532864810448
    Molecular point group: c1
  Basis Set: CC-PVTZ
  Basis Set:
  Basis Set: CC-PVTZ
  Basis Set:
  @DF-RHF Final Energy:  -266.91428280526100
    Total Energy =                       -266.9142828052609957
  Basis Set: CC-PVTZ
  Basis Set:
  Basis Set: CC-PVTZ
  Basis Set:
  @DF-RHF Final Energy:  -266.91426251668020
    Total Energy =                       -266.9142625166801963
  Basis Set: CC-PVTZ
  Basis Set:
  Basis Set: CC-PVTZ
  Basis Set:
  @DF-RHF Final Energy:  -266.91436455604054
    Total Energy =                       -266.9143645560404821
  Basis Set: CC-PVTZ
  Basis Set:
  Basis Set: CC-PVTZ
  Basis Set:
  @DF-RHF Final Energy:  -266.91442425493187
    Total Energy =                       -266.9144242549317596
  Basis Set: CC-PVTZ
  Basis Set:
  Basis Set: CC-PVTZ
  Basis Set:
  @DF-RHF Final Energy:  -266.91442754435354
    Total Energy =                       -266.9144275443535435
  Basis Set: CC-PVTZ
  Basis Set:
  Charge       = 0
  Multiplicity = 1
  Basis Set: CC-PVTZ
  Basis Set:

    Orbital Energies (a.u.)
    -----------------------

    Doubly Occupied:

       1A    -20.589316     2A    -20.558796     3A    -11.373755
       4A    -11.302002     5A    -11.228773     6A     -1.471476
       7A     -1.384270     8A     -1.051215     9A     -0.887236
      10A     -0.836285    11A     -0.743765    12A     -0.693905
      13A     -0.654218    14A     -0.637639    15A     -0.566556
      16A     -0.544872    17A     -0.538531    18A     -0.508796
      19A     -0.468075    20A     -0.457253

  @DF-RHF Final Energy:  -266.91442780283080

   => Energetics <=

    Nuclear Repulsion Energy =            177.0799447540749725
    One-Electron Energy =                -714.9952754084384878
    Two-Electron Energy =                 271.0009028515327145
    DFT Exchange-Correlation Energy =       0.0000000000000000
    Empirical Dispersion Energy =           0.0000000000000000
    PCM Polarization Energy =               0.0000000000000000
    EFP Energy =                            0.0000000000000000
    Total Energy =                       -266.9144278028308008
    Molecular point group: c1
  Basis Set: CC-PVTZ
  Basis Set:

  -Total Gradient:
     Atom            X                  Y                   Z
    ------   -----------------  -----------------  -----------------
       1       -0.000007663880     0.000011338489    -0.000000891946
       2        0.000133908010    -0.001703320038    -0.005750380968
       3       -0.000134746487     0.004511478448     0.000213771276
       4       -0.000072886879     0.000185255157     0.004254646417
       5        0.000105969421    -0.003029070466     0.001296691213
       6       -0.000027530332     0.000011000451    -0.000018033174
       7        0.000007077531     0.000011253595     0.000022711688
       8       -0.000000020902     0.000009685201    -0.000013325587
       9        0.000001815748    -0.000005070404    -0.000001785318
      10       -0.000015591869    -0.000006225660    -0.000000900741
      11        0.000009669634     0.000003675229    -0.000002502862

  **** Optimization is complete! (in 7 steps) ****
    Final optimized geometry and variables:
    Molecular point group: c1

    Geometry (in Angstrom), charge = 0, multiplicity = 1:

    H           -1.677166875002     0.919636467582    -0.492877307237
    C           -1.211364603657    -0.065265461923    -0.442241026910
    O            0.121658596562    -0.016753738343    -0.430430454512
    O           -1.832017792546    -1.057031596253    -0.399401279780
    C            0.716814934053     0.500639939925     0.749238580095
    C            2.201195296798     0.640664220476     0.511112111205
    H            0.515579228040    -0.180034263444     1.567705725989
    H            0.272609206742     1.462810154673     0.989447259485
    H            2.635975512127    -0.318917870335     0.264601727319
    H            2.682888752893     1.020256042928     1.404330553135
    H            2.394018685768     1.325793515664    -0.304267759798

  Mulliken Charges: (a.u.)
   Center  Symbol    Alpha    Beta     Spin     Total
       1     H     0.47019  0.47019  0.00000  0.05962
       2     C     2.83943  2.83943  0.00000  0.32114
       3     O     4.15116  4.15116  0.00000 -0.30233
       4     O     4.16299  4.16299  0.00000 -0.32599
       5     C     2.96999  2.96999  0.00000  0.06001
       6     C     3.13336  3.13336  0.00000 -0.26672
       7     H     0.45607  0.45607  0.00000  0.08786
       8     H     0.46625  0.46625  0.00000  0.06750
       9     H     0.44535  0.44535  0.00000  0.10931
      10     H     0.45572  0.45572  0.00000  0.08856
      11     H     0.44948  0.44948  0.00000  0.10104

   Total alpha = 20.00000, Total beta = 20.00000, Total charge = -0.00000

*** Psi4 exiting successfully. Buy a developer a beer!
