  ==> Input File <==

--------------------------------------------------------------------------
set {
	reference rhf
	basis 6-31G*
}

set_num_threads( 1 )
memory 2 gb

molecule MOL {
0 1

H	 2.176868	 -0.646004	 -0.217325
O	 1.337496	 -0.537251	 0.205931
C	 0.702312	 0.627605	 -0.264544
C	 -0.714990	 0.596302	 0.266387
H	 0.682322	 0.642550	 -1.350929
H	 1.215941	 1.520383	 0.085680
O	 -1.405996	 -0.526611	 -0.195820
H	 -1.257453	 1.468809	 -0.075599
H	 -0.688972	 0.618407	 1.353696
H	 -1.561030	 -0.408310	 -1.124250

	symmetry c1
}
set optking {
	frozen_dihedral = ("
		5 3 4 7
	")
}

ee = energy('scf')
oeprop('DIPOLE', 'QUADRUPOLE', 'MULLIKEN_CHARGES')
f=open( 'psi4out.xyz', 'w' )
f.write( "10  " )
f.write( str(ee) + "\n" )
f.write( MOL.save_string_xyz() )
f.close()
--------------------------------------------------------------------------

    Molecular point group: c1

    Geometry (in Angstrom), charge = 0, multiplicity = 1:

       Center              X                  Y                   Z               Mass
    ------------   -----------------  -----------------  -----------------  -----------------
           H          2.187759435286    -0.660372003345    -0.198702438348     1.007825032070
           O          1.348387435286    -0.551619003345     0.224553561652    15.994914619560
           C          0.713203435286     0.613236996655    -0.245921438348    12.000000000000
           C         -0.704098564714     0.581933996655     0.285009561652    12.000000000000
           H          0.693213435286     0.628181996655    -1.332306438348     1.007825032070
           H          1.226832435286     1.506014996655     0.104302561652     1.007825032070
           O         -1.395104564714    -0.540979003345    -0.177197438348    15.994914619560
           H         -1.246561564714     1.454440996655    -0.056976438348     1.007825032070
           H         -0.678080564714     0.604038996655     1.372318561652     1.007825032070
           H         -1.550138564714    -0.422678003345    -1.105627438348     1.007825032070

  Charge       = 0
  Multiplicity = 1
  Basis Set: 6-31G*
  Basis Set:

    Orbital Energies (a.u.)
    -----------------------

    Doubly Occupied:

       1A    -20.555053     2A    -20.551722     3A    -11.274651
       4A    -11.270197     5A     -1.373532     6A     -1.349599
       7A     -1.000898     8A     -0.842241     9A     -0.719578
      10A     -0.671500    11A     -0.659379    12A     -0.596329
      13A     -0.571141    14A     -0.532522    15A     -0.478887
      16A     -0.445858    17A     -0.434337

  @DF-RHF Final Energy:  -228.91630536360705

   => Energetics <=

    Nuclear Repulsion Energy =            134.1105279564364139
    One-Electron Energy =                -579.3989444855158126
    Two-Electron Energy =                 216.3721111654724041
    DFT Exchange-Correlation Energy =       0.0000000000000000
    Empirical Dispersion Energy =           0.0000000000000000
    PCM Polarization Energy =               0.0000000000000000
    EFP Energy =                            0.0000000000000000
    Total Energy =                       -228.9163053636070231

  Mulliken Charges: (a.u.)
   Center  Symbol    Alpha    Beta     Spin     Total
       1     H     0.28039  0.28039  0.00000  0.43922
       2     O     4.36361  4.36361  0.00000 -0.72722
       3     C     3.00572  3.00572  0.00000 -0.01144
       4     C     3.00263  3.00263  0.00000 -0.00526
       5     H     0.43644  0.43644  0.00000  0.12712
       6     H     0.42940  0.42940  0.00000  0.14121
       7     O     4.35932  4.35932  0.00000 -0.71863
       8     H     0.43138  0.43138  0.00000  0.13725
       9     H     0.40758  0.40758  0.00000  0.18484
      10     H     0.28354  0.28354  0.00000  0.43292

   Total alpha = 17.00000, Total beta = 17.00000, Total charge = -0.00000
