                              Psi4 1.0.54 Driver

  ==> Input File <==

--------------------------------------------------------------------------
set {
	reference rhf
	basis cc-pvtz
}

set_num_threads( 4 )
memory 2 gb

molecule MOL {
0 1

O	 -2.393538	 0.425728	 -1.068869
C	 -1.922978	 0.063265	 -0.045005
C	 -2.698791	 -0.558170	 1.082108
O	 -0.637375	 0.157174	 0.243149
H	 -2.584519	 0.041520	 1.975995
H	 -3.739712	 -0.624638	 0.810623
H	 -2.304878	 -1.543612	 1.294962
C	 0.162530	 -1.009518	 0.097799
C	 1.587210	 -0.664190	 0.477086
H	 0.096803	 -1.356267	 -0.924704
H	 -0.233803	 -1.785900	 0.736810
C	 2.256770	 0.342732	 -0.454344
H	 2.154716	 -1.590834	 0.479041
H	 1.598751	 -0.289614	 1.496104
C	 3.698146	 0.643205	 -0.057145
H	 2.235038	 -0.042575	 -1.470299
H	 1.683491	 1.262594	 -0.461300
H	 4.150202	 1.356548	 -0.736242
H	 4.305463	 -0.255904	 -0.069842
H	 3.749130	 1.061068	 0.942759

	symmetry c1
}
set optking {
	frozen_dihedral = ("
		1 2 4 8
	")
}

ee,wfn = optimize('scf', return_wfn=True)
oeprop( wfn, 'DIPOLE', 'QUADRUPOLE', 'MULLIKEN_CHARGES')
f=open( 'psi4out.xyz', 'w' )
f.write( "20  " )
f.write( str(ee) + "\n" )
f.write( MOL.save_string_xyz() )
f.close()
--------------------------------------------------------------------------

    Molecular point group: c1
  Charge       = 0
  Multiplicity = 1
  Basis Set: CC-PVTZ
  Basis Set:
  @DF-RHF Final Energy:  -384.06626054568562
    Total Energy =                       -384.0662605456858500
    Molecular point group: c1
  Basis Set: CC-PVTZ
  Basis Set:
  Basis Set: CC-PVTZ
  Basis Set:
  @DF-RHF Final Energy:  -383.47064077020133
    Total Energy =                       -383.4706407702011575
  Basis Set: CC-PVTZ
  Basis Set:
  Basis Set: CC-PVTZ
  Basis Set:
  @DF-RHF Final Energy:  -383.67179413710278
    Total Energy =                       -383.6717941371026654
  Basis Set: CC-PVTZ
  Basis Set:
  Basis Set: CC-PVTZ
  Basis Set:
  @DF-RHF Final Energy:  -383.82546410931042
    Total Energy =                       -383.8254641093104738
  Basis Set: CC-PVTZ
  Basis Set:
  @DF-RHF Final Energy:  -384.02481289101217
    Total Energy =                       -384.0248128910125160
  @DF-RHF Final Energy:  -384.06405880496806
    Total Energy =                       -384.0640588049681128
  @DF-RHF Final Energy:  -384.05812536380176
    Total Energy =                       -384.0581253638017643
  @DF-RHF Final Energy:  -384.06638029845107
    Total Energy =                       -384.0663802984511221
  @DF-RHF Final Energy:  -384.06767018951638
    Total Energy =                       -384.0676701895158658
  @DF-RHF Final Energy:  -384.06821785242988
    Total Energy =                       -384.0682178524294841
  @DF-RHF Final Energy:  -384.06825689561992
    Total Energy =                       -384.0682568956200384
  Basis Set: CC-PVTZ
  Basis Set:
  @DF-RHF Final Energy:  -384.06826245631970
    Total Energy =                       -384.0682624563198715
  Basis Set: CC-PVTZ
  Basis Set:
  Basis Set: CC-PVTZ
  Basis Set:
  @DF-RHF Final Energy:  -384.06826670379041
    Total Energy =                       -384.0682667037905276
  Basis Set: CC-PVTZ
  Basis Set:
  Basis Set: CC-PVTZ
  Basis Set:
  @DF-RHF Final Energy:  -384.06826931706757
    Total Energy =                       -384.0682693170674611
  Basis Set: CC-PVTZ
  Basis Set:
  Charge       = 0
  Multiplicity = 1
  Basis Set: CC-PVTZ
  Basis Set:

    Orbital Energies (a.u.)
    -----------------------

    Doubly Occupied:

       1A    -20.576272     2A    -20.544274     3A    -11.369926
       4A    -11.291712     5A    -11.236558     6A    -11.225780
       7A    -11.215886     8A    -11.209646     9A     -1.460790
      10A     -1.369595    11A     -1.084443    12A     -1.021629
      13A     -0.990864    14A     -0.882823    15A     -0.809579
      16A     -0.778824    17A     -0.698757    18A     -0.686652
      19A     -0.653000    20A     -0.637009    21A     -0.616196
      22A     -0.590707    23A     -0.581558    24A     -0.565744
      25A     -0.543255    26A     -0.527721    27A     -0.498407
      28A     -0.485201    29A     -0.482227    30A     -0.473694
      31A     -0.450099    32A     -0.439479

  @DF-RHF Final Energy:  -384.06826978241014

   => Energetics <=

    Nuclear Repulsion Energy =            384.6836746831025380
    One-Electron Energy =               -1285.5072736882716526
    Two-Electron Energy =                 516.7553292227592010
    DFT Exchange-Correlation Energy =       0.0000000000000000
    Empirical Dispersion Energy =           0.0000000000000000
    PCM Polarization Energy =               0.0000000000000000
    EFP Energy =                            0.0000000000000000
    Total Energy =                       -384.0682697824099705
    Molecular point group: c1
  Basis Set: CC-PVTZ
  Basis Set:

  -Total Gradient:
     Atom            X                  Y                   Z
    ------   -----------------  -----------------  -----------------
       1        0.000494175338     0.000815772823     0.000310022008
       2       -0.000830675996    -0.001222417136    -0.000057391784
       3        0.000005922043     0.000027129459    -0.000018418647
       4        0.000307990319     0.000548297904    -0.001026314888
       5        0.000001125926    -0.000008230671     0.000007665425
       6        0.000029082795    -0.000017942241     0.000001018684
       7       -0.000002482458    -0.000011598240     0.000011133148
       8        0.000016789075    -0.000093693634     0.000763077230
       9       -0.000026333537    -0.000021296691     0.000011393359
      10        0.000004671034    -0.000021405714    -0.000012532003
      11        0.000005349387    -0.000006950422     0.000015780149
      12        0.000021095629     0.000007042708    -0.000018800961
      13        0.000002364832     0.000007614437     0.000005643010
      14       -0.000001861983    -0.000003287457     0.000012043398
      15       -0.000028709614    -0.000008647147     0.000018057697
      16       -0.000000944397     0.000003373159    -0.000010650415
      17        0.000002361612    -0.000014880862    -0.000007409719
      18       -0.000000124307     0.000012091178    -0.000015572324
      19       -0.000003511654     0.000011998130     0.000003621384
      20        0.000003715954    -0.000002969581     0.000007635249

  **** Optimization is complete! (in 15 steps) ****
    Final optimized geometry and variables:
    Molecular point group: c1

    Geometry (in Angstrom), charge = 0, multiplicity = 1:

    O           -1.973375271486     1.668088419568    -0.353553084339
    C           -1.492056461340     1.085779715674     0.547472285589
    C           -2.092889951063     1.016564307486     1.924909076332
    O           -0.293180766927     0.481279440608     0.432111043858
    H           -1.419491609031     1.498533237678     2.623083955392
    H           -3.050817023053     1.510595431904     1.933950337275
    H           -2.206838128544    -0.012475591175     2.241173478408
    C           -0.272676210607    -0.918900556544     0.210557434908
    C            1.159198106944    -1.355888603037    -0.018262476596
    H           -0.886949942236    -1.149820173869    -0.653463038184
    H           -0.685878089783    -1.432333444873     1.072285837718
    C            1.786897230242    -0.782627714952    -1.285518900833
    H            1.165806027483    -2.441720706543    -0.063914844614
    H            1.748923442433    -1.074401150283     0.848600191488
    C            3.227298541959    -1.241481996177    -1.484420032793
    H            1.190714241502    -1.079543188627    -2.144025925716
    H            1.749615682004     0.298817734336    -1.245170334553
    H            3.647080820068    -0.823809816136    -2.391873746957
    H            3.291069921404    -2.322358481056    -1.557651600143
    H            3.855162169144    -0.929509286055    -0.656422231308

  Mulliken Charges: (a.u.)
   Center  Symbol    Alpha    Beta     Spin     Total
       1     O     4.16864  4.16864  0.00000 -0.33728
       2     C     2.80672  2.80672  0.00000  0.38655
       3     C     3.14663  3.14663  0.00000 -0.29327
       4     O     4.16999  4.16999  0.00000 -0.33998
       5     H     0.44357  0.44357  0.00000  0.11286
       6     H     0.43566  0.43566  0.00000  0.12868
       7     H     0.45084  0.45084  0.00000  0.09831
       8     C     2.99060  2.99060  0.00000  0.01879
       9     C     3.08580  3.08580  0.00000 -0.17161
      10     H     0.45582  0.45582  0.00000  0.08836
      11     H     0.45222  0.45222  0.00000  0.09556
      12     C     3.08483  3.08483  0.00000 -0.16966
      13     H     0.45324  0.45324  0.00000  0.09352
      14     H     0.45082  0.45082  0.00000  0.09837
      15     C     3.15059  3.15059  0.00000 -0.30118
      16     H     0.45483  0.45483  0.00000  0.09033
      17     H     0.44125  0.44125  0.00000  0.11749
      18     H     0.44651  0.44651  0.00000  0.10698
      19     H     0.45683  0.45683  0.00000  0.08635
      20     H     0.45459  0.45459  0.00000  0.09083

   Total alpha = 32.00000, Total beta = 32.00000, Total charge = -0.00000

*** Psi4 exiting successfully. Buy a developer a beer!
