                              Psi4 1.0.54 Driver

  ==> Input File <==

--------------------------------------------------------------------------
set {
	reference rhf
	basis cc-pvtz
}

set_num_threads( 4 )
memory 2 gb

molecule MOL {
0 1

H	 -1.544588	 -1.136992	 -3.231058
C	 -2.260108	 -0.961427	 -2.416138
C	 -1.935713	 -1.664015	 -1.125778
O	 -3.203449	 -0.272083	 -2.595637
C	 -0.501866	 -1.404904	 -0.653954
H	 -2.661209	 -1.366538	 -0.379790
H	 -2.064028	 -2.728183	 -1.311212
C	 -0.247837	 0.040196	 -0.230469
H	 -0.289975	 -2.066976	 0.178574
H	 0.192371	 -1.681617	 -1.443674
C	 1.181757	 0.280428	 0.247371
H	 -0.943252	 0.305180	 0.561547
H	 -0.466353	 0.710123	 -1.058041
C	 2.151032	 -0.811012	 -0.202643
H	 1.515939	 1.247397	 -0.115449
H	 1.191514	 0.341223	 1.333422
C	 3.580021	 -0.656538	 0.320835
H	 2.170545	 -0.847575	 -1.289412
H	 1.766632	 -1.772905	 0.124928
C	 4.327657	 0.562694	 -0.213579
H	 4.138806	 -1.549270	 0.057813
H	 3.561991	 -0.620783	 1.406976
H	 4.355973	 0.557257	 -1.298551
H	 3.867136	 1.491650	 0.100501
H	 5.351524	 0.571613	 0.142204

	symmetry c1
}
set optking {
	frozen_dihedral = ("
		12 8 11 14
	")
}

ee,wfn = optimize('scf', return_wfn=True)
oeprop( wfn, 'DIPOLE', 'QUADRUPOLE', 'MULLIKEN_CHARGES')
f=open( 'psi4out.xyz', 'w' )
f.write( "25  " )
f.write( str(ee) + "\n" )
f.write( MOL.save_string_xyz() )
f.close()
--------------------------------------------------------------------------

    Molecular point group: c1
  Charge       = 0
  Multiplicity = 1
  Basis Set: CC-PVTZ
  Basis Set:
  @DF-RHF Final Energy:  -387.24742826627966
    Total Energy =                       -387.2474282662797123
    Molecular point group: c1
  Basis Set: CC-PVTZ
  Basis Set:
  Basis Set: CC-PVTZ
  Basis Set:
  @DF-RHF Final Energy:  -386.83275906141535
    Total Energy =                       -386.8327590614151177
  Basis Set: CC-PVTZ
  Basis Set:
  Basis Set: CC-PVTZ
  Basis Set:
  @DF-RHF Final Energy:  -387.01322130196684
    Total Energy =                       -387.0132213019666096
  Basis Set: CC-PVTZ
  Basis Set:
  Basis Set: CC-PVTZ
  Basis Set:
  @DF-RHF Final Energy:  -387.20515426667549
    Total Energy =                       -387.2051542666748674
  Basis Set: CC-PVTZ
  Basis Set:
  @DF-RHF Final Energy:  -387.24856314854543
    Total Energy =                       -387.2485631485454860
  @DF-RHF Final Energy:  -387.25123587096431
    Total Energy =                       -387.2512358709641376
  @DF-RHF Final Energy:  -387.25110358783991
    Total Energy =                       -387.2511035878400207
  @DF-RHF Final Energy:  -387.24997223978687
    Total Energy =                       -387.2499722397867572
  @DF-RHF Final Energy:  -387.25163801704628
    Total Energy =                       -387.2516380170463890
  Basis Set: CC-PVTZ
  Basis Set:
  @DF-RHF Final Energy:  -387.25164355839809
    Total Energy =                       -387.2516435583983139
  Basis Set: CC-PVTZ
  Basis Set:
  Basis Set: CC-PVTZ
  Basis Set:
  @DF-RHF Final Energy:  -387.25165652661963
    Total Energy =                       -387.2516565266192856
  Basis Set: CC-PVTZ
  Basis Set:
  Basis Set: CC-PVTZ
  Basis Set:
  @DF-RHF Final Energy:  -387.25166682625598
    Total Energy =                       -387.2516668262561552
  Basis Set: CC-PVTZ
  Basis Set:
  Charge       = 0
  Multiplicity = 1
  Basis Set: CC-PVTZ
  Basis Set:

    Orbital Energies (a.u.)
    -----------------------

    Doubly Occupied:

       1A    -20.550996     2A    -11.320720     3A    -11.233282
       4A    -11.231911     5A    -11.222801     6A    -11.218349
       7A    -11.217681     8A    -11.216960     9A    -11.209388
      10A     -1.405937    11A     -1.103914    12A     -1.070271
      13A     -1.011602    14A     -0.941494    15A     -0.885997
      16A     -0.823987    17A     -0.794033    18A     -0.767223
      19A     -0.667555    20A     -0.658872    21A     -0.635670
      22A     -0.630446    23A     -0.607611    24A     -0.590531
      25A     -0.577782    26A     -0.553812    27A     -0.540289
      28A     -0.527231    29A     -0.518249    30A     -0.500416
      31A     -0.484413    32A     -0.480851    33A     -0.455037
      34A     -0.453231    35A     -0.449003    36A     -0.411105

  @DF-RHF Final Energy:  -387.25166747029652

   => Energetics <=

    Nuclear Repulsion Energy =            444.4320145441843124
    One-Electron Energy =               -1405.4300602249288659
    Two-Electron Energy =                 573.7463782104482561
    DFT Exchange-Correlation Energy =       0.0000000000000000
    Empirical Dispersion Energy =           0.0000000000000000
    PCM Polarization Energy =               0.0000000000000000
    EFP Energy =                            0.0000000000000000
    Total Energy =                       -387.2516674702962973
    Molecular point group: c1
  Basis Set: CC-PVTZ
  Basis Set:

  -Total Gradient:
     Atom            X                  Y                   Z
    ------   -----------------  -----------------  -----------------
       1        0.000027273474     0.000088683813     0.000019904534
       2        0.000074798368    -0.000391176743     0.000022382934
       3        0.000118607261    -0.000005338331    -0.000046503684
       4       -0.000148874454     0.000247303303     0.000002168829
       5       -0.000115815194     0.000084567725     0.000005908512
       6       -0.000005104960     0.000022577416    -0.000013810029
       7       -0.000026479055     0.000010404517     0.000019468136
       8       -0.000120948967     0.005104399448    -0.001424949244
       9       -0.000004127800    -0.000005209811    -0.000070541765
      10        0.000013867380     0.000013514878     0.000058903246
      11       -0.001375806321     0.001206325682    -0.004924914025
      12        0.000520233162    -0.004833985550     0.002519228325
      13        0.000005409869    -0.000011561742     0.000032413086
      14        0.001066586182    -0.001513460285     0.003790215798
      15        0.000034621047    -0.000011527116     0.000013331643
      16       -0.000013076621    -0.000039888475    -0.000025482553
      17       -0.000040852997    -0.000021294265    -0.000046942570
      18        0.000003736949     0.000015284975     0.000027170403
      19       -0.000001941953     0.000020246882    -0.000012457375
      20       -0.000012886202     0.000021369375     0.000050133740
      21        0.000004087375     0.000031731107     0.000042649162
      22       -0.000004968293    -0.000022572691    -0.000055308731
      23        0.000007900593     0.000008215286     0.000031757381
      24       -0.000016061161    -0.000010625144    -0.000020500070
      25        0.000009822319    -0.000007984252     0.000005774318

  **** Optimization is complete! (in 13 steps) ****
    Final optimized geometry and variables:
    Molecular point group: c1

    Geometry (in Angstrom), charge = 0, multiplicity = 1:

    H           -3.121715105627    -0.388945931109    -0.777384760306
    C           -3.170202707994     0.074393698690     0.217469072256
    C           -2.274849924526    -0.550990880042     1.252571253831
    O           -3.897439942562     0.986409443744     0.409967083484
    C           -0.828617280965    -0.708666485289     0.772744879018
    H           -2.335380031317     0.036337126617     2.159660348850
    H           -2.689316387303    -1.534357439693     1.464250384477
    C           -0.118799313619     0.637174521322     0.596737547242
    H           -0.296891287146    -1.314277079996     1.497525299788
    H           -0.823361594552    -1.271036312918    -0.154987927681
    C            1.368192200766     0.583250639397     0.171018146341
    H           -0.179029496139     1.136732674546     1.557702578950
    H           -0.678759917797     1.241588116935    -0.108824531157
    C            1.856648852915    -0.705579360963    -0.493227082273
    H            1.566261648939     1.427498846524    -0.477119047904
    H            1.982170885138     0.739680637651     1.053716588260
    C            3.343845711776    -0.687770547519    -0.855103719713
    H            1.280080919645    -0.906465974087    -1.393437233170
    H            1.682441986514    -1.542051666635     0.173478758937
    C            3.723623613061     0.288860533278    -1.965504573256
    H            3.631265251814    -1.688643523671    -1.161930471154
    H            3.926632053866    -0.466276558526     0.035099452148
    H            3.151207184758     0.094592010655    -2.866880359401
    H            3.550949960483     1.319191150176    -1.679911328998
    H            4.773903636153     0.193704118873    -2.216157499259

  Mulliken Charges: (a.u.)
   Center  Symbol    Alpha    Beta     Spin     Total
       1     H     0.46417  0.46417  0.00000  0.07167
       2     C     2.90544  2.90544  0.00000  0.18912
       3     C     3.08864  3.08864  0.00000 -0.17729
       4     O     4.16644  4.16644  0.00000 -0.33287
       5     C     3.12333  3.12333  0.00000 -0.24667
       6     H     0.44330  0.44330  0.00000  0.11341
       7     H     0.43966  0.43966  0.00000  0.12069
       8     C     3.09461  3.09461  0.00000 -0.18922
       9     H     0.44182  0.44182  0.00000  0.11635
      10     H     0.44553  0.44553  0.00000  0.10893
      11     C     3.09900  3.09900  0.00000 -0.19800
      12     H     0.44629  0.44629  0.00000  0.10743
      13     H     0.44589  0.44589  0.00000  0.10822
      14     C     3.10156  3.10156  0.00000 -0.20311
      15     H     0.44528  0.44528  0.00000  0.10945
      16     H     0.45154  0.45154  0.00000  0.09693
      17     C     3.09061  3.09061  0.00000 -0.18123
      18     H     0.45323  0.45323  0.00000  0.09355
      19     H     0.44502  0.44502  0.00000  0.10996
      20     C     3.15194  3.15194  0.00000 -0.30389
      21     H     0.44805  0.44805  0.00000  0.10389
      22     H     0.45424  0.45424  0.00000  0.09152
      23     H     0.45486  0.45486  0.00000  0.09028
      24     H     0.45350  0.45350  0.00000  0.09299
      25     H     0.44605  0.44605  0.00000  0.10789

   Total alpha = 36.00000, Total beta = 36.00000, Total charge = -0.00000

*** Psi4 exiting successfully. Buy a developer a beer!
