  ==> Input File <==

--------------------------------------------------------------------------
set {
	reference rhf
	basis 6-31G*
}

set_num_threads( 1 )
memory 2 gb

molecule MOL {
0 1

H	 -1.121622	 -0.764840	 -1.073301
O	 -1.422729	 -0.573567	 -0.196946
C	 -0.731407	 0.539437	 0.309156
C	 0.680193	 0.672443	 -0.251532
H	 -1.319765	 1.404033	 0.030086
H	 -0.700012	 0.506517	 1.397677
C	 1.599139	 -0.492137	 0.118598
H	 0.616402	 0.758534	 -1.332349
H	 1.107032	 1.602637	 0.117369
H	 1.239738	 -1.428634	 -0.297334
H	 2.601428	 -0.335055	 -0.265730
H	 1.674954	 -0.608418	 1.197020

	symmetry c1
}
set optking {
	frozen_dihedral = ("
		8 4 3 2
	")
}

ee = energy('scf')
oeprop('DIPOLE', 'QUADRUPOLE', 'MULLIKEN_CHARGES')
f=open( 'psi4out.xyz', 'w' )
f.write( "12  " )
f.write( str(ee) + "\n" )
f.write( MOL.save_string_xyz() )
f.close()
--------------------------------------------------------------------------

    Molecular point group: c1

    Geometry (in Angstrom), charge = 0, multiplicity = 1:

       Center              X                  Y                   Z               Mass
    ------------   -----------------  -----------------  -----------------  -----------------
           H         -1.120771054243    -0.774937228475    -1.052257749839     1.007825032070
           O         -1.421878054243    -0.583664228475    -0.175902749839    15.994914619560
           C         -0.730556054243     0.529339771525     0.330199250161    12.000000000000
           C          0.681043945757     0.662345771525    -0.230488749839    12.000000000000
           H         -1.318914054243     1.393935771525     0.051129250161     1.007825032070
           H         -0.699161054243     0.496419771525     1.418720250161     1.007825032070
           C          1.599989945757    -0.502234228475     0.139641250161    12.000000000000
           H          0.617252945757     0.748436771525    -1.311305749839     1.007825032070
           H          1.107882945757     1.592539771525     0.138412250161     1.007825032070
           H          1.240588945757    -1.438731228475    -0.276290749839     1.007825032070
           H          2.602278945757    -0.345152228475    -0.244686749839     1.007825032070
           H          1.675804945757    -0.618515228475     1.218063250161     1.007825032070

  Charge       = 0
  Multiplicity = 1
  Basis Set: 6-31G*
  Basis Set:

    Orbital Energies (a.u.)
    -----------------------

    Doubly Occupied:

       1A    -20.550659     2A    -11.267662     3A    -11.226100
       4A    -11.215600     5A     -1.359233     6A     -1.053138
       7A     -0.925267     8A     -0.818867     9A     -0.661872
      10A     -0.646420    11A     -0.637811    12A     -0.572734
      13A     -0.541341    14A     -0.513760    15A     -0.492655
      16A     -0.464708    17A     -0.429161

  @DF-RHF Final Energy:  -193.10734163000805

   => Energetics <=

    Nuclear Repulsion Energy =            133.1583161202483723
    One-Electron Energy =                -525.7774143690168103
    Two-Electron Energy =                 199.5117566187605860
    DFT Exchange-Correlation Energy =       0.0000000000000000
    Empirical Dispersion Energy =           0.0000000000000000
    PCM Polarization Energy =               0.0000000000000000
    EFP Energy =                            0.0000000000000000
    Total Energy =                       -193.1073416300078236

  Mulliken Charges: (a.u.)
   Center  Symbol    Alpha    Beta     Spin     Total
       1     H     0.28135  0.28135  0.00000  0.43731
       2     O     4.37331  4.37331  0.00000 -0.74662
       3     C     2.98294  2.98294  0.00000  0.03411
       4     C     3.18157  3.18157  0.00000 -0.36314
       5     H     0.42667  0.42667  0.00000  0.14666
       6     H     0.41980  0.41980  0.00000  0.16040
       7     C     3.23832  3.23832  0.00000 -0.47665
       8     H     0.42454  0.42454  0.00000  0.15091
       9     H     0.41733  0.41733  0.00000  0.16534
      10     H     0.41800  0.41800  0.00000  0.16399
      11     H     0.41800  0.41800  0.00000  0.16400
      12     H     0.41816  0.41816  0.00000  0.16368

   Total alpha = 17.00000, Total beta = 17.00000, Total charge = -0.00000
