  ==> Input File <==

--------------------------------------------------------------------------
set {
	reference rhf
	basis cc-pvtz
}

set_num_threads( 4 )
memory 2 gb

molecule MOL {
0 1

H	 1.612364	 0.988475	 -1.166798
O	 0.824499	 0.469296	 -1.223267
C	 0.489979	 0.078084	 0.002623
C	 -0.763662	 -0.754014	 0.000816
O	 1.123843	 0.376272	 0.955100
C	 -2.038001	 0.074705	 -0.000833
H	 -0.712945	 -1.405886	 -0.864342
H	 -0.715137	 -1.405770	 0.866182
H	 -2.087267	 0.710831	 -0.874232
H	 -2.903419	 -0.576199	 -0.001922
H	 -2.089467	 0.710909	 0.872389

	symmetry c1
}
set optking {
	frozen_dihedral = ("
		2 3 4 7
	")
}

ee = optimize('scf')
oeprop('DIPOLE', 'QUADRUPOLE', 'MULLIKEN_CHARGES')
f=open( 'psi4out.xyz', 'w' )
f.write( "11  " )
f.write( str(ee) + "\n" )
f.write( MOL.save_string_xyz() )
f.close()
--------------------------------------------------------------------------

    Molecular point group: c1
  Charge       = 0
  Multiplicity = 1
  Basis Set: CC-PVTZ
  Basis Set:
  @DF-RHF Final Energy:  -266.95098407889054
    Total Energy =                       -266.9509840788905422
    Molecular point group: c1
  Basis Set: CC-PVTZ
  Basis Set:
  Basis Set: CC-PVTZ
  Basis Set:
  @DF-RHF Final Energy:  -266.95155986887715
    Total Energy =                       -266.9515598688769842
  Basis Set: CC-PVTZ
  Basis Set:
  Basis Set: CC-PVTZ
  Basis Set:
  @DF-RHF Final Energy:  -266.95087136565650
    Total Energy =                       -266.9508713656564396
  Basis Set: CC-PVTZ
  Basis Set:
  Basis Set: CC-PVTZ
  Basis Set:
  @DF-RHF Final Energy:  -266.95163161899109
    Total Energy =                       -266.9516316189912573
  Basis Set: CC-PVTZ
  Basis Set:
  Charge       = 0
  Multiplicity = 1
  Basis Set: CC-PVTZ
  Basis Set:

    Orbital Energies (a.u.)
    -----------------------

    Doubly Occupied:

       1A    -20.605850     2A    -20.539860     3A    -11.373432
       4A    -11.241508     5A    -11.229416     6A     -1.478203
       7A     -1.369037     8A     -1.069085     9A     -0.914151
      10A     -0.818441    11A     -0.706470    12A     -0.688541
      13A     -0.643803    14A     -0.619590    15A     -0.594893
      16A     -0.545438    17A     -0.527919    18A     -0.513962
      19A     -0.480988    20A     -0.444002

  @DF-RHF Final Energy:  -266.95163506072532

   => Energetics <=

    Nuclear Repulsion Energy =            180.3814319514677891
    One-Electron Energy =                -721.8569547974964280
    Two-Electron Energy =                 274.5238877853036001
    DFT Exchange-Correlation Energy =       0.0000000000000000
    Empirical Dispersion Energy =           0.0000000000000000
    PCM Polarization Energy =               0.0000000000000000
    EFP Energy =                            0.0000000000000000
    Total Energy =                       -266.9516350607250388
    Molecular point group: c1
  Basis Set: CC-PVTZ
  Basis Set:

  -Total Gradient:
     Atom            X                  Y                   Z
    ------   -----------------  -----------------  -----------------
       1        0.000035984472     0.000061465306    -0.000053972764
       2        0.000293558074    -0.000222465624     0.000026003001
       3       -0.000410350420     0.000373094463     0.000167863081
       4        0.000234411210    -0.000473408377     0.000201492541
       5        0.000065086267     0.000002922455    -0.000166785157
       6        0.000050542857    -0.000032500229     0.000011667594
       7       -0.000185227394     0.000250996894    -0.000169966485
       8       -0.000025604613     0.000032234803    -0.000024115267
       9        0.000001365447    -0.000002850988     0.000006337945
      10       -0.000037730926    -0.000006446147     0.000002233206
      11       -0.000022034968     0.000016957445    -0.000000757693

  **** Optimization is complete! (in 5 steps) ****
    Final optimized geometry and variables:
    Molecular point group: c1

    Geometry (in Angstrom), charge = 0, multiplicity = 1:

    H            1.618108342656     0.979484896074    -1.076170557110
    O            0.853135773334     0.427857271884    -1.144021372274
    C            0.535157672745    -0.003451150766     0.073092045966
    C           -0.705947271487    -0.853694019473     0.077100747000
    O            1.168040731840     0.286940662920     1.029053490030
    C           -1.968167342419     0.013954807111     0.063272222625
    H           -0.692225707609    -1.497453172830    -0.792458890404
    H           -0.676766512100    -1.463038929565     0.968020664269
    H           -2.009671028235     0.628201568636    -0.827030276607
    H           -2.849024801925    -0.614623342282     0.080930561464
    H           -1.999764301354     0.662790240057     0.929640849125

  Mulliken Charges: (a.u.)
   Center  Symbol    Alpha    Beta     Spin     Total
       1     H     0.38013  0.38013  0.00000  0.23974
       2     O     4.16452  4.16452  0.00000 -0.32904
       3     C     2.79801  2.79801  0.00000  0.40397
       4     C     3.08956  3.08956  0.00000 -0.17911
       5     O     4.19627  4.19627  0.00000 -0.39255
       6     C     3.15038  3.15038  0.00000 -0.30077
       7     H     0.44366  0.44366  0.00000  0.11268
       8     H     0.43717  0.43717  0.00000  0.12566
       9     H     0.44723  0.44723  0.00000  0.10555
      10     H     0.44666  0.44666  0.00000  0.10667
      11     H     0.44640  0.44640  0.00000  0.10720

   Total alpha = 20.00000, Total beta = 20.00000, Total charge = -0.00000
