  ==> Input File <==

--------------------------------------------------------------------------
set {
	reference rhf
	basis 6-31G*
}

set_num_threads( 1 )
memory 2 gb

molecule MOL {
0 1

O	 0.749854	 1.307668	 -0.000040
C	 0.576249	 0.131685	 -0.000108
C	 -0.766779	 -0.556801	 -0.000461
O	 1.568443	 -0.749345	 -0.000005
C	 -1.945214	 0.412366	 0.000161
H	 -0.796911	 -1.211249	 -0.867467
H	 -0.796854	 -1.212390	 0.865687
C	 -1.584424	 1.753704	 0.636724
H	 -2.777982	 -0.036955	 0.530453
H	 -2.283259	 0.565489	 -1.019081
H	 -1.272078	 1.630177	 1.669988
H	 -2.434897	 2.427513	 0.627809
H	 -0.772677	 2.239804	 0.102639
C	 2.886820	 -0.232538	 0.000322
H	 3.059106	 0.369571	 -0.880203
H	 3.540187	 -1.091012	 0.000050
H	 3.059019	 0.368956	 0.881266

	symmetry c1
}
set optking {
	frozen_dihedral = ("
		1 2 3 6,
		14 4 2 1
	")
}

ee = energy('scf')
oeprop('DIPOLE', 'QUADRUPOLE', 'MULLIKEN_CHARGES')
f=open( 'psi4out.xyz', 'w' )
f.write( "17  " )
f.write( str(ee) + "\n" )
f.write( MOL.save_string_xyz() )
f.close()
--------------------------------------------------------------------------

    Molecular point group: c1

    Geometry (in Angstrom), charge = 0, multiplicity = 1:

       Center              X                  Y                   Z               Mass
    ------------   -----------------  -----------------  -----------------  -----------------
           O          0.499110689914     1.002842872712    -0.093752275275    15.994914619560
           C          0.325505689914    -0.173140127288    -0.093820275275    12.000000000000
           C         -1.017522310086    -0.861626127288    -0.094173275275    12.000000000000
           O          1.317699689914    -1.054170127288    -0.093717275275    15.994914619560
           C         -2.195957310086     0.107540872712    -0.093551275275    12.000000000000
           H         -1.047654310086    -1.516074127288    -0.961179275275     1.007825032070
           H         -1.047597310086    -1.517215127288     0.771974724725     1.007825032070
           C         -1.835167310086     1.448878872712     0.543011724725    12.000000000000
           H         -3.028725310086    -0.341780127288     0.436740724725     1.007825032070
           H         -2.534002310086     0.260663872712    -1.112793275275     1.007825032070
           H         -1.522821310086     1.325351872712     1.576275724725     1.007825032070
           H         -2.685640310086     2.122687872712     0.534096724725     1.007825032070
           H         -1.023420310086     1.934978872712     0.008926724725     1.007825032070
           C          2.636076689914    -0.537363127288    -0.093390275275    12.000000000000
           H          2.808362689914     0.064745872712    -0.973915275275     1.007825032070
           H          3.289443689914    -1.395837127288    -0.093662275275     1.007825032070
           H          2.808275689914     0.064130872712     0.787553724725     1.007825032070

  Charge       = 0
  Multiplicity = 1
  Basis Set: 6-31G*
  Basis Set:

    Orbital Energies (a.u.)
    -----------------------

    Doubly Occupied:

       1A    -20.606743     2A    -20.545188     3A    -11.377269
       4A    -11.283053     5A    -11.236205     6A    -11.218669
       7A    -11.182466     8A     -1.474011     9A     -1.370212
      10A     -1.077539    11A     -0.998341    12A     -0.931623
      13A     -0.824958    14A     -0.774737    15A     -0.699146
      16A     -0.686045    17A     -0.673601    18A     -0.630344
      19A     -0.614683    20A     -0.560074    21A     -0.552534
      22A     -0.530854    23A     -0.519294    24A     -0.511791
      25A     -0.476351    26A     -0.468377    27A     -0.458365
      28A     -0.407978

  @DF-RHF Final Energy:  -344.87851422907602

   => Energetics <=

    Nuclear Repulsion Energy =            324.2127418009139319
    One-Electron Energy =               -1112.8017148509543404
    Two-Electron Energy =                 443.7104588209641634
    DFT Exchange-Correlation Energy =       0.0000000000000000
    Empirical Dispersion Energy =           0.0000000000000000
    PCM Polarization Energy =               0.0000000000000000
    EFP Energy =                            0.0000000000000000
    Total Energy =                       -344.8785142290762451

  Mulliken Charges: (a.u.)
   Center  Symbol    Alpha    Beta     Spin     Total
       1     O     4.28828  4.28828  0.00000 -0.57657
       2     C     2.60268  2.60268  0.00000  0.79464
       3     C     3.21050  3.21050  0.00000 -0.42100
       4     O     4.30669  4.30669  0.00000 -0.61339
       5     C     3.15490  3.15490  0.00000 -0.30979
       6     H     0.39728  0.39728  0.00000  0.20544
       7     H     0.39830  0.39830  0.00000  0.20339
       8     C     3.25315  3.25315  0.00000 -0.50630
       9     H     0.41723  0.41723  0.00000  0.16553
      10     H     0.41768  0.41768  0.00000  0.16464
      11     H     0.42901  0.42901  0.00000  0.14199
      12     H     0.42918  0.42918  0.00000  0.14165
      13     H     0.37668  0.37668  0.00000  0.24663
      14     C     3.09277  3.09277  0.00000 -0.18553
      15     H     0.40899  0.40899  0.00000  0.18203
      16     H     0.40784  0.40784  0.00000  0.18432
      17     H     0.40883  0.40883  0.00000  0.18233

   Total alpha = 28.00000, Total beta = 28.00000, Total charge =  0.00000
