  ==> Input File <==

--------------------------------------------------------------------------
set {
	reference rhf
	basis cc-pvtz
}

set_num_threads( 4 )
memory 2 gb

molecule MOL {
0 1

H	 -1.752232	 -2.214755	 -0.011938
C	 -1.343852	 -1.221619	 -0.018179
N	 -0.058800	 -1.097635	 -0.261688
C	 -2.148159	 -0.124236	 0.219734
C	 0.449026	 0.119242	 -0.273393
H	 -3.196988	 -0.237571	 0.417076
N	 -1.655094	 1.094230	 0.209506
C	 -0.370318	 1.215445	 -0.035100
C	 1.924033	 0.265863	 -0.538106
H	 0.033214	 2.210441	 -0.046812
C	 2.219049	 0.867803	 -1.912909
H	 2.343442	 0.903146	 0.231134
H	 2.402926	 -0.702187	 -0.450037
H	 3.286622	 0.989095	 -2.052587
H	 1.750332	 1.838045	 -2.012472
H	 1.846745	 0.229617	 -2.706416

	symmetry c1
}
set optking {
	frozen_dihedral = ("
		12 9 5 3
	")
}

ee = optimize('scf')
oeprop('DIPOLE', 'QUADRUPOLE', 'MULLIKEN_CHARGES')
f=open( 'psi4out.xyz', 'w' )
f.write( "16  " )
f.write( str(ee) + "\n" )
f.write( MOL.save_string_xyz() )
f.close()
--------------------------------------------------------------------------

    Molecular point group: c1
  Charge       = 0
  Multiplicity = 1
  Basis Set: CC-PVTZ
  Basis Set:
  @DF-RHF Final Energy:  -340.87109234660807
    Total Energy =                       -340.8710923466081795
    Molecular point group: c1
  Basis Set: CC-PVTZ
  Basis Set:
  Basis Set: CC-PVTZ
  Basis Set:
  @DF-RHF Final Energy:  -340.87137281063417
    Total Energy =                       -340.8713728106341705
  Basis Set: CC-PVTZ
  Basis Set:
  Basis Set: CC-PVTZ
  Basis Set:
  @DF-RHF Final Energy:  -340.87141384270393
    Total Energy =                       -340.8714138427038165
  Basis Set: CC-PVTZ
  Basis Set:
  Basis Set: CC-PVTZ
  Basis Set:
  @DF-RHF Final Energy:  -340.87142773458902
    Total Energy =                       -340.8714277345892469
  Basis Set: CC-PVTZ
  Basis Set:
  Basis Set: CC-PVTZ
  Basis Set:
  @DF-RHF Final Energy:  -340.87143266474197
    Total Energy =                       -340.8714326647419739
  Basis Set: CC-PVTZ
  Basis Set:
  Charge       = 0
  Multiplicity = 1
  Basis Set: CC-PVTZ
  Basis Set:

    Orbital Energies (a.u.)
    -----------------------

    Doubly Occupied:

       1A    -15.580530     2A    -15.575841     3A    -11.278897
       4A    -11.270906     5A    -11.269400     6A    -11.266876
       7A    -11.231372     8A    -11.221025     9A     -1.315713
      10A     -1.223755    11A     -1.086727    12A     -1.016369
      13A     -0.905522    14A     -0.897059    15A     -0.831365
      16A     -0.717643    17A     -0.713838    18A     -0.658433
      19A     -0.613294    20A     -0.606762    21A     -0.585312
      22A     -0.564662    23A     -0.524788    24A     -0.510520
      25A     -0.504906    26A     -0.484757    27A     -0.434009
      28A     -0.397723    29A     -0.346448

  @DF-RHF Final Energy:  -340.87143305187789

   => Energetics <=

    Nuclear Repulsion Energy =            350.3046054886096385
    One-Electron Energy =               -1155.0831679210223228
    Two-Electron Energy =                 463.9071293805345704
    DFT Exchange-Correlation Energy =       0.0000000000000000
    Empirical Dispersion Energy =           0.0000000000000000
    PCM Polarization Energy =               0.0000000000000000
    EFP Energy =                            0.0000000000000000
    Total Energy =                       -340.8714330518780571
    Molecular point group: c1
  Basis Set: CC-PVTZ
  Basis Set:

  -Total Gradient:
     Atom            X                  Y                   Z
    ------   -----------------  -----------------  -----------------
       1       -0.000018324690     0.000009829316    -0.000095512104
       2       -0.000027793077    -0.000011101335     0.000236119820
       3        0.000235407322    -0.000064428630     0.001002453793
       4        0.000022907491    -0.000055086752     0.000028339823
       5       -0.000253737412    -0.000129829365    -0.001443235310
       6       -0.000010299425     0.000009879770    -0.000052834951
       7        0.000054749480     0.000029932300    -0.000020531102
       8       -0.000048696722     0.000017340915     0.000027737879
       9       -0.000197409529     0.001186710216    -0.000391588946
      10        0.000000729525    -0.000007645936     0.000001079747
      11       -0.000011780311    -0.000022971024     0.000049987208
      12        0.000229966152    -0.000962277319     0.000690188300
      13        0.000015381376    -0.000010262744     0.000008552148
      14        0.000006782613     0.000002622057    -0.000023464413
      15        0.000001713005    -0.000005434317     0.000001016339
      16        0.000000404203     0.000012722849    -0.000018308231

  **** Optimization is complete! (in 6 steps) ****
    Final optimized geometry and variables:
    Molecular point group: c1

    Geometry (in Angstrom), charge = 0, multiplicity = 1:

    H           -1.669070759866    -2.370671921944     0.328314511729
    C           -1.265953386053    -1.375743191388     0.326723548686
    N            0.026430329288    -1.248012415015     0.093516100439
    C           -2.071722492383    -0.285655622707     0.561005248345
    C            0.528867854653    -0.034025750532     0.087170952815
    H           -3.121720834724    -0.399911988226     0.749797557898
    N           -1.578733824204     0.938512106407     0.565578346893
    C           -0.297287436104     1.062251771135     0.333053916000
    C            2.001835696803     0.133696289973    -0.184299736059
    H            0.108096716914     2.057094811235     0.342509686744
    C            2.298693079666     0.711116087424    -1.569621060855
    H            2.436966181971     0.768805311849     0.580407066523
    H            2.461955017765    -0.839706703474    -0.087723784391
    H            3.367751632413     0.797686710873    -1.722279677491
    H            1.864068164373     1.696343238451    -1.692252537033
    H            1.898289487639     0.070709968942    -2.346407706943

  Mulliken Charges: (a.u.)
   Center  Symbol    Alpha    Beta     Spin     Total
       1     H     0.41366  0.41366  0.00000  0.17267
       2     C     3.04172  3.04172  0.00000 -0.08345
       3     N     3.59317  3.59317  0.00000 -0.18634
       4     C     3.04831  3.04831  0.00000 -0.09662
       5     C     2.94141  2.94141  0.00000  0.11717
       6     H     0.41345  0.41345  0.00000  0.17310
       7     N     3.58708  3.58708  0.00000 -0.17416
       8     C     3.07846  3.07846  0.00000 -0.15693
       9     C     3.08677  3.08677  0.00000 -0.17353
      10     H     0.41462  0.41462  0.00000  0.17075
      11     C     3.14445  3.14445  0.00000 -0.28890
      12     H     0.44623  0.44623  0.00000  0.10754
      13     H     0.44075  0.44075  0.00000  0.11850
      14     H     0.44762  0.44762  0.00000  0.10476
      15     H     0.45388  0.45388  0.00000  0.09224
      16     H     0.44840  0.44840  0.00000  0.10319

   Total alpha = 29.00000, Total beta = 29.00000, Total charge = -0.00000
