                              Psi4 1.0.54 Driver

  ==> Input File <==

--------------------------------------------------------------------------
set {
	reference rhf
	basis cc-pvtz
}

set_num_threads( 4 )
memory 2 gb

molecule MOL {
0 1

H	 3.721907	 -0.933076	 -0.066039
O	 2.824271	 -1.154299	 0.131461
C	 2.076458	 -0.067370	 -0.038225
C	 0.626018	 -0.337582	 0.258241
O	 2.538288	 0.965419	 -0.381593
C	 -0.267326	 0.883135	 0.076490
H	 0.325620	 -1.161483	 -0.378003
H	 0.574537	 -0.713685	 1.275261
C	 -1.726822	 0.642622	 0.463839
H	 -0.210803	 1.217591	 -0.953497
H	 0.129920	 1.693110	 0.675679
C	 -2.480891	 -0.340606	 -0.429852
H	 -2.243098	 1.597649	 0.438609
H	 -1.776542	 0.301208	 1.495542
C	 -2.546729	 -1.744285	 0.163299
H	 -3.489776	 0.028551	 -0.593886
H	 -2.012134	 -0.394067	 -1.407279
H	 -3.087843	 -2.420717	 -0.488098
H	 -3.047821	 -1.739161	 1.125369
H	 -1.552718	 -2.152944	 0.311944

	symmetry c1
}
set optking {
	frozen_dihedral = ("
		16 12 9 6
	")
}

ee,wfn = optimize('scf', return_wfn=True)
oeprop( wfn, 'DIPOLE', 'QUADRUPOLE', 'MULLIKEN_CHARGES')
f=open( 'psi4out.xyz', 'w' )
f.write( "20  " )
f.write( str(ee) + "\n" )
f.write( MOL.save_string_xyz() )
f.close()
--------------------------------------------------------------------------

    Molecular point group: c1
  Charge       = 0
  Multiplicity = 1
  Basis Set: CC-PVTZ
  Basis Set:
  @DF-RHF Final Energy:  -384.08958656688947
    Total Energy =                       -384.0895865668890110
    Molecular point group: c1
  Basis Set: CC-PVTZ
  Basis Set:
  Basis Set: CC-PVTZ
  Basis Set:
  @DF-RHF Final Energy:  -384.08991401610137
    Total Energy =                       -384.0899140161013747
  Basis Set: CC-PVTZ
  Basis Set:
  Basis Set: CC-PVTZ
  Basis Set:
  @DF-RHF Final Energy:  -384.09023927674468
    Total Energy =                       -384.0902392767442279
  Basis Set: CC-PVTZ
  Basis Set:
  Basis Set: CC-PVTZ
  Basis Set:
  @DF-RHF Final Energy:  -384.08989339652152
    Total Energy =                       -384.0898933965215747
  Basis Set: CC-PVTZ
  Basis Set:
  Basis Set: CC-PVTZ
  Basis Set:
  @DF-RHF Final Energy:  -384.09025233413638
    Total Energy =                       -384.0902523341363803
  Basis Set: CC-PVTZ
  Basis Set:
  Basis Set: CC-PVTZ
  Basis Set:
  @DF-RHF Final Energy:  -384.09025359936902
    Total Energy =                       -384.0902535993692481
  Basis Set: CC-PVTZ
  Basis Set:
  Charge       = 0
  Multiplicity = 1
  Basis Set: CC-PVTZ
  Basis Set:

    Orbital Energies (a.u.)
    -----------------------

    Doubly Occupied:

       1A    -20.603984     2A    -20.540655     3A    -11.373495
       4A    -11.238773     5A    -11.221167     6A    -11.219107
       7A    -11.218338     8A    -11.211813     9A     -1.477519
      10A     -1.369085    11A     -1.096326    12A     -1.039568
      13A     -0.964609    14A     -0.874743    15A     -0.814461
      16A     -0.777496    17A     -0.703814    18A     -0.693468
      19A     -0.667547    20A     -0.625460    21A     -0.613752
      22A     -0.598699    23A     -0.580767    24A     -0.555590
      25A     -0.536166    26A     -0.517736    27A     -0.500681
      28A     -0.484518    29A     -0.470398    30A     -0.464826
      31A     -0.457330    32A     -0.444260

  @DF-RHF Final Energy:  -384.09025413137391

   => Energetics <=

    Nuclear Repulsion Energy =            382.0876064756071742
    One-Electron Energy =               -1280.4434160440298456
    Two-Electron Energy =                 514.2655554370487607
    DFT Exchange-Correlation Energy =       0.0000000000000000
    Empirical Dispersion Energy =           0.0000000000000000
    PCM Polarization Energy =               0.0000000000000000
    EFP Energy =                            0.0000000000000000
    Total Energy =                       -384.0902541313739675
    Molecular point group: c1
  Basis Set: CC-PVTZ
  Basis Set:

  -Total Gradient:
     Atom            X                  Y                   Z
    ------   -----------------  -----------------  -----------------
       1        0.000039473163    -0.000003110864    -0.000004667391
       2       -0.000009522316    -0.000067907168     0.000016792786
       3       -0.000027740308    -0.000045480141     0.000029609200
       4        0.000009072494     0.000032416540    -0.000003872896
       5        0.000032842771     0.000128822292    -0.000044554799
       6       -0.000134209152     0.000312476257    -0.000275864482
       7       -0.000024159076    -0.000027766742    -0.000020184210
       8       -0.000004724844    -0.000015564152     0.000045272747
       9        0.000235220988    -0.000378266278     0.000300859281
      10       -0.000000972274     0.000003061932    -0.000018174297
      11        0.000024287555     0.000003639953     0.000003756778
      12       -0.000345025195    -0.000153219065     0.000476485889
      13        0.000003220203    -0.000004572029     0.000006981309
      14        0.000004024282     0.000005954096     0.000000430821
      15        0.000030140112    -0.000011590235    -0.000011594602
      16        0.000174546462     0.000244355071    -0.000509410626
      17       -0.000010251373    -0.000015322954     0.000009807832
      18        0.000003684065    -0.000003668008    -0.000004131838
      19       -0.000004828457     0.000010033109    -0.000005807272
      20        0.000004920904    -0.000014291612     0.000008265771

  **** Optimization is complete! (in 7 steps) ****
    Final optimized geometry and variables:
    Molecular point group: c1

    Geometry (in Angstrom), charge = 0, multiplicity = 1:

    H            3.561894905980    -0.730796890044    -0.059998802309
    O            2.665225817014    -0.955359366714     0.138361987566
    C            1.906782528128     0.117466988637    -0.070258638528
    C            0.457051090558    -0.160478013621     0.224901185202
    O            2.359208548929     1.144221343014    -0.443180994736
    C           -0.446280005924     1.044427751234    -0.002671594997
    H            0.170501821679    -1.004943444669    -0.390602699036
    H            0.402716324864    -0.507666176816     1.251797558176
    C           -1.912453703083     0.824025025744     0.377692120392
    H           -0.384701807154     1.341139565174    -1.043809048678
    H           -0.057809665364     1.878980736979     0.568367333904
    C           -2.667037592847    -0.237767028019    -0.444128307043
    H           -2.413778126463     1.778093880811     0.259019116532
    H           -1.982147554946     0.582226364191     1.435278671595
    C           -2.775337501805    -1.607271295025     0.224100268539
    H           -3.670941521000     0.120804076878    -0.643456897309
    H           -2.196889555735    -0.344193735116    -1.417894806915
    H           -3.313406335028    -2.304662014698    -0.407954964913
    H           -3.311553132289    -1.533972544124     1.164203533073
    H           -1.804600750670    -2.039053421913     0.435978552240

  Mulliken Charges: (a.u.)
   Center  Symbol    Alpha    Beta     Spin     Total
       1     H     0.38224  0.38224  0.00000  0.23552
       2     O     4.16036  4.16036  0.00000 -0.32072
       3     C     2.80470  2.80470  0.00000  0.39061
       4     C     3.11624  3.11624  0.00000 -0.23248
       5     O     4.19059  4.19059  0.00000 -0.38118
       6     C     3.08991  3.08991  0.00000 -0.17981
       7     H     0.43612  0.43612  0.00000  0.12776
       8     H     0.43561  0.43561  0.00000  0.12879
       9     C     3.10402  3.10402  0.00000 -0.20804
      10     H     0.44589  0.44589  0.00000  0.10822
      11     H     0.43974  0.43974  0.00000  0.12051
      12     C     3.10076  3.10076  0.00000 -0.20152
      13     H     0.44067  0.44067  0.00000  0.11866
      14     H     0.45445  0.45445  0.00000  0.09111
      15     C     3.14792  3.14792  0.00000 -0.29585
      16     H     0.44384  0.44384  0.00000  0.11231
      17     H     0.45140  0.45140  0.00000  0.09719
      18     H     0.44716  0.44716  0.00000  0.10568
      19     H     0.45340  0.45340  0.00000  0.09319
      20     H     0.45497  0.45497  0.00000  0.09006

   Total alpha = 32.00000, Total beta = 32.00000, Total charge =  0.00000

*** Psi4 exiting successfully. Buy a developer a beer!
