                              Psi4 1.0.54 Driver

  ==> Input File <==

--------------------------------------------------------------------------
set {
	reference rhf
	basis cc-pvtz
}

set_num_threads( 4 )
memory 2 gb

molecule MOL {
0 1

O	 -0.600420	 -0.016102	 -0.434086
C	 0.485107	 0.171416	 -0.000134
C	 1.606966	 -0.836201	 0.000174
O	 0.861889	 1.311786	 0.551390
C	 2.988788	 -0.202529	 -0.000115
H	 1.465110	 -1.474645	 -0.864821
H	 1.465209	 -1.474077	 0.865596
H	 3.131767	 0.419673	 -0.873407
H	 3.750876	 -0.972315	 0.000098
H	 3.131883	 0.420264	 0.872742
C	 -0.093028	 2.361257	 0.622315
C	 0.569859	 3.544420	 1.288043
H	 -0.951647	 2.019938	 1.183227
H	 -0.426378	 2.603457	 -0.376955
H	 0.900247	 3.289788	 2.287232
H	 -0.133549	 4.365696	 1.358438
H	 1.428461	 3.876684	 0.718154

	symmetry c1
}
set optking {
	frozen_dihedral = ("
		4 2 3 6
	")
}

ee,wfn = optimize('scf', return_wfn=True)
oeprop( wfn, 'DIPOLE', 'QUADRUPOLE', 'MULLIKEN_CHARGES')
f=open( 'psi4out.xyz', 'w' )
f.write( "17  " )
f.write( str(ee) + "\n" )
f.write( MOL.save_string_xyz() )
f.close()
--------------------------------------------------------------------------

    Molecular point group: c1
  Charge       = 0
  Multiplicity = 1
  Basis Set: CC-PVTZ
  Basis Set:
  @DF-RHF Final Energy:  -345.03743696719414
    Total Energy =                       -345.0374369671940258
    Molecular point group: c1
  Basis Set: CC-PVTZ
  Basis Set:
  Basis Set: CC-PVTZ
  Basis Set:
  @DF-RHF Final Energy:  -344.78647413769937
    Total Energy =                       -344.7864741376992015
  Basis Set: CC-PVTZ
  Basis Set:
  Basis Set: CC-PVTZ
  Basis Set:
  @DF-RHF Final Energy:  -344.93905125832276
    Total Energy =                       -344.9390512583229338
  Basis Set: CC-PVTZ
  Basis Set:
  Basis Set: CC-PVTZ
  Basis Set:
  @DF-RHF Final Energy:  -345.02733153363494
    Total Energy =                       -345.0273315336349924
  Basis Set: CC-PVTZ
  Basis Set:
  @DF-RHF Final Energy:  -345.03060607712308
    Total Energy =                       -345.0306060771231955
  @DF-RHF Final Energy:  -345.03774924778082
    Total Energy =                       -345.0377492477811074
  @DF-RHF Final Energy:  -345.03796362802728
    Total Energy =                       -345.0379636280272280
  @DF-RHF Final Energy:  -345.03825514958032
    Total Energy =                       -345.0382551495807775
  Basis Set: CC-PVTZ
  Basis Set:
  @DF-RHF Final Energy:  -345.03833928871023
    Total Energy =                       -345.0383392887107448
  Basis Set: CC-PVTZ
  Basis Set:
  Basis Set: CC-PVTZ
  Basis Set:
  @DF-RHF Final Energy:  -345.03834391339552
    Total Energy =                       -345.0383439133954653
  Basis Set: CC-PVTZ
  Basis Set:
  Basis Set: CC-PVTZ
  Basis Set:
  @DF-RHF Final Energy:  -345.03834813264575
    Total Energy =                       -345.0383481326458650
  Basis Set: CC-PVTZ
  Basis Set:
  Charge       = 0
  Multiplicity = 1
  Basis Set: CC-PVTZ
  Basis Set:

    Orbital Energies (a.u.)
    -----------------------

    Doubly Occupied:

       1A    -20.595817     2A    -20.529110     3A    -11.363544
       4A    -11.283355     5A    -11.235991     6A    -11.221162
       7A    -11.219454     8A     -1.471301     9A     -1.363216
      10A     -1.073138    11A     -1.031163    12A     -0.906567
      13A     -0.861175    14A     -0.780241    15A     -0.693537
      16A     -0.679969    17A     -0.675599    18A     -0.629276
      19A     -0.580374    20A     -0.573767    21A     -0.553813
      22A     -0.549579    23A     -0.523939    24A     -0.514067
      25A     -0.507244    26A     -0.492073    27A     -0.454882
      28A     -0.433981

  @DF-RHF Final Energy:  -345.03834814390819

   => Energetics <=

    Nuclear Repulsion Energy =            318.0136481026536899
    One-Electron Energy =               -1100.5093196538441589
    Two-Electron Energy =                 437.4573234072820469
    DFT Exchange-Correlation Energy =       0.0000000000000000
    Empirical Dispersion Energy =           0.0000000000000000
    PCM Polarization Energy =               0.0000000000000000
    EFP Energy =                            0.0000000000000000
    Total Energy =                       -345.0383481439084790
    Molecular point group: c1
  Basis Set: CC-PVTZ
  Basis Set:

  -Total Gradient:
     Atom            X                  Y                   Z
    ------   -----------------  -----------------  -----------------
       1       -0.000029278568    -0.000019236059     0.000022488754
       2        0.000383021298     0.000011814653     0.000579056132
       3       -0.000040663496    -0.000359291445     0.000556572327
       4       -0.000243313776     0.000036729031    -0.000516632366
       5       -0.000009557469    -0.000009445968    -0.000004751248
       6       -0.000042971984     0.000308887748    -0.000621069243
       7       -0.000004405377     0.000004596222    -0.000005021961
       8        0.000005050235    -0.000003515284     0.000005146531
       9       -0.000003613119     0.000003078139    -0.000000008337
      10        0.000004374398     0.000008522976     0.000003735683
      11       -0.000052529721     0.000028724818    -0.000065904208
      12        0.000010710936     0.000001663445     0.000022546277
      13        0.000011253107    -0.000011222906     0.000009174156
      14        0.000010995125     0.000001091690     0.000012892812
      15        0.000001027900     0.000007653053    -0.000001441520
      16        0.000004884391    -0.000001128092     0.000001758408
      17       -0.000004983880    -0.000008922023     0.000001457799

  **** Optimization is complete! (in 12 steps) ****
    Final optimized geometry and variables:
    Molecular point group: c1

    Geometry (in Angstrom), charge = 0, multiplicity = 1:

    O           -1.346941164076    -1.081868934969     0.638356809303
    C           -0.312559068293    -0.777199722909     0.147188196314
    C            0.656523090110    -1.779834792400    -0.434780011059
    O            0.117497323999     0.468158425397     0.078617459851
    C            1.608067935856    -1.254092364170    -1.502951929235
    H            0.055286943819    -2.594020044123    -0.814706707221
    H            1.217643321685    -2.175704267656     0.406255826000
    H            1.065156868509    -0.842782304580    -2.345278724534
    H            2.228736943840    -2.062636237871    -1.869244189765
    H            2.254014590867    -0.479918630546    -1.113660618305
    C           -0.707878105862     1.484406707300     0.632037716054
    C           -0.006563062886     2.807814038278     0.434449261245
    H           -0.871449043167     1.273394250361     1.679275059662
    H           -1.668460298037     1.465442445947     0.137392144035
    H            0.954407992779     2.814131037009     0.933377071100
    H           -0.611641750351     3.606609011411     0.846724943674
    H            0.152688853236     3.007213641288    -0.617816873375

  Mulliken Charges: (a.u.)
   Center  Symbol    Alpha    Beta     Spin     Total
       1     O     4.20263  4.20263  0.00000 -0.40526
       2     C     2.81159  2.81159  0.00000  0.37682
       3     C     3.08806  3.08806  0.00000 -0.17612
       4     O     4.14893  4.14893  0.00000 -0.29786
       5     C     3.14297  3.14297  0.00000 -0.28594
       6     H     0.43586  0.43586  0.00000  0.12828
       7     H     0.44500  0.44500  0.00000  0.11000
       8     H     0.45172  0.45172  0.00000  0.09657
       9     H     0.44909  0.44909  0.00000  0.10182
      10     H     0.44773  0.44773  0.00000  0.10455
      11     C     2.97887  2.97887  0.00000  0.04227
      12     C     3.13391  3.13391  0.00000 -0.26782
      13     H     0.45351  0.45351  0.00000  0.09299
      14     H     0.45367  0.45367  0.00000  0.09266
      15     H     0.45158  0.45158  0.00000  0.09683
      16     H     0.45366  0.45366  0.00000  0.09268
      17     H     0.45123  0.45123  0.00000  0.09755

   Total alpha = 28.00000, Total beta = 28.00000, Total charge =  0.00000

*** Psi4 exiting successfully. Buy a developer a beer!
