                              Psi4 1.0.54 Driver

  ==> Input File <==

--------------------------------------------------------------------------
set {
	reference rhf
	basis cc-pvtz
}

set_num_threads( 4 )
memory 2 gb

molecule MOL {
0 1

H	 -4.024094	 -0.454727	 0.000004
C	 -2.962215	 -0.297920	 0.000004
C	 -2.454736	 0.988978	 0.000025
C	 -2.105837	 -1.382632	 -0.000016
H	 -3.120052	 1.830438	 0.000041
C	 -1.090106	 1.189676	 0.000026
H	 -2.500390	 -2.380229	 -0.000033
C	 -0.739175	 -1.183302	 -0.000016
H	 -0.680214	 2.179144	 0.000042
C	 -0.227341	 0.104540	 0.000006
H	 -0.073209	 -2.021168	 -0.000032
C	 1.238974	 0.374429	 0.000004
O	 1.710398	 0.675511	 1.195452
O	 1.918468	 0.325547	 -0.970088
C	 3.094507	 0.947890	 1.293502
H	 3.672930	 0.090595	 0.983909
H	 3.279610	 1.168027	 2.332186
H	 3.359194	 1.794793	 0.678607

	symmetry c1
}
set optking {
	frozen_dihedral = ("
		13 12 10 6
	")
}

ee,wfn = optimize('scf', return_wfn=True)
oeprop( wfn, 'DIPOLE', 'QUADRUPOLE', 'MULLIKEN_CHARGES')
f=open( 'psi4out.xyz', 'w' )
f.write( "18  " )
f.write( str(ee) + "\n" )
f.write( MOL.save_string_xyz() )
f.close()
--------------------------------------------------------------------------

    Molecular point group: c1
  Charge       = 0
  Multiplicity = 1
  Basis Set: CC-PVTZ
  Basis Set:
  @DF-RHF Final Energy:  -457.49893567544024
    Total Energy =                       -457.4989356754404071
    Molecular point group: c1
  Basis Set: CC-PVTZ
  Basis Set:
  Basis Set: CC-PVTZ
  Basis Set:
  @DF-RHF Final Energy:  -457.49948052579379
    Total Energy =                       -457.4994805257937287
  Basis Set: CC-PVTZ
  Basis Set:
  Basis Set: CC-PVTZ
  Basis Set:
  @DF-RHF Final Energy:  -457.49937821848368
    Total Energy =                       -457.4993782184837983
  Basis Set: CC-PVTZ
  Basis Set:
  Basis Set: CC-PVTZ
  Basis Set:
  @DF-RHF Final Energy:  -457.49951366687566
    Total Energy =                       -457.4995136668753730
  Basis Set: CC-PVTZ
  Basis Set:
  Basis Set: CC-PVTZ
  Basis Set:
  @DF-RHF Final Energy:  -457.49954493898503
    Total Energy =                       -457.4995449389851956
  Basis Set: CC-PVTZ
  Basis Set:
  Charge       = 0
  Multiplicity = 1
  Basis Set: CC-PVTZ
  Basis Set:

    Orbital Energies (a.u.)
    -----------------------

    Doubly Occupied:

       1A    -20.604247     2A    -20.541355     3A    -11.374999
       4A    -11.282613     5A    -11.250581     6A    -11.241744
       7A    -11.241210     8A    -11.238438     9A    -11.237712
      10A    -11.236565    11A     -1.480311    12A     -1.373204
      13A     -1.171577    14A     -1.052264    15A     -1.029473
      16A     -0.982818    17A     -0.862562    18A     -0.842036
      19A     -0.784157    20A     -0.742522    21A     -0.688647
      22A     -0.685086    23A     -0.682541    24A     -0.636182
      25A     -0.632069    26A     -0.600072    27A     -0.594615
      28A     -0.552118    29A     -0.539778    30A     -0.522490
      31A     -0.512020    32A     -0.504784    33A     -0.465535
      34A     -0.450011    35A     -0.347508    36A     -0.346973

  @DF-RHF Final Energy:  -457.49954551568055

   => Energetics <=

    Nuclear Repulsion Energy =            492.5386064533603303
    One-Electron Energy =               -1599.4146667254030945
    Two-Electron Energy =                 649.3765147563625533
    DFT Exchange-Correlation Energy =       0.0000000000000000
    Empirical Dispersion Energy =           0.0000000000000000
    PCM Polarization Energy =               0.0000000000000000
    EFP Energy =                            0.0000000000000000
    Total Energy =                       -457.4995455156800972
    Molecular point group: c1
  Basis Set: CC-PVTZ
  Basis Set:

  -Total Gradient:
     Atom            X                  Y                   Z
    ------   -----------------  -----------------  -----------------
       1       -0.000007382195     0.000011634026     0.000000016104
       2        0.000024852982    -0.000119557518    -0.000009075564
       3        0.000086817239     0.000072768177     0.000003950061
       4       -0.000138821424     0.000058401438     0.000005138542
       5       -0.000010985252    -0.000006912288     0.000004528194
       6       -0.000164904024    -0.000009090031    -0.002453399583
       7        0.000010462060     0.000003811833     0.000001222401
       8        0.000126213246     0.000102484553    -0.000008119765
       9        0.000004004072    -0.000006164418    -0.000003758408
      10        0.000236181414    -0.000860186547     0.003745247292
      11       -0.000003576321    -0.000003893419    -0.000001762527
      12       -0.000487833313     0.003084145897    -0.001602306051
      13        0.000273114718    -0.002301553632     0.000393004554
      14        0.000001236328    -0.000002695933    -0.000086578695
      15        0.000076066809    -0.000039511527     0.000007730827
      16        0.000001853470     0.000034471124     0.000007081564
      17       -0.000007465008     0.000002999277    -0.000013175117
      18       -0.000019834807    -0.000021151008     0.000010256174

  **** Optimization is complete! (in 6 steps) ****
    Final optimized geometry and variables:
    Molecular point group: c1

    Geometry (in Angstrom), charge = 0, multiplicity = 1:

    H           -3.987790019595    -0.677603589194    -0.210065568107
    C           -2.928875426972    -0.505075764545    -0.190086649745
    C           -2.438556277187     0.787011379015    -0.178727899255
    C           -2.053576369631    -1.574132986235    -0.180699242353
    H           -3.114998581208     1.619774930767    -0.193489935377
    C           -1.075811427288     1.010501972114    -0.149235706718
    H           -2.430251520775    -2.578711518455    -0.194713349160
    C           -0.689787609862    -1.353448943268    -0.162537827233
    H           -0.696747232116     2.014567400559    -0.136927296436
    C           -0.201417296221    -0.060595024089    -0.134909740765
    H           -0.010079074795    -2.183744842768    -0.173711168810
    C            1.278906752171     0.172241744656    -0.166885214977
    O            1.759011293555     0.491983543956     1.018621789048
    O            1.945851543666     0.060913973896    -1.136906037963
    C            3.150387270668     0.736665134264     1.108756189013
    H            3.709093158378    -0.142997590821     0.826491017979
    H            3.340310627818     0.985494728778     2.139816091306
    H            3.434354037643     1.557015283402     0.466708546545

  Mulliken Charges: (a.u.)
   Center  Symbol    Alpha    Beta     Spin     Total
       1     H     0.42157  0.42157  0.00000  0.15687
       2     C     3.08423  3.08423  0.00000 -0.16845
       3     C     3.06521  3.06521  0.00000 -0.13042
       4     C     3.06508  3.06508  0.00000 -0.13017
       5     H     0.42182  0.42182  0.00000  0.15636
       6     C     3.09225  3.09225  0.00000 -0.18449
       7     H     0.42169  0.42169  0.00000  0.15663
       8     C     3.09154  3.09154  0.00000 -0.18309
       9     H     0.42467  0.42467  0.00000  0.15065
      10     C     2.91784  2.91784  0.00000  0.16432
      11     H     0.42264  0.42264  0.00000  0.15473
      12     C     2.84523  2.84523  0.00000  0.30953
      13     O     4.14294  4.14294  0.00000 -0.28588
      14     O     4.19611  4.19611  0.00000 -0.39222
      15     C     3.03718  3.03718  0.00000 -0.07436
      16     H     0.45306  0.45306  0.00000  0.09388
      17     H     0.44295  0.44295  0.00000  0.11409
      18     H     0.45399  0.45399  0.00000  0.09202

   Total alpha = 36.00000, Total beta = 36.00000, Total charge = -0.00000

*** Psi4 exiting successfully. Buy a developer a beer!
