                              Psi4 1.0.54 Driver

  ==> Input File <==

--------------------------------------------------------------------------
set {
	reference rhf
	basis cc-pvtz
}

set_num_threads( 4 )
memory 2 gb

molecule MOL {
0 1

H	 -2.592169	 -0.483557	 0.214112
N	 -1.838788	 0.170648	 0.216527
C	 -0.561396	 -0.500007	 0.035200
H	 -1.868247	 0.650813	 1.091689
C	 0.575129	 0.507849	 -0.048832
H	 -0.609517	 -1.061151	 -0.892172
H	 -0.343035	 -1.219991	 0.825362
C	 1.951750	 -0.141983	 0.035101
H	 0.478254	 1.061643	 -0.975981
H	 0.467676	 1.231891	 0.755499
H	 2.101550	 -0.848142	 -0.774949
H	 2.738260	 0.600794	 -0.026526
H	 2.078939	 -0.679792	 0.968824

	symmetry c1
}
set optking {
	frozen_dihedral = ("
		6 3 5 9
	")
}

ee,wfn = optimize('scf', return_wfn=True)
oeprop( wfn, 'DIPOLE', 'QUADRUPOLE', 'MULLIKEN_CHARGES')
f=open( 'psi4out.xyz', 'w' )
f.write( "13  " )
f.write( str(ee) + "\n" )
f.write( MOL.save_string_xyz() )
f.close()
--------------------------------------------------------------------------

    Molecular point group: c1
  Charge       = 0
  Multiplicity = 1
  Basis Set: CC-PVTZ
  Basis Set:
  @DF-RHF Final Energy:  -173.35195790568369
    Total Energy =                       -173.3519579056836335
    Molecular point group: c1
  Basis Set: CC-PVTZ
  Basis Set:
  Basis Set: CC-PVTZ
  Basis Set:
  @DF-RHF Final Energy:  -173.35203993318106
    Total Energy =                       -173.3520399331810324
  Basis Set: CC-PVTZ
  Basis Set:
  Basis Set: CC-PVTZ
  Basis Set:
  @DF-RHF Final Energy:  -173.35206106105750
    Total Energy =                       -173.3520610610574408
  Basis Set: CC-PVTZ
  Basis Set:
  Charge       = 0
  Multiplicity = 1
  Basis Set: CC-PVTZ
  Basis Set:

    Orbital Energies (a.u.)
    -----------------------

    Doubly Occupied:

       1A    -15.526470     2A    -11.238468     3A    -11.210559
       4A    -11.206860     5A     -1.178132     6A     -1.036075
       7A     -0.899099     8A     -0.799868     9A     -0.665904
      10A     -0.626318    11A     -0.606120    12A     -0.566513
      13A     -0.531475    14A     -0.491649    15A     -0.478408
      16A     -0.468831    17A     -0.384283

  @DF-RHF Final Energy:  -173.35206126782350

   => Energetics <=

    Nuclear Repulsion Energy =            131.9791201906967899
    One-Electron Energy =                -494.8322965283767303
    Two-Electron Energy =                 189.5011150698564393
    DFT Exchange-Correlation Energy =       0.0000000000000000
    Empirical Dispersion Energy =           0.0000000000000000
    PCM Polarization Energy =               0.0000000000000000
    EFP Energy =                            0.0000000000000000
    Total Energy =                       -173.3520612678235011
    Molecular point group: c1
  Basis Set: CC-PVTZ
  Basis Set:

  -Total Gradient:
     Atom            X                  Y                   Z
    ------   -----------------  -----------------  -----------------
       1       -0.000015990788     0.000016024935     0.000006853063
       2       -0.000012236799    -0.000053412043    -0.000024337624
       3        0.002326852996    -0.002503299074     0.000995408520
       4        0.000017734281    -0.000013101084    -0.000016790235
       5       -0.002179400262     0.002547841649     0.001224784518
       6       -0.001644334177     0.001764810710    -0.000984475058
       7        0.000003134298    -0.000003126777    -0.000009395698
       8        0.000008067826     0.000018539236     0.000010975451
       9        0.001477396981    -0.001751359948    -0.001192313689
      10        0.000000833390    -0.000012655595    -0.000005980874
      11        0.000002590380     0.000002304360     0.000002276254
      12        0.000007740514    -0.000010190040     0.000001131566
      13        0.000007611360    -0.000002376330    -0.000008136196

  **** Optimization is complete! (in 4 steps) ****
    Final optimized geometry and variables:
    Molecular point group: c1

    Geometry (in Angstrom), charge = 0, multiplicity = 1:

    H           -2.600552381008    -0.485111507071     0.086240332046
    N           -1.846421602441     0.167532298409     0.116575997629
    C           -0.563644446409    -0.503584249233    -0.029268004351
    H           -1.902926373782     0.643674500531     0.992456881307
    C            0.569707179777     0.510857899283    -0.106619664392
    H           -0.601661046205    -1.064466543631    -0.956909557294
    H           -0.361907948345    -1.214908365498     0.772190630900
    C            1.948121282428    -0.139720031573    -0.041036482581
    H            0.477957988790     1.064711018266    -1.034121176852
    H            0.467075702258     1.227106750766     0.703852334224
    H            2.080515691256    -0.858711552546    -0.843165377197
    H            2.734157715573     0.600749116376    -0.131308416475
    H            2.094034846309    -0.663779477981     0.897622165228

  Mulliken Charges: (a.u.)
   Center  Symbol    Alpha    Beta     Spin     Total
       1     H     0.42964  0.42964  0.00000  0.14072
       2     N     3.69088  3.69088  0.00000 -0.38177
       3     C     3.02310  3.02310  0.00000 -0.04619
       4     H     0.43077  0.43077  0.00000  0.13845
       5     C     3.07583  3.07583  0.00000 -0.15165
       6     H     0.45650  0.45650  0.00000  0.08700
       7     H     0.46967  0.46967  0.00000  0.06066
       8     C     3.15331  3.15331  0.00000 -0.30661
       9     H     0.45047  0.45047  0.00000  0.09907
      10     H     0.45952  0.45952  0.00000  0.08097
      11     H     0.45541  0.45541  0.00000  0.08919
      12     H     0.44797  0.44797  0.00000  0.10407
      13     H     0.45695  0.45695  0.00000  0.08610

   Total alpha = 17.00000, Total beta = 17.00000, Total charge =  0.00000

*** Psi4 exiting successfully. Buy a developer a beer!
