  ==> Input File <==

--------------------------------------------------------------------------
set {
	reference rhf
	basis 6-31G*
}

set_num_threads( 1 )
memory 2 gb

molecule MOL {
0 1

O	 1.214711	 1.306902	 -0.000018
C	 1.122059	 0.121804	 -0.000188
C	 -0.170150	 -0.657997	 -0.000612
O	 2.172624	 -0.688929	 0.000216
C	 -1.412532	 0.227344	 -0.000452
H	 -0.153702	 -1.313099	 -0.867402
H	 -0.153924	 -1.313811	 0.865644
C	 -2.336824	 -0.067674	 -1.182829
H	 -1.109823	 1.269672	 -0.021038
H	 -1.951485	 0.088359	 0.931597
C	 -3.584805	 0.814086	 -1.189704
H	 -1.791645	 0.072317	 -2.114096
H	 -2.635012	 -1.113895	 -1.158840
H	 -3.320596	 1.865966	 -1.247977
H	 -4.222563	 0.585065	 -2.037696
H	 -4.170293	 0.670822	 -0.286200
C	 3.452279	 -0.082609	 0.000533
H	 3.583069	 0.529321	 -0.880332
H	 4.163299	 -0.894027	 0.001117
H	 3.582335	 0.529955	 0.881077

	symmetry c1
}
set optking {
	frozen_dihedral = ("
		9 5 8 12,
		1 2 3 6,
		1 2 4 17
	")
}

ee = energy('scf')
oeprop('DIPOLE', 'QUADRUPOLE', 'MULLIKEN_CHARGES')
f=open( 'psi4out.xyz', 'w' )
f.write( "20  " )
f.write( str(ee) + "\n" )
f.write( MOL.save_string_xyz() )
f.close()
--------------------------------------------------------------------------

    Molecular point group: c1

    Geometry (in Angstrom), charge = 0, multiplicity = 1:

       Center              X                  Y                   Z               Mass
    ------------   -----------------  -----------------  -----------------  -----------------
           O          1.121880534224     1.176580888681     0.296806007992    15.994914619560
           C          1.029228534224    -0.008517111319     0.296636007992    12.000000000000
           C         -0.262980465776    -0.788318111319     0.296212007992    12.000000000000
           O          2.079793534224    -0.819250111319     0.297040007992    15.994914619560
           C         -1.505362465776     0.097022888681     0.296372007992    12.000000000000
           H         -0.246532465776    -1.443420111319    -0.570577992008     1.007825032070
           H         -0.246754465776    -1.444132111319     1.162468007992     1.007825032070
           C         -2.429654465776    -0.197995111319    -0.886004992008    12.000000000000
           H         -1.202653465776     1.139350888681     0.275786007992     1.007825032070
           H         -2.044315465776    -0.041962111319     1.228421007992     1.007825032070
           C         -3.677635465776     0.683764888681    -0.892879992008    12.000000000000
           H         -1.884475465776    -0.058004111319    -1.817271992008     1.007825032070
           H         -2.727842465776    -1.244216111319    -0.862015992008     1.007825032070
           H         -3.413426465776     1.735644888681    -0.951152992008     1.007825032070
           H         -4.315393465776     0.454743888681    -1.740871992008     1.007825032070
           H         -4.263123465776     0.540500888681     0.010624007992     1.007825032070
           C          3.359448534224    -0.212930111319     0.297357007992    12.000000000000
           H          3.490238534224     0.398999888681    -0.583507992008     1.007825032070
           H          4.070468534224    -1.024348111319     0.297941007992     1.007825032070
           H          3.489504534224     0.399633888681     1.177901007992     1.007825032070

  Charge       = 0
  Multiplicity = 1
  Basis Set: 6-31G*
  Basis Set:

    Orbital Energies (a.u.)
    -----------------------

    Doubly Occupied:

       1A    -20.604505     2A    -20.546576     3A    -11.373162
       4A    -11.281328     5A    -11.234167     6A    -11.218434
       7A    -11.214958     8A    -11.208552     9A     -1.470251
      10A     -1.364096    11A     -1.087477    12A     -1.023174
      13A     -0.968892    14A     -0.884412    15A     -0.804730
      16A     -0.766962    17A     -0.702865    18A     -0.681359
      19A     -0.673309    20A     -0.635437    21A     -0.603605
      22A     -0.591218    23A     -0.578701    24A     -0.545369
      25A     -0.529167    26A     -0.518480    27A     -0.506551
      28A     -0.478452    29A     -0.466422    30A     -0.463057
      31A     -0.457741    32A     -0.440121

  @DF-RHF Final Energy:  -383.93673186612619

   => Energetics <=

    Nuclear Repulsion Energy =            383.5625585712493262
    One-Electron Energy =               -1283.1516084311510895
    Two-Electron Energy =                 515.6523179937762507
    DFT Exchange-Correlation Energy =       0.0000000000000000
    Empirical Dispersion Energy =           0.0000000000000000
    PCM Polarization Energy =               0.0000000000000000
    EFP Energy =                            0.0000000000000000
    Total Energy =                       -383.9367318661254558

  Mulliken Charges: (a.u.)
   Center  Symbol    Alpha    Beta     Spin     Total
       1     O     4.28456  4.28456  0.00000 -0.56913
       2     C     2.61128  2.61128  0.00000  0.77744
       3     C     3.21072  3.21072  0.00000 -0.42143
       4     O     4.30569  4.30569  0.00000 -0.61138
       5     C     3.16160  3.16160  0.00000 -0.32319
       6     H     0.39774  0.39774  0.00000  0.20451
       7     H     0.39740  0.39740  0.00000  0.20519
       8     C     3.15610  3.15610  0.00000 -0.31219
       9     H     0.39265  0.39265  0.00000  0.21470
      10     H     0.41936  0.41936  0.00000  0.16128
      11     C     3.24037  3.24037  0.00000 -0.48074
      12     H     0.42098  0.42098  0.00000  0.15805
      13     H     0.42360  0.42360  0.00000  0.15279
      14     H     0.41856  0.41856  0.00000  0.16287
      15     H     0.41918  0.41918  0.00000  0.16164
      16     H     0.42157  0.42157  0.00000  0.15686
      17     C     3.09226  3.09226  0.00000 -0.18453
      18     H     0.40904  0.40904  0.00000  0.18191
      19     H     0.40837  0.40837  0.00000  0.18327
      20     H     0.40896  0.40896  0.00000  0.18208

   Total alpha = 32.00000, Total beta = 32.00000, Total charge = -0.00000
