  ==> Input File <==

--------------------------------------------------------------------------
set {
	reference rhf
	basis cc-pvtz
}

set_num_threads( 4 )
memory 2 gb

molecule MOL {
0 1

H	 -2.857508	 -0.542825	 1.059979
C	 -2.740299	 -0.384843	 -0.009688
O	 -1.401606	 -0.295183	 -0.366624
H	 -3.166673	 -1.227422	 -0.534239
H	 -3.289217	 0.513385	 -0.286746
C	 -0.718530	 0.758693	 0.228682
C	 0.718529	 0.758687	 -0.228709
H	 -1.176498	 1.708665	 -0.046615
H	 -0.748705	 0.673525	 1.312779
O	 1.401606	 -0.295166	 0.366636
H	 0.748705	 0.673477	 -1.312803
H	 1.176496	 1.708671	 0.046552
C	 2.714315	 -0.441627	 -0.061017
H	 2.765292	 -0.641548	 -1.128869
H	 3.305661	 0.447341	 0.150952
H	 3.143725	 -1.278506	 0.470147

	symmetry c1
}
set optking {
	frozen_dihedral = ("
		2 3 6 7
	")
}

ee = optimize('scf')
oeprop('DIPOLE', 'QUADRUPOLE', 'MULLIKEN_CHARGES')
f=open( 'psi4out.xyz', 'w' )
f.write( "16  " )
f.write( str(ee) + "\n" )
f.write( MOL.save_string_xyz() )
f.close()
--------------------------------------------------------------------------

    Molecular point group: c1
  Charge       = 0
  Multiplicity = 1
  Basis Set: CC-PVTZ
  Basis Set:
  @DF-RHF Final Energy:  -307.09791422569992
    Total Energy =                       -307.0979142257002650
    Molecular point group: c1
  Basis Set: CC-PVTZ
  Basis Set:
  Basis Set: CC-PVTZ
  Basis Set:
  @DF-RHF Final Energy:  -307.09791602175386
    Total Energy =                       -307.0979160217538038
  Basis Set: CC-PVTZ
  Basis Set:
  Charge       = 0
  Multiplicity = 1
  Basis Set: CC-PVTZ
  Basis Set:

    Orbital Energies (a.u.)
    -----------------------

    Doubly Occupied:

       1A    -20.547972     2A    -20.547780     3A    -11.267674
       4A    -11.266995     5A    -11.261811     6A    -11.261579
       7A     -1.391838     8A     -1.374692     9A     -1.032145
      10A     -0.937175    11A     -0.892507    12A     -0.824349
      13A     -0.686874    14A     -0.682577    15A     -0.659587
      16A     -0.638645    17A     -0.632025    18A     -0.598536
      19A     -0.551619    20A     -0.535499    21A     -0.509756
      22A     -0.479666    23A     -0.465281    24A     -0.423473
      25A     -0.413646

  @DF-RHF Final Energy:  -307.09791620871010

   => Energetics <=

    Nuclear Repulsion Energy =            258.8077146229836671
    One-Electron Energy =                -932.0438583447742076
    Two-Electron Energy =                 366.1382275130802100
    DFT Exchange-Correlation Energy =       0.0000000000000000
    Empirical Dispersion Energy =           0.0000000000000000
    PCM Polarization Energy =               0.0000000000000000
    EFP Energy =                            0.0000000000000000
    Total Energy =                       -307.0979162087103305
    Molecular point group: c1
  Basis Set: CC-PVTZ
  Basis Set:

  -Total Gradient:
     Atom            X                  Y                   Z
    ------   -----------------  -----------------  -----------------
       1       -0.000002701622    -0.000000366187     0.000000942580
       2       -0.000101145534     0.000264891217    -0.000346121342
       3        0.000113031297    -0.000306809767     0.000364502773
       4       -0.000001008128    -0.000002734805     0.000004405270
       5        0.000001463348     0.000003629748     0.000002901994
       6        0.000067781279    -0.000188147665     0.000271672190
       7       -0.000110645791     0.000275923562    -0.000317681943
       8        0.000004164387     0.000001224071     0.000001693250
       9       -0.000002311528    -0.000007881109    -0.000005588280
      10        0.000027442005    -0.000027010436     0.000007326787
      11       -0.000009582743    -0.000001141788     0.000015162407
      12        0.000005955656    -0.000000174571    -0.000003557531
      13        0.000005522182    -0.000013970808     0.000003160099
      14       -0.000001049061     0.000000487421     0.000001172741
      15       -0.000000292387     0.000001530382     0.000000814600
      16        0.000003376630     0.000000550735    -0.000000805593

  **** Optimization is complete! (in 3 steps) ****
    Final optimized geometry and variables:
    Molecular point group: c1

    Geometry (in Angstrom), charge = 0, multiplicity = 1:

    H           -2.854027865202    -0.547699654911     1.073993536908
    C           -2.735974721781    -0.393932283548     0.003663443201
    O           -1.397307767045    -0.305586811468    -0.353592812701
    H           -3.162372283376    -1.238619190928    -0.517432060111
    H           -3.284216711274     0.503498153549    -0.277017454905
    C           -0.714208964562     0.748507626533     0.241157333860
    C            0.723144900729     0.748703023961    -0.215336650275
    H           -1.170070151966     1.698447141453    -0.038003379708
    H           -0.747868306536     0.666170848878     1.325398738539
    O            1.406227677499    -0.306692903155     0.377251994660
    H            0.753284040239     0.666270335479    -1.299582678018
    H            1.181165422297     1.697935843579     0.062589421553
    C            2.719605816821    -0.450758890768    -0.049150974403
    H            2.772166883257    -0.646589571236    -1.117686456748
    H            3.310064917081     0.437820361157     0.166981741362
    H            3.148811689611    -1.289348491131     0.479439989726

  Mulliken Charges: (a.u.)
   Center  Symbol    Alpha    Beta     Spin     Total
       1     H     0.47060  0.47060  0.00000  0.05880
       2     C     3.03208  3.03208  0.00000 -0.06417
       3     O     4.17012  4.17012  0.00000 -0.34023
       4     H     0.44619  0.44619  0.00000  0.10762
       5     H     0.47343  0.47343  0.00000  0.05313
       6     C     2.96046  2.96046  0.00000  0.07908
       7     C     2.96040  2.96040  0.00000  0.07920
       8     H     0.47709  0.47709  0.00000  0.04581
       9     H     0.47004  0.47004  0.00000  0.05991
      10     O     4.17030  4.17030  0.00000 -0.34060
      11     H     0.47078  0.47078  0.00000  0.05843
      12     H     0.47623  0.47623  0.00000  0.04754
      13     C     3.03202  3.03202  0.00000 -0.06405
      14     H     0.47024  0.47024  0.00000  0.05952
      15     H     0.47372  0.47372  0.00000  0.05255
      16     H     0.44627  0.44627  0.00000  0.10746

   Total alpha = 25.00000, Total beta = 25.00000, Total charge = -0.00000
