  ==> Input File <==

--------------------------------------------------------------------------
set {
	reference rhf
	basis 6-31G*
}

set_num_threads( 4 )
memory 2 gb

molecule MOL {
0 1

O	 -2.042549	 -1.228399	 -0.269030
C	 -1.653912	 -0.146171	 0.050137
C	 -0.332303	 0.024011	 0.778412
C	 -2.438579	 1.106236	 -0.272369
C	 0.789465	 -0.750578	 0.068821
H	 -0.068450	 1.075605	 0.848514
H	 -0.458948	 -0.361130	 1.784170
C	 2.133867	 -0.630817	 0.788036
H	 0.896210	 -0.390169	 -0.952841
H	 0.500001	 -1.795011	 0.001652
C	 3.249243	 -1.407465	 0.089495
H	 2.413292	 0.418069	 0.860040
H	 2.026781	 -0.990432	 1.808712
H	 3.403555	 -1.047395	 -0.923713
H	 3.012534	 -2.465797	 0.031655
H	 4.189251	 -1.307024	 0.622714
H	 -3.277823	 0.863061	 -0.908988
H	 -1.806773	 1.843019	 -0.759671
H	 -2.802853	 1.554979	 0.648059

	symmetry c1
}
set optking {
	frozen_dihedral = ("
		5 3 2 4
	")
}

ee = optimize('scf')
oeprop('DIPOLE', 'QUADRUPOLE', 'MULLIKEN_CHARGES')
f=open( 'psi4out.xyz', 'w' )
f.write( "19  " )
f.write( str(ee) + "\n" )
f.write( MOL.save_string_xyz() )
f.close()
--------------------------------------------------------------------------

    Molecular point group: c1
  Charge       = 0
  Multiplicity = 1
  Basis Set: 6-31G*
  Basis Set:
  @DF-RHF Final Energy:  -309.06499867371150
    Total Energy =                       -309.0649986737115000
    Molecular point group: c1
  Basis Set: 6-31G*
  Basis Set:
  Basis Set: 6-31G*
  Basis Set:
  @DF-RHF Final Energy:  -309.06357452728901
    Total Energy =                       -309.0635745272887789
  Basis Set: 6-31G*
  Basis Set:
  Basis Set: 6-31G*
  Basis Set:
  @DF-RHF Final Energy:  -309.06530263552958
    Total Energy =                       -309.0653026355291217
  Basis Set: 6-31G*
  Basis Set:
  Basis Set: 6-31G*
  Basis Set:
  @DF-RHF Final Energy:  -309.06530017993441
    Total Energy =                       -309.0653001799340700
  Basis Set: 6-31G*
  Basis Set:
  Basis Set: 6-31G*
  Basis Set:
  @DF-RHF Final Energy:  -309.06450337927936
    Total Energy =                       -309.0645033792794720
  Basis Set: 6-31G*
  Basis Set:
  Basis Set: 6-31G*
  Basis Set:
  @DF-RHF Final Energy:  -309.06541808073803
    Total Energy =                       -309.0654180807383113
  Basis Set: 6-31G*
  Basis Set:
  Basis Set: 6-31G*
  Basis Set:
  @DF-RHF Final Energy:  -309.06542628741340
    Total Energy =                       -309.0654262874136862
  Basis Set: 6-31G*
  Basis Set:
  Charge       = 0
  Multiplicity = 1
  Basis Set: 6-31G*
  Basis Set:

    Orbital Energies (a.u.)
    -----------------------

    Doubly Occupied:

       1A    -20.548338     2A    -11.325945     3A    -11.230565
       4A    -11.228845     5A    -11.223306     6A    -11.221475
       7A    -11.212034     8A     -1.394390     9A     -1.087389
      10A     -1.028910    11A     -0.984359    12A     -0.887314
      13A     -0.803297    14A     -0.732069    15A     -0.660720
      16A     -0.646621    17A     -0.622798    18A     -0.611663
      19A     -0.582093    20A     -0.572649    21A     -0.553078
      22A     -0.534018    23A     -0.514522    24A     -0.491519
      25A     -0.477641    26A     -0.473229    27A     -0.467092
      28A     -0.397935

  @DF-RHF Final Energy:  -309.06542664324365

   => Energetics <=

    Nuclear Repulsion Energy =            300.8646912377490708
    One-Electron Energy =               -1014.8326099808846266
    Two-Electron Energy =                 404.9024920998917878
    DFT Exchange-Correlation Energy =       0.0000000000000000
    Empirical Dispersion Energy =           0.0000000000000000
    PCM Polarization Energy =               0.0000000000000000
    EFP Energy =                            0.0000000000000000
    Total Energy =                       -309.0654266432437680
    Molecular point group: c1
  Basis Set: 6-31G*
  Basis Set:

  -Total Gradient:
     Atom            X                  Y                   Z
    ------   -----------------  -----------------  -----------------
       1        0.000013247123    -0.000002634339     0.000015364829
       2       -0.000436764737     0.000135056793     0.000760052279
       3       -0.000023675612    -0.000751609353     0.000209639172
       4        0.000346954863     0.000055079935    -0.000663168060
       5        0.000116832113     0.000554612930    -0.000358219574
       6        0.000001560481    -0.000009278501     0.000000907670
       7       -0.000012118519     0.000004114999     0.000013093600
       8        0.000008383807     0.000020983811    -0.000009797153
       9        0.000014578674    -0.000008939259    -0.000007136706
      10       -0.000007907294     0.000004328037     0.000008005062
      11       -0.000004145089    -0.000010358614    -0.000001629075
      12       -0.000007895027     0.000004649858     0.000000230519
      13       -0.000001768819    -0.000000456969    -0.000002940535
      14        0.000006012829     0.000004093264     0.000001513908
      15       -0.000000947345     0.000001503255    -0.000008440257
      16       -0.000003319448    -0.000005054982     0.000004728392
      17       -0.000002813582    -0.000001461191     0.000011677540
      18       -0.000002397949     0.000007803623     0.000012859725
      19       -0.000003816471    -0.000002433296     0.000013258667

  **** Optimization is complete! (in 8 steps) ****
    Final optimized geometry and variables:
    Molecular point group: c1

    Geometry (in Angstrom), charge = 0, multiplicity = 1:

    O           -2.027877231125    -0.789565819934    -0.433970583218
    C           -1.624857262326     0.291185885882    -0.128138055585
    C           -0.291028052652     0.455239246033     0.585444286964
    C           -2.410403781360     1.546084864479    -0.433489743287
    C            0.841808641143    -0.303140153815    -0.113801216595
    H           -0.041014248655     1.507878831258     0.680525310866
    H           -0.422521265476     0.069717066785     1.594361591284
    C            2.169448435325    -0.206134581463     0.638676620914
    H            0.968627407423     0.088448241117    -1.121303043403
    H            0.549902409328    -1.341830483335    -0.220794551476
    C            3.301055399457    -0.957503758560    -0.061538272752
    H            2.447653759967     0.839452377790     0.754021826333
    H            2.041986444947    -0.601179336334     1.644274323840
    H            3.477963439765    -0.560882116919    -1.057229819107
    H            3.065390587876    -2.012704254395    -0.163729053229
    H            4.228919061188    -0.877435577985     0.496057635719
    H           -3.351613170088     1.290492459189    -0.899803707515
    H           -1.836353226825     2.187555860569    -1.096886264921
    H           -2.592298089807     2.109625928748     0.477479140067

  Mulliken Charges: (a.u.)
   Center  Symbol    Alpha    Beta     Spin     Total
       1     O     4.26333  4.26333  0.00000 -0.52667
       2     C     2.73473  2.73473  0.00000  0.53055
       3     C     3.20568  3.20568  0.00000 -0.41135
       4     C     3.28892  3.28892  0.00000 -0.57785
       5     C     3.15499  3.15499  0.00000 -0.30998
       6     H     0.41590  0.41590  0.00000  0.16821
       7     H     0.40286  0.40286  0.00000  0.19428
       8     C     3.15275  3.15275  0.00000 -0.30551
       9     H     0.42095  0.42095  0.00000  0.15810
      10     H     0.40292  0.40292  0.00000  0.19415
      11     C     3.23986  3.23986  0.00000 -0.47972
      12     H     0.42364  0.42364  0.00000  0.15272
      13     H     0.42134  0.42134  0.00000  0.15732
      14     H     0.42107  0.42107  0.00000  0.15787
      15     H     0.41892  0.41892  0.00000  0.16217
      16     H     0.41845  0.41845  0.00000  0.16310
      17     H     0.39720  0.39720  0.00000  0.20561
      18     H     0.40792  0.40792  0.00000  0.18416
      19     H     0.40858  0.40858  0.00000  0.18285

   Total alpha = 28.00000, Total beta = 28.00000, Total charge = -0.00000
