  ==> Input File <==

--------------------------------------------------------------------------
set {
	reference rhf
	basis 6-31G*
}

set_num_threads( 4 )
memory 2 gb

molecule MOL {
0 1

H	 3.729471	 -0.928294	 -0.070608
O	 2.826016	 -1.159218	 0.122261
C	 2.077727	 -0.067559	 -0.035091
C	 0.624473	 -0.343591	 0.253101
O	 2.542965	 0.974826	 -0.363729
C	 -0.265902	 0.883932	 0.072916
H	 0.324016	 -1.163849	 -0.390541
H	 0.565024	 -0.726111	 1.268924
C	 -1.728698	 0.646073	 0.462102
H	 -0.209144	 1.219470	 -0.958188
H	 0.135059	 1.692851	 0.673903
C	 -2.049560	 0.877225	 1.941485
H	 -1.982156	 -0.380824	 0.209112
H	 -2.374321	 1.275045	 -0.149226
C	 -3.495457	 0.525153	 2.290633
H	 -1.375183	 0.279832	 2.551716
H	 -1.865691	 1.914803	 2.207953
H	 -3.699267	 0.698564	 3.342633
H	 -3.706207	 -0.519411	 2.080161
H	 -4.194739	 1.125100	 1.715043

	symmetry c1
}
set optking {
	frozen_dihedral = ("
		12 9 6 10
	")
}

ee = optimize('scf')
oeprop('DIPOLE', 'QUADRUPOLE', 'MULLIKEN_CHARGES')
f=open( 'psi4out.xyz', 'w' )
f.write( "20  " )
f.write( str(ee) + "\n" )
f.write( MOL.save_string_xyz() )
f.close()
--------------------------------------------------------------------------

    Molecular point group: c1
  Charge       = 0
  Multiplicity = 1
  Basis Set: 6-31G*
  Basis Set:
  @DF-RHF Final Energy:  -383.94696519078491
    Total Energy =                       -383.9469651907849652
    Molecular point group: c1
  Basis Set: 6-31G*
  Basis Set:
  Basis Set: 6-31G*
  Basis Set:
  @DF-RHF Final Energy:  -383.94739765829559
    Total Energy =                       -383.9473976582953583
  Basis Set: 6-31G*
  Basis Set:
  Basis Set: 6-31G*
  Basis Set:
  @DF-RHF Final Energy:  -383.94711168379712
    Total Energy =                       -383.9471116837969475
  Basis Set: 6-31G*
  Basis Set:
  Basis Set: 6-31G*
  Basis Set:
  @DF-RHF Final Energy:  -383.94746395617142
    Total Energy =                       -383.9474639561714184
  Basis Set: 6-31G*
  Basis Set:
  Basis Set: 6-31G*
  Basis Set:
  @DF-RHF Final Energy:  -383.94744527316340
    Total Energy =                       -383.9474452731629412
  Basis Set: 6-31G*
  Basis Set:
  Basis Set: 6-31G*
  Basis Set:
  @DF-RHF Final Energy:  -383.94747299800258
    Total Energy =                       -383.9474729980024676
  Basis Set: 6-31G*
  Basis Set:
  Charge       = 0
  Multiplicity = 1
  Basis Set: 6-31G*
  Basis Set:

    Orbital Energies (a.u.)
    -----------------------

    Doubly Occupied:

       1A    -20.612636     2A    -20.551744     3A    -11.381225
       4A    -11.240801     5A    -11.222587     6A    -11.220390
       7A    -11.219794     8A    -11.211948     9A     -1.474681
      10A     -1.365752    11A     -1.095525    12A     -1.041516
      13A     -0.960061    14A     -0.868739    15A     -0.811943
      16A     -0.782871    17A     -0.699613    18A     -0.690085
      19A     -0.662808    20A     -0.634396    21A     -0.604344
      22A     -0.593016    23A     -0.573294    24A     -0.557077
      25A     -0.541144    26A     -0.507356    27A     -0.498054
      28A     -0.479311    29A     -0.472464    30A     -0.467741
      31A     -0.455901    32A     -0.443013

  @DF-RHF Final Energy:  -383.94747307465894

   => Energetics <=

    Nuclear Repulsion Energy =            375.0037764468262935
    One-Electron Energy =               -1266.0188319174530989
    Two-Electron Energy =                 507.0675823959677473
    DFT Exchange-Correlation Energy =       0.0000000000000000
    Empirical Dispersion Energy =           0.0000000000000000
    PCM Polarization Energy =               0.0000000000000000
    EFP Energy =                            0.0000000000000000
    Total Energy =                       -383.9474730746590012
    Molecular point group: c1
  Basis Set: 6-31G*
  Basis Set:

  -Total Gradient:
     Atom            X                  Y                   Z
    ------   -----------------  -----------------  -----------------
       1        0.000001948874    -0.000000389663     0.000001686675
       2        0.000003609397    -0.000002344379    -0.000006180557
       3       -0.000007970435     0.000009887162    -0.000012281175
       4       -0.000006721310    -0.000004177490    -0.000027325458
       5        0.000003756236    -0.000007525981     0.000011691324
       6        0.000168134133    -0.002787422944    -0.001331869478
       7        0.000001399784     0.000002499622     0.000013957509
       8        0.000000223190     0.000008249320     0.000010029692
       9        0.000640300694    -0.002291461747     0.000835226604
      10       -0.000299711790     0.002933702975     0.000945288585
      11        0.000000173432    -0.000005402491     0.000000842561
      12       -0.000498075054     0.002138036266    -0.000432072008
      13        0.000005492547    -0.000000111544     0.000004122790
      14       -0.000008366019     0.000000226899    -0.000005189525
      15       -0.000006584961     0.000009019679    -0.000005707932
      16        0.000003000408    -0.000000832740    -0.000002393599
      17       -0.000003369238    -0.000002589330     0.000000701452
      18        0.000001908877     0.000002177228    -0.000001058994
      19        0.000004805070     0.000000871296     0.000001289646
      20       -0.000003953836    -0.000002412134    -0.000000758109

  **** Optimization is complete! (in 7 steps) ****
    Final optimized geometry and variables:
    Molecular point group: c1

    Geometry (in Angstrom), charge = 0, multiplicity = 1:

    H            3.620725251542    -1.190420970374    -0.671536438342
    O            2.720878307484    -1.419024147837    -0.459929222997
    C            1.967742188506    -0.332373647279    -0.627829340907
    C            0.519582072096    -0.604632712300    -0.312958931441
    O            2.425139154995     0.704362916741    -0.984221148612
    C           -0.381089119931     0.611514387414    -0.508410989714
    H            0.202860640845    -1.432988583532    -0.940616773214
    H            0.477087308471    -0.974111343745     0.707745549479
    C           -1.846876033110     0.341501676461    -0.133932757484
    H           -0.313476249014     0.953227401362    -1.535368749709
    H            0.000322112218     1.433821276367     0.088948529207
    C           -2.158376194185     0.566763565853     1.348391709933
    H           -2.124473542491    -0.671791237198    -0.418787572517
    H           -2.485164574408     1.000534950213    -0.717323772560
    C           -3.614356696589     0.266162269019     1.701589552272
    H           -1.506845755390    -0.050043590672     1.964292162338
    H           -1.929666381496     1.598808386408     1.602975949235
    H           -3.810020025978     0.450405691743     2.753297685712
    H           -3.862229933559    -0.771297690431     1.495689102751
    H           -4.293353247235     0.887918035867     1.124876082001

  Mulliken Charges: (a.u.)
   Center  Symbol    Alpha    Beta     Spin     Total
       1     H     0.26784  0.26784  0.00000  0.46431
       2     O     4.35152  4.35152  0.00000 -0.70304
       3     C     2.62268  2.62268  0.00000  0.75464
       4     C     3.21156  3.21156  0.00000 -0.42311
       5     O     4.27925  4.27925  0.00000 -0.55851
       6     C     3.15648  3.15648  0.00000 -0.31296
       7     H     0.39834  0.39834  0.00000  0.20333
       8     H     0.39790  0.39790  0.00000  0.20419
       9     C     3.15702  3.15702  0.00000 -0.31405
      10     H     0.40889  0.40889  0.00000  0.18222
      11     H     0.40978  0.40978  0.00000  0.18043
      12     C     3.15298  3.15298  0.00000 -0.30597
      13     H     0.42338  0.42338  0.00000  0.15325
      14     H     0.41776  0.41776  0.00000  0.16447
      15     C     3.23971  3.23971  0.00000 -0.47942
      16     H     0.42426  0.42426  0.00000  0.15148
      17     H     0.42001  0.42001  0.00000  0.15998
      18     H     0.41826  0.41826  0.00000  0.16348
      19     H     0.42152  0.42152  0.00000  0.15695
      20     H     0.42084  0.42084  0.00000  0.15833

   Total alpha = 32.00000, Total beta = 32.00000, Total charge =  0.00000
