                              Psi4 1.0.54 Driver

  ==> Input File <==

--------------------------------------------------------------------------
set {
	reference rhf
	basis cc-pvtz
}

set_num_threads( 4 )
memory 2 gb

molecule MOL {
0 1

H	 -1.716243	 0.173597	 -3.376396
C	 -2.347865	 -0.176156	 -2.548379
C	 -1.780474	 -1.325522	 -1.760397
O	 -3.391154	 0.339706	 -2.341636
C	 -0.349988	 -1.065350	 -1.279047
H	 -2.446715	 -1.539223	 -0.934692
H	 -1.782998	 -2.187654	 -2.423741
C	 -0.247837	 0.040196	 -0.230469
H	 0.047195	 -1.987944	 -0.869896
H	 0.277509	 -0.818916	 -2.132107
C	 1.181757	 0.280428	 0.247371
H	 -0.874618	 -0.217702	 0.619085
H	 -0.652026	 0.966163	 -0.631272
C	 2.151032	 -0.811012	 -0.202643
H	 1.515939	 1.247397	 -0.115449
H	 1.191514	 0.341223	 1.333422
C	 3.580021	 -0.656538	 0.320835
H	 2.170545	 -0.847575	 -1.289412
H	 1.766632	 -1.772905	 0.124928
C	 4.327657	 0.562694	 -0.213579
H	 4.138806	 -1.549270	 0.057813
H	 3.561991	 -0.620783	 1.406976
H	 4.355973	 0.557257	 -1.298551
H	 3.867136	 1.491650	 0.100501
H	 5.351524	 0.571613	 0.142204

	symmetry c1
}
set optking {
	frozen_dihedral = ("
		12 8 11 14
	")
}

ee,wfn = optimize('scf', return_wfn=True)
oeprop( wfn, 'DIPOLE', 'QUADRUPOLE', 'MULLIKEN_CHARGES')
f=open( 'psi4out.xyz', 'w' )
f.write( "25  " )
f.write( str(ee) + "\n" )
f.write( MOL.save_string_xyz() )
f.close()
--------------------------------------------------------------------------

    Molecular point group: c1
  Charge       = 0
  Multiplicity = 1
  Basis Set: CC-PVTZ
  Basis Set:
  @DF-RHF Final Energy:  -387.24582795989579
    Total Energy =                       -387.2458279598960189
    Molecular point group: c1
  Basis Set: CC-PVTZ
  Basis Set:
  Basis Set: CC-PVTZ
  Basis Set:
  @DF-RHF Final Energy:  -387.12302088973769
    Total Energy =                       -387.1230208897379725
  Basis Set: CC-PVTZ
  Basis Set:
  Basis Set: CC-PVTZ
  Basis Set:
  @DF-RHF Final Energy:  -387.21990170774347
    Total Energy =                       -387.2199017077432472
  Basis Set: CC-PVTZ
  Basis Set:
  Basis Set: CC-PVTZ
  Basis Set:
  @DF-RHF Final Energy:  -387.24873329611216
    Total Energy =                       -387.2487332961127322
  Basis Set: CC-PVTZ
  Basis Set:
  @DF-RHF Final Energy:  -387.25058610637666
    Total Energy =                       -387.2505861063768862
  @DF-RHF Final Energy:  -387.25080056338601
    Total Energy =                       -387.2508005633860648
  @DF-RHF Final Energy:  -387.25079789206558
    Total Energy =                       -387.2507978920662026
  Basis Set: CC-PVTZ
  Basis Set:
  @DF-RHF Final Energy:  -387.25070766515927
    Total Energy =                       -387.2507076651590978
  Basis Set: CC-PVTZ
  Basis Set:
  Basis Set: CC-PVTZ
  Basis Set:
  @DF-RHF Final Energy:  -387.25081609695678
    Total Energy =                       -387.2508160969570099
  Basis Set: CC-PVTZ
  Basis Set:
  Basis Set: CC-PVTZ
  Basis Set:
  @DF-RHF Final Energy:  -387.25081471760018
    Total Energy =                       -387.2508147176002922
  Basis Set: CC-PVTZ
  Basis Set:
  Charge       = 0
  Multiplicity = 1
  Basis Set: CC-PVTZ
  Basis Set:

    Orbital Energies (a.u.)
    -----------------------

    Doubly Occupied:

       1A    -20.551039     2A    -11.320784     3A    -11.233469
       4A    -11.232403     5A    -11.222520     6A    -11.218267
       7A    -11.217629     8A    -11.216891     9A    -11.209612
      10A     -1.406100    11A     -1.103506    12A     -1.070356
      13A     -1.011294    14A     -0.941504    15A     -0.886515
      16A     -0.825198    17A     -0.793439    18A     -0.766818
      19A     -0.665995    20A     -0.661830    21A     -0.633651
      22A     -0.629383    23A     -0.603168    24A     -0.588850
      25A     -0.588620    26A     -0.546783    27A     -0.542997
      28A     -0.527597    29A     -0.515364    30A     -0.503574
      31A     -0.486686    32A     -0.480035    33A     -0.455859
      34A     -0.452454    35A     -0.446391    36A     -0.411246

  @DF-RHF Final Energy:  -387.25081742308981

   => Energetics <=

    Nuclear Repulsion Energy =            444.1258198880211125
    One-Electron Energy =               -1404.8176222752599642
    Two-Electron Energy =                 573.4409849641492656
    DFT Exchange-Correlation Energy =       0.0000000000000000
    Empirical Dispersion Energy =           0.0000000000000000
    PCM Polarization Energy =               0.0000000000000000
    EFP Energy =                            0.0000000000000000
    Total Energy =                       -387.2508174230895293
    Molecular point group: c1
  Basis Set: CC-PVTZ
  Basis Set:

  -Total Gradient:
     Atom            X                  Y                   Z
    ------   -----------------  -----------------  -----------------
       1       -0.000001306485     0.000002272206    -0.000000218301
       2        0.000022934370    -0.000011862519    -0.000012537221
       3        0.000002010796     0.000009582449    -0.000002816361
       4       -0.000023540120     0.000009676050     0.000009667032
       5        0.000000163573    -0.000002152789     0.000000206876
       6       -0.000001650393     0.000001001799     0.000006403061
       7        0.000000622982    -0.000009332967    -0.000001935638
       8        0.002179457351    -0.004669626965    -0.000927395450
       9        0.000004828074    -0.000001508964     0.000001333858
      10       -0.000004615432     0.000001613641     0.000002430249
      11        0.000135000472    -0.000130326281     0.004652430744
      12       -0.001914158098     0.004060584791    -0.000441462002
      13       -0.000001127535     0.000000689014    -0.000000551029
      14       -0.000399139053     0.000739946924    -0.003287295637
      15        0.000002095883    -0.000002690129    -0.000000037321
      16        0.000000936556    -0.000000724993    -0.000001008576
      17       -0.000009281617     0.000001479840     0.000004214697
      18        0.000001026433     0.000001914844     0.000002382278
      19       -0.000005923749    -0.000001050130    -0.000000039936
      20        0.000007146450    -0.000000447756    -0.000001044892
      21        0.000004727804    -0.000003580195    -0.000001428273
      22        0.000002651933    -0.000000026760     0.000005676297
      23        0.000001275227    -0.000000831603    -0.000006328746
      24       -0.000003615684     0.000003983295     0.000000776820
      25       -0.000000519744     0.000001417199    -0.000001422528

  **** Optimization is complete! (in 11 steps) ****
    Final optimized geometry and variables:
    Molecular point group: c1

    Geometry (in Angstrom), charge = 0, multiplicity = 1:

    H           -2.706675110400    -0.651231277973    -1.800809299008
    C           -3.019146885607    -0.825955557354    -0.762116861082
    C           -2.048378873999    -1.623227112150     0.066286115879
    O           -4.056639066009    -0.408994245944    -0.378622677224
    C           -0.615300871711    -1.087508245355    -0.010547945885
    H           -2.409907156096    -1.653977673837     1.085972604113
    H           -2.070335087690    -2.637864002649    -0.325656057844
    C           -0.466966995419     0.284194932676     0.647103734479
    H            0.039616432250    -1.807433472688     0.462844911762
    H           -0.311210441255    -1.038717787106    -1.052249121868
    C            0.936829337693     0.941480810440     0.621663235996
    H           -0.820306432286     0.229162690450     1.671920365842
    H           -1.160359101710     0.967850028436     0.166166009781
    C            2.121255082213     0.038070074646     0.271375366179
    H            0.913733172112     1.758183757994    -0.090082936273
    H            1.122908587761     1.398129507250     1.588006050660
    C            3.478228342092     0.743740664711     0.337636967806
    H            1.991212967775    -0.378138618550    -0.722781709843
    H            2.148915675382    -0.805490964641     0.954725515460
    C            3.688897885021     1.832763316062    -0.711860201482
    H            4.256116998094    -0.004377221192     0.219942734398
    H            3.614269817185     1.167353187058     1.329110233918
    H            3.545894923421     1.440772085786    -1.713925806863
    H            3.006407522989     2.663464365491    -0.580976512754
    H            4.696230765331     2.228927255772    -0.654859291826

  Mulliken Charges: (a.u.)
   Center  Symbol    Alpha    Beta     Spin     Total
       1     H     0.46400  0.46400  0.00000  0.07201
       2     C     2.90562  2.90562  0.00000  0.18875
       3     C     3.08825  3.08825  0.00000 -0.17650
       4     O     4.16630  4.16630  0.00000 -0.33260
       5     C     3.12263  3.12263  0.00000 -0.24525
       6     H     0.44280  0.44280  0.00000  0.11439
       7     H     0.43955  0.43955  0.00000  0.12091
       8     C     3.09707  3.09707  0.00000 -0.19414
       9     H     0.43890  0.43890  0.00000  0.12221
      10     H     0.44788  0.44788  0.00000  0.10425
      11     C     3.09961  3.09961  0.00000 -0.19923
      12     H     0.44654  0.44654  0.00000  0.10691
      13     H     0.44532  0.44532  0.00000  0.10937
      14     C     3.10050  3.10050  0.00000 -0.20099
      15     H     0.44921  0.44921  0.00000  0.10158
      16     H     0.44757  0.44757  0.00000  0.10487
      17     C     3.09077  3.09077  0.00000 -0.18154
      18     H     0.45108  0.45108  0.00000  0.09785
      19     H     0.44779  0.44779  0.00000  0.10442
      20     C     3.15270  3.15270  0.00000 -0.30540
      21     H     0.44777  0.44777  0.00000  0.10446
      22     H     0.45410  0.45410  0.00000  0.09181
      23     H     0.45536  0.45536  0.00000  0.08928
      24     H     0.45305  0.45305  0.00000  0.09390
      25     H     0.44566  0.44566  0.00000  0.10868

   Total alpha = 36.00000, Total beta = 36.00000, Total charge = -0.00000

*** Psi4 exiting successfully. Buy a developer a beer!
