  ==> Input File <==

--------------------------------------------------------------------------
set {
	reference rhf
	basis 6-31G*
}

set_num_threads( 4 )
memory 2 gb

molecule MOL {
0 1

H	 5.268524	 0.192471	 1.070992
C	 4.673736	 -0.214914	 0.259335
C	 3.185378	 -0.203514	 0.605509
H	 4.871837	 0.380453	 -0.627026
H	 5.025590	 -1.224632	 0.065769
C	 2.317601	 -0.778379	 -0.516234
H	 2.874655	 0.814325	 0.817774
H	 3.023650	 -0.778480	 1.515976
C	 0.827776	 -0.830009	 -0.177082
H	 2.453452	 -0.191913	 -1.418036
H	 2.651941	 -1.788503	 -0.741860
C	 0.147815	 0.530439	 -0.131509
H	 0.299943	 -1.415194	 -0.928561
H	 0.661586	 -1.345071	 0.766457
C	 -1.198138	 0.619760	 0.566450
O	 0.639467	 1.493008	 -0.639587
C	 -2.293322	 -0.232785	 -0.091501
H	 -1.486144	 1.664158	 0.566688
H	 -1.072303	 0.308035	 1.601669
C	 -3.656660	 -0.043709	 0.576458
H	 -2.369154	 0.031203	 -1.144200
H	 -2.021617	 -1.284534	 -0.053151
C	 -4.755047	 -0.887028	 -0.069503
H	 -3.934178	 1.006639	 0.533847
H	 -3.578182	 -0.297517	 1.631360
H	 -4.879091	 -0.632564	 -1.118114
H	 -4.522423	 -1.946577	 -0.011591
H	 -5.709135	 -0.730799	 0.423638

	symmetry c1
}
set optking {
	frozen_dihedral = ("
		10 6 3 2
	")
}

ee = optimize('scf')
oeprop('DIPOLE', 'QUADRUPOLE', 'MULLIKEN_CHARGES')
f=open( 'psi4out.xyz', 'w' )
f.write( "28  " )
f.write( str(ee) + "\n" )
f.write( MOL.save_string_xyz() )
f.close()
--------------------------------------------------------------------------

    Molecular point group: c1
  Charge       = 0
  Multiplicity = 1
  Basis Set: 6-31G*
  Basis Set:
  @DF-RHF Final Energy:  -426.16919521611055
    Total Energy =                       -426.1691952161108929
    Molecular point group: c1
  Basis Set: 6-31G*
  Basis Set:
  Basis Set: 6-31G*
  Basis Set:
  @DF-RHF Final Energy:  -426.16919420137651
    Total Energy =                       -426.1691942013769676
  Basis Set: 6-31G*
  Basis Set:
  Basis Set: 6-31G*
  Basis Set:
  @DF-RHF Final Energy:  -426.16917401665660
    Total Energy =                       -426.1691740166564841
  Basis Set: 6-31G*
  Basis Set:
  Basis Set: 6-31G*
  Basis Set:
  @DF-RHF Final Energy:  -426.16919591097690
    Total Energy =                       -426.1691959109768959
  Basis Set: 6-31G*
  Basis Set:
  Basis Set: 6-31G*
  Basis Set:
  @DF-RHF Final Energy:  -426.16917202370826
    Total Energy =                       -426.1691720237079153
  Basis Set: 6-31G*
  Basis Set:
  Basis Set: 6-31G*
  Basis Set:
  @DF-RHF Final Energy:  -426.16919635899262
    Total Energy =                       -426.1691963589930765
  Basis Set: 6-31G*
  Basis Set:
  Charge       = 0
  Multiplicity = 1
  Basis Set: 6-31G*
  Basis Set:

    Orbital Energies (a.u.)
    -----------------------

    Doubly Occupied:

       1A    -20.548063     2A    -11.322126     3A    -11.232449
       4A    -11.229896     5A    -11.228819     6A    -11.226126
       7A    -11.216480     8A    -11.216359     9A    -11.212325
      10A    -11.205816    11A     -1.393174    12A     -1.095215
      13A     -1.077398    14A     -1.022632    15A     -0.990742
      16A     -0.907339    17A     -0.873242    18A     -0.809276
      19A     -0.799729    20A     -0.722962    21A     -0.668941
      22A     -0.653143    23A     -0.627658    24A     -0.619865
      25A     -0.609349    26A     -0.587946    27A     -0.576972
      28A     -0.575256    29A     -0.542802    30A     -0.532745
      31A     -0.520304    32A     -0.506113    33A     -0.499877
      34A     -0.484922    35A     -0.478878    36A     -0.475920
      37A     -0.471677    38A     -0.465059    39A     -0.455159
      40A     -0.392233

  @DF-RHF Final Energy:  -426.16919637589319

   => Energetics <=

    Nuclear Repulsion Energy =            531.1362924791852720
    One-Electron Energy =               -1630.4610039162212161
    Two-Electron Energy =                 673.1555150611432055
    DFT Exchange-Correlation Energy =       0.0000000000000000
    Empirical Dispersion Energy =           0.0000000000000000
    PCM Polarization Energy =               0.0000000000000000
    EFP Energy =                            0.0000000000000000
    Total Energy =                       -426.1691963758928523
    Molecular point group: c1
  Basis Set: 6-31G*
  Basis Set:

  -Total Gradient:
     Atom            X                  Y                   Z
    ------   -----------------  -----------------  -----------------
       1        0.000000688731     0.000002811353     0.000000132112
       2        0.000015440056    -0.000165039874     0.000073577454
       3       -0.000070651359     0.000255885124    -0.000083134137
       4        0.000003247907    -0.000004740628    -0.000002809020
       5       -0.000006323593    -0.000000012881     0.000006083977
       6        0.000266686943    -0.000252292955    -0.000080657655
       7        0.000012364939    -0.000002334870    -0.000008599083
       8       -0.000010010388    -0.000000188712     0.000007334387
       9        0.000000831291    -0.000007157315     0.000017234775
      10       -0.000206481755     0.000164206500     0.000070093401
      11        0.000003554093     0.000013386783     0.000004185322
      12       -0.000004564521    -0.000001307199    -0.000011754649
      13       -0.000000400704    -0.000000223939    -0.000001105091
      14       -0.000006091528    -0.000000759522     0.000003418133
      15       -0.000002963883     0.000000906434    -0.000005826685
      16        0.000003825187    -0.000000119010     0.000003823913
      17        0.000001569729    -0.000002842260     0.000005460682
      18        0.000000761363     0.000001950023     0.000002080776
      19        0.000000656608    -0.000000476822    -0.000001050320
      20        0.000000073715    -0.000003425369     0.000002532501
      21       -0.000000609907    -0.000002098490    -0.000000855778
      22        0.000000496139     0.000000849553     0.000001439589
      23       -0.000002210068     0.000004260183    -0.000001956471
      24        0.000001031446     0.000000139733     0.000002481069
      25       -0.000000869436    -0.000002031636    -0.000000576450
      26       -0.000000353452    -0.000001142925    -0.000001308206
      27        0.000000256120     0.000000966749     0.000001384727
      28        0.000000046331     0.000000831974    -0.000001629272

  **** Optimization is complete! (in 7 steps) ****
    Final optimized geometry and variables:
    Molecular point group: c1

    Geometry (in Angstrom), charge = 0, multiplicity = 1:

    H            5.275277313227     0.256324385182     1.034182905951
    C            4.681708058373    -0.156353466454     0.224316729237
    C            3.193264709964    -0.147378707033     0.570231072042
    H            4.878839571245     0.435326231308    -0.664791973850
    H            5.035978213213    -1.166118856068     0.035587926466
    C            2.326650253706    -0.724589649563    -0.551254929475
    H            2.879647071670     0.869459683600     0.782644901854
    H            3.033492370229    -0.722918414280     1.480751675520
    C            0.836468830103    -0.775872637289    -0.213030858681
    H            2.461782103354    -0.138332924043    -1.453311980166
    H            2.661048925274    -1.734942426677    -0.775352095609
    C            0.156923060611     0.584777028390    -0.166913650579
    H            0.308974701427    -1.360092900120    -0.965508185536
    H            0.669377086105    -1.291733120864     0.729871795766
    C           -1.188595555822     0.674401835521     0.531796773849
    O            0.648398528535     1.547151787750    -0.675548279843
    C           -2.284414893975    -0.177109139603    -0.126467451484
    H           -1.476101006320     1.718928947414     0.532837524283
    H           -1.062554249489     0.361847163463     1.566733362667
    C           -3.647447904140     0.012153618412     0.542037399266
    H           -2.360435418822     0.087705210892    -1.178929836038
    H           -2.013211946570    -1.229016345115    -0.088968288238
    C           -4.746718915056    -0.829115317295    -0.105091878859
    H           -3.923987323537     1.062821972110     0.501147828187
    H           -3.569007391827    -0.243423935722     1.596524530546
    H           -4.870551486829    -0.573009422872    -1.153326186306
    H           -4.515162977159    -1.888977319627    -0.048719584485
    H           -5.700638710925    -0.672631030638     0.388332492475

  Mulliken Charges: (a.u.)
   Center  Symbol    Alpha    Beta     Spin     Total
       1     H     0.41931  0.41931  0.00000  0.16138
       2     C     3.24008  3.24008  0.00000 -0.48015
       3     C     3.15663  3.15663  0.00000 -0.31325
       4     H     0.41847  0.41847  0.00000  0.16305
       5     H     0.42360  0.42360  0.00000  0.15279
       6     C     3.14912  3.14912  0.00000 -0.29824
       7     H     0.41007  0.41007  0.00000  0.17985
       8     H     0.42781  0.42781  0.00000  0.14437
       9     C     3.21202  3.21202  0.00000 -0.42403
      10     H     0.40656  0.40656  0.00000  0.18687
      11     H     0.42192  0.42192  0.00000  0.15616
      12     C     2.73138  2.73138  0.00000  0.53723
      13     H     0.40283  0.40283  0.00000  0.19434
      14     H     0.41326  0.41326  0.00000  0.17348
      15     C     3.20158  3.20158  0.00000 -0.40315
      16     O     4.26682  4.26682  0.00000 -0.53363
      17     C     3.16384  3.16384  0.00000 -0.32767
      18     H     0.39982  0.39982  0.00000  0.20037
      19     H     0.41288  0.41288  0.00000  0.17425
      20     C     3.15181  3.15181  0.00000 -0.30362
      21     H     0.41378  0.41378  0.00000  0.17244
      22     H     0.41859  0.41859  0.00000  0.16281
      23     C     3.24033  3.24033  0.00000 -0.48066
      24     H     0.41838  0.41838  0.00000  0.16324
      25     H     0.42143  0.42143  0.00000  0.15714
      26     H     0.41960  0.41960  0.00000  0.16079
      27     H     0.42120  0.42120  0.00000  0.15760
      28     H     0.41687  0.41687  0.00000  0.16625

   Total alpha = 40.00000, Total beta = 40.00000, Total charge = -0.00000
