                              Psi4 1.0.54 Driver

  ==> Input File <==

--------------------------------------------------------------------------
set {
	reference rhf
	basis cc-pvtz
}

set_num_threads( 4 )
memory 2 gb

molecule MOL {
0 1

O	 -2.374409	 1.338660	 -0.336961
C	 -2.104891	 0.204655	 -0.107126
C	 -0.881910	 -0.448129	 -0.720509
C	 -2.949910	 -0.638219	 0.818225
C	 -0.318597	 -1.537269	 0.201064
H	 -0.137412	 0.323999	 -0.867653
H	 -1.127780	 -0.874005	 -1.687485
C	 0.924844	 -2.204689	 -0.382811
H	 -0.093034	 -1.087613	 1.159791
H	 -1.078268	 -2.294117	 0.381009
C	 1.496202	 -3.340086	 0.468266
H	 1.693467	 -1.451866	 -0.539194
H	 0.680615	 -2.598625	 -1.365547
C	 2.064738	 -2.902531	 1.815928
H	 2.282049	 -3.828758	 -0.099142
H	 0.726924	 -4.091262	 0.627258
H	 2.832807	 -2.146812	 1.687295
H	 2.512722	 -3.742797	 2.333647
H	 1.301669	 -2.490575	 2.465003
H	 -3.440322	 -1.417144	 0.243099
H	 -3.694377	 -0.025850	 1.303346
H	 -2.331085	 -1.129829	 1.560495

	symmetry c1
}
set optking {
	frozen_dihedral = ("
		6 3 2 1
	")
}

ee,wfn = optimize('scf', return_wfn=True)
oeprop( wfn, 'DIPOLE', 'QUADRUPOLE', 'MULLIKEN_CHARGES')
f=open( 'psi4out.xyz', 'w' )
f.write( "22  " )
f.write( str(ee) + "\n" )
f.write( MOL.save_string_xyz() )
f.close()
--------------------------------------------------------------------------

    Molecular point group: c1
  Charge       = 0
  Multiplicity = 1
  Basis Set: CC-PVTZ
  Basis Set:
  @DF-RHF Final Energy:  -348.21753537409035
    Total Energy =                       -348.2175353740904029
    Molecular point group: c1
  Basis Set: CC-PVTZ
  Basis Set:
  Basis Set: CC-PVTZ
  Basis Set:
  @DF-RHF Final Energy:  -347.47268686700579
    Total Energy =                       -347.4726868670059048
  Basis Set: CC-PVTZ
  Basis Set:
  Basis Set: CC-PVTZ
  Basis Set:
  @DF-RHF Final Energy:  -347.69020854973223
    Total Energy =                       -347.6902085497318922
  Basis Set: CC-PVTZ
  Basis Set:
  Basis Set: CC-PVTZ
  Basis Set:
  @DF-RHF Final Energy:  -348.00957894640885
    Total Energy =                       -348.0095789464082827
  Basis Set: CC-PVTZ
  Basis Set:
  @DF-RHF Final Energy:  -348.18447093887772
    Total Energy =                       -348.1844709388773822
  @DF-RHF Final Energy:  -348.21853691855245
    Total Energy =                       -348.2185369185524451
  @DF-RHF Final Energy:  -348.22129210982069
    Total Energy =                       -348.2212921098205243
  @DF-RHF Final Energy:  -348.22054442073949
    Total Energy =                       -348.2205444207399410
  @DF-RHF Final Energy:  -348.22166946036918
    Total Energy =                       -348.2216694603689007
  @DF-RHF Final Energy:  -348.22160432856748
    Total Energy =                       -348.2216043285674232
  @DF-RHF Final Energy:  -348.22170348396571
    Total Energy =                       -348.2217034839654843
  Basis Set: CC-PVTZ
  Basis Set:
  @DF-RHF Final Energy:  -348.22171508863829
    Total Energy =                       -348.2217150886385753
  Basis Set: CC-PVTZ
  Basis Set:
  Basis Set: CC-PVTZ
  Basis Set:
  @DF-RHF Final Energy:  -348.22171444236750
    Total Energy =                       -348.2217144423672153
  Basis Set: CC-PVTZ
  Basis Set:
  Basis Set: CC-PVTZ
  Basis Set:
  @DF-RHF Final Energy:  -348.22172132409514
    Total Energy =                       -348.2217213240950855
  Basis Set: CC-PVTZ
  Basis Set:
  Charge       = 0
  Multiplicity = 1
  Basis Set: CC-PVTZ
  Basis Set:

    Orbital Energies (a.u.)
    -----------------------

    Doubly Occupied:

       1A    -20.535502     2A    -11.320092     3A    -11.229055
       4A    -11.228259     5A    -11.226341     6A    -11.222539
       7A    -11.221319     8A    -11.212991     9A     -1.396326
      10A     -1.100062    11A     -1.046684    12A     -0.997557
      13A     -0.942089    14A     -0.864274    15A     -0.789719
      16A     -0.732847    17A     -0.662924    18A     -0.649156
      19A     -0.634977    20A     -0.613995    21A     -0.610357
      22A     -0.584464    23A     -0.557667    24A     -0.544365
      25A     -0.536147    26A     -0.523940    27A     -0.505209
      28A     -0.482847    29A     -0.473787    30A     -0.471094
      31A     -0.465494    32A     -0.398463

  @DF-RHF Final Energy:  -348.22172140314160

   => Energetics <=

    Nuclear Repulsion Energy =            373.1954910431174994
    One-Electron Energy =               -1211.2733406585341527
    Two-Electron Energy =                 489.8561282122752800
    DFT Exchange-Correlation Energy =       0.0000000000000000
    Empirical Dispersion Energy =           0.0000000000000000
    PCM Polarization Energy =               0.0000000000000000
    EFP Energy =                            0.0000000000000000
    Total Energy =                       -348.2217214031413732
    Molecular point group: c1
  Basis Set: CC-PVTZ
  Basis Set:

  -Total Gradient:
     Atom            X                  Y                   Z
    ------   -----------------  -----------------  -----------------
       1        0.000138568286    -0.000177919743    -0.001787921822
       2       -0.000296443080     0.000087645157     0.002798303941
       3        0.000570791328     0.000757824719    -0.002592900218
       4        0.000015750757     0.000001812088     0.000022074900
       5        0.000000927063     0.000006523820    -0.000002192439
       6       -0.000431126021    -0.000694110197     0.001582104819
       7        0.000002863341     0.000003269364    -0.000004606631
       8        0.000001837047     0.000006665114     0.000000513280
       9        0.000001422262    -0.000003121730     0.000006553833
      10        0.000000704316     0.000000956939    -0.000001590088
      11       -0.000000743972    -0.000004091832    -0.000003464691
      12       -0.000000293723     0.000000334016    -0.000000376387
      13       -0.000002653603     0.000000181865    -0.000000989891
      14        0.000000244713     0.000003531624    -0.000000126872
      15       -0.000001512278     0.000003617084     0.000003099997
      16       -0.000001717811    -0.000003686277    -0.000001619834
      17        0.000002466726     0.000000165719     0.000000870270
      18        0.000000626847    -0.000002825019     0.000001153065
      19       -0.000003546513     0.000001286635    -0.000001933943
      20        0.000002585389     0.000007743608    -0.000005193774
      21       -0.000004381630     0.000000769808    -0.000005433198
      22        0.000003630553     0.000003427239    -0.000006324321

  **** Optimization is complete! (in 15 steps) ****
    Final optimized geometry and variables:
    Molecular point group: c1

    Geometry (in Angstrom), charge = 0, multiplicity = 1:

    O           -1.532470484784     2.651187857367    -0.958424630114
    C           -1.352023275649     1.482461805675    -0.843081909335
    C            0.061176466845     0.942714601414    -0.693706443321
    C           -2.506477137200     0.509793181504    -0.909367822767
    C            0.226328913396    -0.386453945744     0.042162271370
    H            0.633053441977     1.716331002886    -0.197576982569
    H            0.456590393872     0.856523536609    -1.703235293727
    C            1.695098854382    -0.790602155604     0.161451666817
    H           -0.214184094653    -0.305414836531     1.030353261497
    H           -0.314513355908    -1.173060663657    -0.474715632429
    C            1.932817033135    -2.149526743634     0.821834859492
    H            2.233943947489    -0.024608974864     0.713530311157
    H            2.131002742381    -0.809335871708    -0.833610859942
    C            1.541558435186    -2.220328771966     2.295907674698
    H            2.986542891345    -2.392921878020     0.729893064227
    H            1.396603619019    -2.916129179442     0.268615680509
    H            2.056888545532    -1.459054174492     2.872610504933
    H            1.802876888158    -3.184665083863     2.715903290071
    H            0.477001137467    -2.081494982891     2.441684928856
    H           -2.332961922356    -0.229686148232    -1.683508176602
    H           -3.416138251899     1.050979067381    -1.118221883927
    H           -2.608106364072    -0.023790765829     0.028312179733

  Mulliken Charges: (a.u.)
   Center  Symbol    Alpha    Beta     Spin     Total
       1     O     4.17384  4.17384  0.00000 -0.34768
       2     C     2.86130  2.86130  0.00000  0.27741
       3     C     3.09636  3.09636  0.00000 -0.19271
       4     C     3.16484  3.16484  0.00000 -0.32969
       5     C     3.10871  3.10871  0.00000 -0.21742
       6     H     0.43732  0.43732  0.00000  0.12535
       7     H     0.44190  0.44190  0.00000  0.11621
       8     C     3.09727  3.09727  0.00000 -0.19453
       9     H     0.44597  0.44597  0.00000  0.10806
      10     H     0.45019  0.45019  0.00000  0.09962
      11     C     3.09018  3.09018  0.00000 -0.18037
      12     H     0.44991  0.44991  0.00000  0.10018
      13     H     0.44788  0.44788  0.00000  0.10424
      14     C     3.15240  3.15240  0.00000 -0.30480
      15     H     0.44680  0.44680  0.00000  0.10639
      16     H     0.45444  0.45444  0.00000  0.09112
      17     H     0.45345  0.45345  0.00000  0.09310
      18     H     0.44515  0.44515  0.00000  0.10970
      19     H     0.45462  0.45462  0.00000  0.09077
      20     H     0.44804  0.44804  0.00000  0.10392
      21     H     0.43190  0.43190  0.00000  0.13621
      22     H     0.44754  0.44754  0.00000  0.10493

   Total alpha = 32.00000, Total beta = 32.00000, Total charge =  0.00000

*** Psi4 exiting successfully. Buy a developer a beer!
