                              Psi4 1.0.54 Driver

  ==> Input File <==

--------------------------------------------------------------------------
set {
	reference rhf
	basis cc-pvtz
}

set_num_threads( 4 )
memory 2 gb

molecule MOL {
0 1

O	 -0.342751	 -2.293188	 -2.088844
C	 -0.525384	 -1.120676	 -2.031469
C	 -0.881910	 -0.448129	 -0.720509
C	 -0.394426	 -0.238307	 -3.250093
C	 0.376695	 -0.140025	 0.100361
H	 -1.519503	 -1.125986	 -0.167249
H	 -1.435001	 0.466681	 -0.905111
C	 1.630207	 -0.772146	 -0.501001
H	 0.486632	 0.935267	 0.162725
H	 0.248225	 -0.501310	 1.117842
C	 2.907848	 -0.545876	 0.309149
H	 1.772784	 -0.391628	 -1.509394
H	 1.468529	 -1.842059	 -0.599744
C	 3.373802	 0.906639	 0.372125
H	 3.699140	 -1.146831	 -0.127906
H	 2.764321	 -0.923458	 1.318191
H	 3.519798	 1.311927	 -0.623875
H	 4.316899	 0.983758	 0.900700
H	 2.661122	 1.540651	 0.885346
H	 -1.372354	 0.150257	 -3.515934
H	 0.005561	 -0.803802	 -4.077616
H	 0.242112	 0.613736	 -3.039305

	symmetry c1
}
set optking {
	frozen_dihedral = ("
		6 3 5 8
	")
}

ee,wfn = optimize('scf', return_wfn=True)
oeprop( wfn, 'DIPOLE', 'QUADRUPOLE', 'MULLIKEN_CHARGES')
f=open( 'psi4out.xyz', 'w' )
f.write( "22  " )
f.write( str(ee) + "\n" )
f.write( MOL.save_string_xyz() )
f.close()
--------------------------------------------------------------------------

    Molecular point group: c1
  Charge       = 0
  Multiplicity = 1
  Basis Set: CC-PVTZ
  Basis Set:
  @DF-RHF Final Energy:  -348.21054882859846
    Total Energy =                       -348.2105488285986894
    Molecular point group: c1
  Basis Set: CC-PVTZ
  Basis Set:
  Basis Set: CC-PVTZ
  Basis Set:
  @DF-RHF Final Energy:  -348.21279258209864
    Total Energy =                       -348.2127925820987571
  Basis Set: CC-PVTZ
  Basis Set:
  Basis Set: CC-PVTZ
  Basis Set:
  @DF-RHF Final Energy:  -348.21362211237471
    Total Energy =                       -348.2136221123747646
  Basis Set: CC-PVTZ
  Basis Set:
  Basis Set: CC-PVTZ
  Basis Set:
  @DF-RHF Final Energy:  -348.21419709159500
    Total Energy =                       -348.2141970915953380
  Basis Set: CC-PVTZ
  Basis Set:
  @DF-RHF Final Energy:  -348.21479940052046
    Total Energy =                       -348.2147994005206897
  @DF-RHF Final Energy:  -348.21481154559166
    Total Energy =                       -348.2148115455910329
  @DF-RHF Final Energy:  -348.21486946954491
    Total Energy =                       -348.2148694695453628
  Basis Set: CC-PVTZ
  Basis Set:
  @DF-RHF Final Energy:  -348.21488754366294
    Total Energy =                       -348.2148875436631670
  Basis Set: CC-PVTZ
  Basis Set:
  Basis Set: CC-PVTZ
  Basis Set:
  @DF-RHF Final Energy:  -348.21489944206940
    Total Energy =                       -348.2148994420692816
  Basis Set: CC-PVTZ
  Basis Set:
  Basis Set: CC-PVTZ
  Basis Set:
  @DF-RHF Final Energy:  -348.21490277988789
    Total Energy =                       -348.2149027798882344
  Basis Set: CC-PVTZ
  Basis Set:
  Charge       = 0
  Multiplicity = 1
  Basis Set: CC-PVTZ
  Basis Set:

    Orbital Energies (a.u.)
    -----------------------

    Doubly Occupied:

       1A    -20.536454     2A    -11.319568     3A    -11.229131
       4A    -11.227845     5A    -11.226418     6A    -11.218043
       7A    -11.217330     8A    -11.210804     9A     -1.396771
      10A     -1.093868    11A     -1.043278    12A     -0.997893
      13A     -0.940657    14A     -0.861667    15A     -0.792052
      16A     -0.725214    17A     -0.658733    18A     -0.643278
      19A     -0.628340    20A     -0.624883    21A     -0.599759
      22A     -0.582389    23A     -0.566384    24A     -0.544666
      25A     -0.536120    26A     -0.524779    27A     -0.497327
      28A     -0.486922    29A     -0.469858    30A     -0.462765
      31A     -0.454717    32A     -0.399202

  @DF-RHF Final Energy:  -348.21490337099527

   => Energetics <=

    Nuclear Repulsion Energy =            382.7709173118561807
    One-Electron Energy =               -1230.5373983043664339
    Two-Electron Energy =                 499.5515776215144115
    DFT Exchange-Correlation Energy =       0.0000000000000000
    Empirical Dispersion Energy =           0.0000000000000000
    PCM Polarization Energy =               0.0000000000000000
    EFP Energy =                            0.0000000000000000
    Total Energy =                       -348.2149033709957848
    Molecular point group: c1
  Basis Set: CC-PVTZ
  Basis Set:

  -Total Gradient:
     Atom            X                  Y                   Z
    ------   -----------------  -----------------  -----------------
       1        0.000006545140    -0.000021887619    -0.000010078974
       2        0.000017097007     0.000057751848     0.000002761728
       3        0.002552729290    -0.003163179000    -0.002296196840
       4       -0.000055349049    -0.000046817246     0.000019670983
       5       -0.001147420303    -0.002350993522     0.003070733101
       6       -0.001901820927     0.003325856577     0.001168135144
       7        0.000002891510     0.000002047470    -0.000003508188
       8        0.000451519508     0.002190880828    -0.001988188661
       9       -0.000000145681     0.000000262109    -0.000000957436
      10        0.000009506081    -0.000004850484     0.000001793921
      11        0.000006336174     0.000002839227     0.000012096467
      12        0.000013815731    -0.000003449977     0.000023466907
      13       -0.000001370946    -0.000010550642    -0.000000911229
      14       -0.000004985140     0.000003279770    -0.000007415707
      15        0.000005305822    -0.000000641901     0.000000950025
      16       -0.000001373038    -0.000003620718    -0.000007715682
      17        0.000001338950     0.000005775778     0.000003740159
      18        0.000000769331    -0.000000177827     0.000002582941
      19        0.000001330180    -0.000000062284    -0.000005144892
      20        0.000013162326     0.000022010036     0.000007027378
      21        0.000017073794    -0.000011822744    -0.000002360333
      22        0.000013044241     0.000007350327     0.000009519189

  **** Optimization is complete! (in 11 steps) ****
    Final optimized geometry and variables:
    Molecular point group: c1

    Geometry (in Angstrom), charge = 0, multiplicity = 1:

    O           -1.319085585257    -1.896723158482    -1.074511277991
    C           -1.342797336081    -0.709225376872    -1.083305080778
    C           -1.618111806714     0.088254576323     0.176035779438
    C           -1.132410259621     0.071629677137    -2.359993910624
    C           -0.357331528945     0.527861995259     0.976645034714
    H           -2.265143749772    -0.504805271868     0.806700686672
    H           -2.181372112279     0.973870892167    -0.097128327073
    C            0.966096618385    -0.124360735185     0.569876163209
    H           -0.258988596225     1.602731668955     0.892630188493
    H           -0.538747490342     0.323528473177     2.025079234980
    C            2.144870146746     0.262178293116     1.465586433997
    H            1.208527417091     0.133985017662    -0.457391267396
    H            0.853844665719    -1.202192666347     0.592877770638
    C            2.557306059257     1.730466382910     1.389950019550
    H            2.995597742005    -0.351742499594     1.187818719023
    H            1.910796781222     0.005351747416     2.495176238091
    H            2.786740428524     2.018699180136     0.368868728260
    H            3.442761478499     1.910642857555     1.988472189167
    H            1.780782889621     2.392258539911     1.754267495102
    H           -2.090368424411     0.461923119674    -2.689736519621
    H           -0.728958617510    -0.571961151450    -3.126854240831
    H           -0.478642219081     0.920494518910    -2.199310142564

  Mulliken Charges: (a.u.)
   Center  Symbol    Alpha    Beta     Spin     Total
       1     O     4.18184  4.18184  0.00000 -0.36368
       2     C     2.85149  2.85149  0.00000  0.29701
       3     C     3.10213  3.10213  0.00000 -0.20426
       4     C     3.15664  3.15664  0.00000 -0.31328
       5     C     3.10725  3.10725  0.00000 -0.21449
       6     H     0.43719  0.43719  0.00000  0.12563
       7     H     0.44695  0.44695  0.00000  0.10611
       8     C     3.10629  3.10629  0.00000 -0.21257
       9     H     0.44751  0.44751  0.00000  0.10499
      10     H     0.44434  0.44434  0.00000  0.11132
      11     C     3.09287  3.09287  0.00000 -0.18573
      12     H     0.45151  0.45151  0.00000  0.09698
      13     H     0.43317  0.43317  0.00000  0.13366
      14     C     3.15363  3.15363  0.00000 -0.30726
      15     H     0.44589  0.44589  0.00000  0.10821
      16     H     0.45331  0.45331  0.00000  0.09339
      17     H     0.45516  0.45516  0.00000  0.08969
      18     H     0.44484  0.44484  0.00000  0.11032
      19     H     0.45431  0.45431  0.00000  0.09137
      20     H     0.44572  0.44572  0.00000  0.10855
      21     H     0.43621  0.43621  0.00000  0.12758
      22     H     0.45177  0.45177  0.00000  0.09647

   Total alpha = 32.00000, Total beta = 32.00000, Total charge = -0.00000

*** Psi4 exiting successfully. Buy a developer a beer!
