  ==> Input File <==

--------------------------------------------------------------------------
set {
	reference rhf
	basis 6-31G*
}

set_num_threads( 4 )
memory 2 gb

molecule MOL {
0 1

H	 2.708159	 -0.565702	 0.582050
O	 2.016064	 -0.864478	 0.000222
C	 1.050492	 0.053836	 0.000068
C	 -0.318135	 -0.576402	 0.000164
O	 1.285279	 1.218255	 -0.000078
C	 -1.454360	 0.441875	 -0.000474
H	 -0.374042	 -1.230163	 -0.866135
H	 -0.374274	 -1.229227	 0.867154
C	 -2.826123	 -0.230780	 0.000056
H	 -1.357605	 1.085198	 -0.868380
H	 -1.357504	 1.086451	 0.866496
H	 -2.959731	 -0.858053	 -0.876869
H	 -3.619374	 0.509403	 -0.000080
H	 -2.959371	 -0.857318	 0.877556

	symmetry c1
}
set optking {
	frozen_dihedral = ("
		1 2 3 5
	")
}

ee = optimize('scf')
oeprop('DIPOLE', 'QUADRUPOLE', 'MULLIKEN_CHARGES')
f=open( 'psi4out.xyz', 'w' )
f.write( "14  " )
f.write( str(ee) + "\n" )
f.write( MOL.save_string_xyz() )
f.close()
--------------------------------------------------------------------------

    Molecular point group: c1
  Charge       = 0
  Multiplicity = 1
  Basis Set: 6-31G*
  Basis Set:
  @DF-RHF Final Energy:  -305.87186451928426
    Total Energy =                       -305.8718645192843724
    Molecular point group: c1
  Basis Set: 6-31G*
  Basis Set:
  Basis Set: 6-31G*
  Basis Set:
  @DF-RHF Final Energy:  -305.86938417533111
    Total Energy =                       -305.8693841753309357
  Basis Set: 6-31G*
  Basis Set:
  Basis Set: 6-31G*
  Basis Set:
  @DF-RHF Final Energy:  -305.87263014641564
    Total Energy =                       -305.8726301464155313
  Basis Set: 6-31G*
  Basis Set:
  Basis Set: 6-31G*
  Basis Set:
  @DF-RHF Final Energy:  -305.87269051015727
    Total Energy =                       -305.8726905101573266
  Basis Set: 6-31G*
  Basis Set:
  Basis Set: 6-31G*
  Basis Set:
  @DF-RHF Final Energy:  -305.87269815842399
    Total Energy =                       -305.8726981584241003
  Basis Set: 6-31G*
  Basis Set:
  Charge       = 0
  Multiplicity = 1
  Basis Set: 6-31G*
  Basis Set:

    Orbital Energies (a.u.)
    -----------------------

    Doubly Occupied:

       1A    -20.606204     2A    -20.555855     3A    -11.381817
       4A    -11.240812     5A    -11.225273     6A    -11.217038
       7A     -1.468552     8A     -1.367244     9A     -1.082419
      10A     -0.978295    11A     -0.855636    12A     -0.792202
      13A     -0.702788    14A     -0.684932    15A     -0.664004
      16A     -0.623412    17A     -0.581393    18A     -0.569713
      19A     -0.545104    20A     -0.504620    21A     -0.492347
      22A     -0.482108    23A     -0.479853    24A     -0.444297

  @DF-RHF Final Energy:  -305.87269904729419

   => Energetics <=

    Nuclear Repulsion Energy =            239.6549639819074571
    One-Electron Energy =                -891.9634894469234041
    Two-Electron Energy =                 346.4358264177220121
    DFT Exchange-Correlation Energy =       0.0000000000000000
    Empirical Dispersion Energy =           0.0000000000000000
    PCM Polarization Energy =               0.0000000000000000
    EFP Energy =                            0.0000000000000000
    Total Energy =                       -305.8726990472939065
    Molecular point group: c1
  Basis Set: 6-31G*
  Basis Set:

  -Total Gradient:
     Atom            X                  Y                   Z
    ------   -----------------  -----------------  -----------------
       1       -0.004355320497    -0.005751749611     0.009150637247
       2        0.004929828020     0.007287474963    -0.016204577722
       3        0.000293447214    -0.001835557259     0.017498178063
       4        0.000052316404    -0.000056689846     0.000087172018
       5       -0.000920588200     0.000315232173    -0.010436450451
       6        0.000005863036    -0.000015599047    -0.000026263088
       7       -0.000030370606     0.000067467105    -0.000068187633
       8        0.000014587325    -0.000011234884    -0.000009695959
       9        0.000000242315    -0.000001032796     0.000008483533
      10        0.000004690926    -0.000001138501    -0.000004194286
      11        0.000000436592     0.000002164842     0.000004491211
      12       -0.000000391047     0.000003168295    -0.000003429287
      13        0.000003780926     0.000000245015     0.000003315901
      14        0.000001477583    -0.000002750453     0.000000520453

  **** Optimization is complete! (in 6 steps) ****
    Final optimized geometry and variables:
    Molecular point group: c1

    Geometry (in Angstrom), charge = 0, multiplicity = 1:

    H            2.776649440977    -0.604105956990     0.442205768240
    O            2.024113904807    -0.862067328165    -0.078532769583
    C            1.052243871972     0.059249310704     0.038737351582
    C           -0.316148569676    -0.570742625643     0.017778352095
    O            1.279219028868     1.222016445222     0.059447298932
    C           -1.455653981907     0.442593779861    -0.021161160926
    H           -0.349810902887    -1.237796898908    -0.839560789866
    H           -0.389233021691    -1.213425307247     0.891852199623
    C           -2.825268969506    -0.234360217279    -0.036195698109
    H           -1.344066407461     1.071676612077    -0.897894259810
    H           -1.377878700803     1.102145683920     0.836443649495
    H           -2.939869596586    -0.876404518968    -0.905030777974
    H           -3.620667637571     0.503009393330    -0.063889944267
    H           -2.973758469789    -0.846890785580     0.848789916519

  Mulliken Charges: (a.u.)
   Center  Symbol    Alpha    Beta     Spin     Total
       1     H     0.26672  0.26672  0.00000  0.46655
       2     O     4.35791  4.35791  0.00000 -0.71582
       3     C     2.62755  2.62755  0.00000  0.74489
       4     C     3.20912  3.20912  0.00000 -0.41824
       5     O     4.26628  4.26628  0.00000 -0.53256
       6     C     3.15255  3.15255  0.00000 -0.30510
       7     H     0.39762  0.39762  0.00000  0.20476
       8     H     0.40229  0.40229  0.00000  0.19541
       9     C     3.24281  3.24281  0.00000 -0.48562
      10     H     0.41013  0.41013  0.00000  0.17974
      11     H     0.41061  0.41061  0.00000  0.17877
      12     H     0.42057  0.42057  0.00000  0.15887
      13     H     0.41452  0.41452  0.00000  0.17097
      14     H     0.42131  0.42131  0.00000  0.15739

   Total alpha = 24.00000, Total beta = 24.00000, Total charge = -0.00000
