                              Psi4 1.0.54 Driver

  ==> Input File <==

--------------------------------------------------------------------------
set {
	reference rhf
	basis cc-pvtz
}

set_num_threads( 4 )
memory 2 gb

molecule MOL {
0 1

H	 -0.795772	 -2.525162	 0.023769
N	 -0.060930	 -1.859629	 -0.088682
C	 -0.561396	 -0.500007	 0.035200
H	 0.338690	 -2.011541	 -0.991213
C	 0.575129	 0.507849	 -0.048832
H	 -1.045871	 -0.411163	 1.001952
H	 -1.313878	 -0.253674	 -0.715470
C	 1.951750	 -0.141983	 0.035101
H	 0.478254	 1.061643	 -0.975981
H	 0.467676	 1.231891	 0.755499
H	 2.101550	 -0.848142	 -0.774949
H	 2.738260	 0.600794	 -0.026526
H	 2.078939	 -0.679792	 0.968824

	symmetry c1
}
set optking {
	frozen_dihedral = ("
		6 3 5 9
	")
}

ee,wfn = optimize('scf', return_wfn=True)
oeprop( wfn, 'DIPOLE', 'QUADRUPOLE', 'MULLIKEN_CHARGES')
f=open( 'psi4out.xyz', 'w' )
f.write( "13  " )
f.write( str(ee) + "\n" )
f.write( MOL.save_string_xyz() )
f.close()
--------------------------------------------------------------------------

    Molecular point group: c1
  Charge       = 0
  Multiplicity = 1
  Basis Set: CC-PVTZ
  Basis Set:
  @DF-RHF Final Energy:  -173.34103598470784
    Total Energy =                       -173.3410359847078439
    Molecular point group: c1
  Basis Set: CC-PVTZ
  Basis Set:
  Basis Set: CC-PVTZ
  Basis Set:
  @DF-RHF Final Energy:  -173.34185038942073
    Total Energy =                       -173.3418503894206424
  Basis Set: CC-PVTZ
  Basis Set:
  Basis Set: CC-PVTZ
  Basis Set:
  @DF-RHF Final Energy:  -173.34395939294325
    Total Energy =                       -173.3439593929434182
  Basis Set: CC-PVTZ
  Basis Set:
  Basis Set: CC-PVTZ
  Basis Set:
  @DF-RHF Final Energy:  -173.34413528115155
    Total Energy =                       -173.3441352811514946
  Basis Set: CC-PVTZ
  Basis Set:
  Basis Set: CC-PVTZ
  Basis Set:
  @DF-RHF Final Energy:  -173.34414917748487
    Total Energy =                       -173.3441491774848657
  Basis Set: CC-PVTZ
  Basis Set:
  Basis Set: CC-PVTZ
  Basis Set:
  @DF-RHF Final Energy:  -173.34415110021649
    Total Energy =                       -173.3441511002164077
  Basis Set: CC-PVTZ
  Basis Set:
  Charge       = 0
  Multiplicity = 1
  Basis Set: CC-PVTZ
  Basis Set:

    Orbital Energies (a.u.)
    -----------------------

    Doubly Occupied:

       1A    -15.527371     2A    -11.239235     3A    -11.210539
       4A    -11.199210     5A     -1.178032     6A     -1.026758
       7A     -0.906534     8A     -0.786672     9A     -0.668855
      10A     -0.628546    11A     -0.595928    12A     -0.560777
      13A     -0.535118    14A     -0.492451    15A     -0.472409
      16A     -0.458736    17A     -0.381680

  @DF-RHF Final Energy:  -173.34415134332849

   => Energetics <=

    Nuclear Repulsion Energy =            133.8430166019762453
    One-Electron Energy =                -498.6366349745517255
    Two-Electron Energy =                 191.4494670292469607
    DFT Exchange-Correlation Energy =       0.0000000000000000
    Empirical Dispersion Energy =           0.0000000000000000
    PCM Polarization Energy =               0.0000000000000000
    EFP Energy =                            0.0000000000000000
    Total Energy =                       -173.3441513433284911
    Molecular point group: c1
  Basis Set: CC-PVTZ
  Basis Set:

  -Total Gradient:
     Atom            X                  Y                   Z
    ------   -----------------  -----------------  -----------------
       1       -0.000002632076     0.000015496575    -0.000001586041
       2        0.000014501353    -0.000013472900    -0.000001675235
       3        0.002961094220    -0.003478345431     0.002999930805
       4        0.000002867765    -0.000001033565    -0.000004972471
       5        0.002509440112    -0.003717975211    -0.003186527291
       6       -0.002916239454     0.003531096230    -0.002008227395
       7        0.000007674341    -0.000003992318     0.000002387305
       8        0.000002750992     0.000003363066     0.000012017799
       9       -0.002577596497     0.003677621144     0.002197672130
      10        0.000000197519    -0.000010155005    -0.000001751738
      11       -0.000002748500    -0.000003364919    -0.000001891728
      12       -0.000000246912    -0.000000395603    -0.000007478403
      13        0.000000937138     0.000001157940     0.000002102262

  **** Optimization is complete! (in 7 steps) ****
    Final optimized geometry and variables:
    Molecular point group: c1

    Geometry (in Angstrom), charge = 0, multiplicity = 1:

    H           -1.506672349447    -1.890640482609     0.133310790718
    N           -0.701888385585    -1.333827799122    -0.061013791987
    C           -1.021953572235     0.079526086167     0.061924880661
    H           -0.409851999989    -1.558487460184    -0.989021162293
    C            0.200843306708     1.015375064358    -0.066088559867
    H           -1.493601019321     0.238315680989     1.024133730476
    H           -1.764744793756     0.396535926051    -0.669996549499
    C            1.569520161869     0.365705445140     0.106774596624
    H            0.152267526063     1.547136107913    -1.011067439577
    H            0.097273022408     1.792957562177     0.684653358605
    H            1.773640967741    -0.366435411091    -0.664341617098
    H            2.345155243906     1.122059922038     0.057877968961
    H            1.647628060074    -0.139963715495     1.060427301995

  Mulliken Charges: (a.u.)
   Center  Symbol    Alpha    Beta     Spin     Total
       1     H     0.42916  0.42916  0.00000  0.14167
       2     N     3.68468  3.68468  0.00000 -0.36935
       3     C     3.03309  3.03309  0.00000 -0.06619
       4     H     0.43188  0.43188  0.00000  0.13624
       5     C     3.09503  3.09503  0.00000 -0.19005
       6     H     0.45626  0.45626  0.00000  0.08747
       7     H     0.46345  0.46345  0.00000  0.07311
       8     C     3.13958  3.13958  0.00000 -0.27917
       9     H     0.45290  0.45290  0.00000  0.09421
      10     H     0.45390  0.45390  0.00000  0.09220
      11     H     0.45885  0.45885  0.00000  0.08230
      12     H     0.45192  0.45192  0.00000  0.09617
      13     H     0.44931  0.44931  0.00000  0.10138

   Total alpha = 17.00000, Total beta = 17.00000, Total charge =  0.00000

*** Psi4 exiting successfully. Buy a developer a beer!
