  ==> Input File <==

--------------------------------------------------------------------------
set {
	reference rhf
	basis 6-31G*
}

set_num_threads( 1 )
memory 2 gb

molecule MOL {
0 1

H	 -3.859045	 0.973546	 0.256203
O	 -3.004959	 1.289074	 -0.002165
C	 -2.026376	 0.340750	 0.341611
C	 -0.673256	 0.843270	 -0.132153
H	 -2.005435	 0.191207	 1.419635
H	 -2.247894	 -0.621207	 -0.119066
C	 0.486613	 -0.083066	 0.235839
H	 -0.715586	 0.970948	 -1.210718
H	 -0.508072	 1.829858	 0.297090
C	 1.840406	 0.433480	 -0.254303
H	 0.300215	 -1.068318	 -0.178947
H	 0.519509	 -0.203625	 1.318070
C	 3.000220	 -0.489290	 0.118523
H	 1.809207	 0.553576	 -1.335192
H	 2.021860	 1.424500	 0.157276
H	 2.864959	 -1.479103	 -0.307933
H	 3.946603	 -0.099227	 -0.243630
H	 3.080049	 -0.602997	 1.196117

	symmetry c1
}
set optking {
	frozen_dihedral = ("
		14 10 7 11,
		10 7 4 8,
		1 2 3 4
	")
}

ee = energy('scf')
oeprop('DIPOLE', 'QUADRUPOLE', 'MULLIKEN_CHARGES')
f=open( 'psi4out.xyz', 'w' )
f.write( "18  " )
f.write( str(ee) + "\n" )
f.write( MOL.save_string_xyz() )
f.close()
--------------------------------------------------------------------------

    Molecular point group: c1

    Geometry (in Angstrom), charge = 0, multiplicity = 1:

       Center              X                  Y                   Z               Mass
    ------------   -----------------  -----------------  -----------------  -----------------
           H         -3.730928069065     0.575718639196     0.200143070811     1.007825032070
           O         -2.876842069065     0.891246639196    -0.058224929189    15.994914619560
           C         -1.898259069065    -0.057077360804     0.285551070811    12.000000000000
           C         -0.545139069065     0.445442639196    -0.188212929189    12.000000000000
           H         -1.877318069065    -0.206620360804     1.363575070811     1.007825032070
           H         -2.119777069065    -1.019034360804    -0.175125929189     1.007825032070
           C          0.614729930935    -0.480893360804     0.179779070811    12.000000000000
           H         -0.587469069065     0.573120639196    -1.266777929189     1.007825032070
           H         -0.379955069065     1.432030639196     0.241030070811     1.007825032070
           C          1.968522930935     0.035652639196    -0.310362929189    12.000000000000
           H          0.428331930935    -1.466145360804    -0.235006929189     1.007825032070
           H          0.647625930935    -0.601452360804     1.262010070811     1.007825032070
           C          3.128336930935    -0.887117360804     0.062463070811    12.000000000000
           H          1.937323930935     0.155748639196    -1.391251929189     1.007825032070
           H          2.149976930935     1.026672639196     0.101216070811     1.007825032070
           H          2.993075930935    -1.876930360804    -0.363992929189     1.007825032070
           H          4.074719930935    -0.497054360804    -0.299689929189     1.007825032070
           H          3.208165930935    -1.000824360804     1.140057070811     1.007825032070

  Charge       = 0
  Multiplicity = 1
  Basis Set: 6-31G*
  Basis Set:

    Orbital Energies (a.u.)
    -----------------------

    Doubly Occupied:

       1A    -20.552038     2A    -11.267484     3A    -11.216507
       4A    -11.215915     5A    -11.211115     6A    -11.208956
       7A     -1.358432     8A     -1.080689     9A     -1.011172
      10A     -0.913761    11A     -0.819726    12A     -0.792376
      13A     -0.692233    14A     -0.662753    15A     -0.621475
      16A     -0.587715    17A     -0.571999    18A     -0.556202
      19A     -0.531073    20A     -0.493344    21A     -0.489693
      22A     -0.468452    23A     -0.464889    24A     -0.451745
      25A     -0.434040

  @DF-RHF Final Energy:  -271.17963806509727

   => Energetics <=

    Nuclear Repulsion Energy =            245.0872017264460681
    One-Electron Energy =                -853.1862029865551449
    Two-Electron Energy =                 336.9193631950122949
    DFT Exchange-Correlation Energy =       0.0000000000000000
    Empirical Dispersion Energy =           0.0000000000000000
    PCM Polarization Energy =               0.0000000000000000
    EFP Energy =                            0.0000000000000000
    Total Energy =                       -271.1796380650967535

  Mulliken Charges: (a.u.)
   Center  Symbol    Alpha    Beta     Spin     Total
       1     H     0.28097  0.28097  0.00000  0.43805
       2     O     4.37193  4.37193  0.00000 -0.74386
       3     C     2.98934  2.98934  0.00000  0.02133
       4     C     3.15970  3.15970  0.00000 -0.31940
       5     H     0.43282  0.43282  0.00000  0.13435
       6     H     0.43305  0.43305  0.00000  0.13391
       7     C     3.15836  3.15836  0.00000 -0.31673
       8     H     0.41566  0.41566  0.00000  0.16868
       9     H     0.41484  0.41484  0.00000  0.17031
      10     C     3.15103  3.15103  0.00000 -0.30206
      11     H     0.42348  0.42348  0.00000  0.15305
      12     H     0.42383  0.42383  0.00000  0.15235
      13     C     3.23939  3.23939  0.00000 -0.47877
      14     H     0.42163  0.42163  0.00000  0.15675
      15     H     0.42136  0.42136  0.00000  0.15728
      16     H     0.42191  0.42191  0.00000  0.15617
      17     H     0.41883  0.41883  0.00000  0.16235
      18     H     0.42187  0.42187  0.00000  0.15625

   Total alpha = 25.00000, Total beta = 25.00000, Total charge =  0.00000
