  ==> Input File <==

--------------------------------------------------------------------------
set {
	reference rhf
	basis 6-31G*
}

set_num_threads( 4 )
memory 2 gb

molecule MOL {
0 1

H	 2.591676	 2.013956	 0.335017
O	 3.341076	 1.666752	 -0.126416
C	 3.569581	 0.339145	 0.272707
C	 2.539767	 -0.640285	 -0.279495
H	 4.553106	 0.084646	 -0.100901
H	 3.608576	 0.269204	 1.359154
C	 1.115811	 -0.397273	 0.226630
H	 2.556196	 -0.582511	 -1.364741
H	 2.852081	 -1.648031	 -0.010655
C	 0.115918	 -1.429151	 -0.302766
H	 0.797950	 0.599468	 -0.066350
H	 1.109961	 -0.420744	 1.316472
C	 -0.068647	 -1.425057	 -1.824692
H	 0.422095	 -2.422623	 0.019907
H	 -0.850479	 -1.244543	 0.161665
C	 1.162087	 -1.861406	 -2.624300
H	 -0.894932	 -2.088876	 -2.070482
H	 -0.374349	 -0.430816	 -2.146978
C	 0.897204	 -1.942593	 -4.129186
H	 1.496374	 -2.834167	 -2.266388
H	 1.985408	 -1.173028	 -2.449427
C	 2.125880	 -2.371737	 -4.930344
H	 0.084064	 -2.641175	 -4.314318
H	 0.553779	 -0.974070	 -4.486826
H	 2.474512	 -3.352216	 -4.618348
H	 1.905753	 -2.421764	 -5.992265
H	 2.946238	 -1.672296	 -4.795586

	symmetry c1
}
set optking {
	frozen_dihedral = ("
		14 10 7 4
	")
}

ee = optimize('scf')
oeprop('DIPOLE', 'QUADRUPOLE', 'MULLIKEN_CHARGES')
f=open( 'psi4out.xyz', 'w' )
f.write( "27  " )
f.write( str(ee) + "\n" )
f.write( MOL.save_string_xyz() )
f.close()
--------------------------------------------------------------------------

    Molecular point group: c1
  Charge       = 0
  Multiplicity = 1
  Basis Set: 6-31G*
  Basis Set:
  @DF-RHF Final Energy:  -388.25861530846294
    Total Energy =                       -388.2586153084635043
    Molecular point group: c1
  Basis Set: 6-31G*
  Basis Set:
  Basis Set: 6-31G*
  Basis Set:
  @DF-RHF Final Energy:  -388.27249268076383
    Total Energy =                       -388.2724926807630936
  Basis Set: 6-31G*
  Basis Set:
  Basis Set: 6-31G*
  Basis Set:
  @DF-RHF Final Energy:  -388.27563745459082
    Total Energy =                       -388.2756374545904237
  Basis Set: 6-31G*
  Basis Set:
  Basis Set: 6-31G*
  Basis Set:
  @DF-RHF Final Energy:  -388.27656603879308
    Total Energy =                       -388.2765660387924527
  Basis Set: 6-31G*
  Basis Set:
  @DF-RHF Final Energy:  -388.27710501228131
    Total Energy =                       -388.2771050122807992
  @DF-RHF Final Energy:  -388.27727046371234
    Total Energy =                       -388.2772704637122843
  @DF-RHF Final Energy:  -388.27727314794782
    Total Energy =                       -388.2772731479485628
  @DF-RHF Final Energy:  -388.27731141649525
    Total Energy =                       -388.2773114164953085
  Basis Set: 6-31G*
  Basis Set:
  @DF-RHF Final Energy:  -388.27731706301427
    Total Energy =                       -388.2773170630146069
  Basis Set: 6-31G*
  Basis Set:
  Basis Set: 6-31G*
  Basis Set:
  @DF-RHF Final Energy:  -388.27731901118545
    Total Energy =                       -388.2773190111860231
  Basis Set: 6-31G*
  Basis Set:
  Basis Set: 6-31G*
  Basis Set:
  @DF-RHF Final Energy:  -388.27732006383781
    Total Energy =                       -388.2773200638376920
  Basis Set: 6-31G*
  Basis Set:
  Charge       = 0
  Multiplicity = 1
  Basis Set: 6-31G*
  Basis Set:

    Orbital Energies (a.u.)
    -----------------------

    Doubly Occupied:

       1A    -20.552470     2A    -11.267217     3A    -11.221025
       4A    -11.217634     5A    -11.215103     6A    -11.214464
       7A    -11.214119     8A    -11.212342     9A    -11.207875
      10A     -1.359257    11A     -1.093287    12A     -1.059727
      13A     -1.008788    14A     -0.951364    15A     -0.884856
      16A     -0.829623    17A     -0.791802    18A     -0.776762
      19A     -0.696046    20A     -0.646988    21A     -0.633736
      22A     -0.615277    23A     -0.607004    24A     -0.586384
      25A     -0.566902    26A     -0.554090    27A     -0.548162
      28A     -0.518555    29A     -0.513269    30A     -0.497310
      31A     -0.483108    32A     -0.472775    33A     -0.464668
      34A     -0.460451    35A     -0.454778    36A     -0.435253
      37A     -0.422769

  @DF-RHF Final Energy:  -388.27732034741399

   => Energetics <=

    Nuclear Repulsion Energy =            467.7627362086923881
    One-Electron Energy =               -1453.5696273990583904
    Two-Electron Energy =                 597.5295708429523529
    DFT Exchange-Correlation Energy =       0.0000000000000000
    Empirical Dispersion Energy =           0.0000000000000000
    PCM Polarization Energy =               0.0000000000000000
    EFP Energy =                            0.0000000000000000
    Total Energy =                       -388.2773203474137063
    Molecular point group: c1
  Basis Set: 6-31G*
  Basis Set:

  -Total Gradient:
     Atom            X                  Y                   Z
    ------   -----------------  -----------------  -----------------
       1        0.000008330255    -0.000014250322     0.000000134476
       2        0.000008267159     0.000011899245    -0.000014505848
       3       -0.000030352961    -0.000020285655     0.000004760535
       4        0.000032716799    -0.000042906685     0.000057173150
       5       -0.000004608168     0.000012221784    -0.000003302880
       6       -0.000001040224    -0.000008564099    -0.000006536832
       7       -0.000034193740     0.000079562315    -0.000082912025
       8        0.000001322680    -0.000004681623     0.000023207131
       9        0.000007294168    -0.000001089266    -0.000006099667
      10       -0.000049945716    -0.000032693183     0.000122052405
      11       -0.000005043529     0.000010862491    -0.000000157222
      12        0.000009517573     0.000002963090    -0.000004174979
      13       -0.000008147945    -0.000007451979    -0.000012384058
      14        0.000057221805     0.000003548055    -0.000077992864
      15        0.000007584779     0.000000528925     0.000002658977
      16       -0.000009453032     0.000003609191    -0.000020700778
      17       -0.000006159238     0.000013756039     0.000000863027
      18        0.000002498571    -0.000001653785    -0.000002062538
      19        0.000002933669    -0.000012713822     0.000009124559
      20        0.000012510281    -0.000009262081    -0.000005706564
      21       -0.000001429706     0.000011631888     0.000006285814
      22        0.000003581660     0.000003070387     0.000003675713
      23       -0.000007855452     0.000005055041     0.000004552346
      24        0.000006026663    -0.000003413104    -0.000000974039
      25       -0.000000742951    -0.000001139625     0.000000416847
      26       -0.000002498133     0.000001492895     0.000003536912
      27        0.000001664735    -0.000000096125    -0.000000931597

  **** Optimization is complete! (in 12 steps) ****
    Final optimized geometry and variables:
    Molecular point group: c1

    Geometry (in Angstrom), charge = 0, multiplicity = 1:

    H            0.578112419152     2.927700208435     2.414309624918
    O            1.394014457285     2.813238304050     1.949045056517
    C            1.833125829604     1.485549778027     2.084146041520
    C            1.002517378754     0.494341996473     1.275581179615
    H            2.856959889464     1.477389721441     1.732927700800
    H            1.848685027423     1.193868751844     3.133653325146
    C           -0.454916957810     0.405698881299     1.735953882625
    H            1.050550723953     0.786777331217     0.231624523056
    H            1.469960302856    -0.485658785452     1.356526753467
    C           -1.300080342842    -0.689308269582     1.070703423010
    H           -0.943356841127     1.363996028731     1.570124318550
    H           -0.470248756345     0.233803925172     2.811919022986
    C           -1.526372953204    -0.533304011679    -0.446409525079
    H           -0.855483622724    -1.661552998348     1.274865161968
    H           -2.266081991771    -0.694232335372     1.568343004309
    C           -0.550581013805    -1.317539509857    -1.330042187085
    H           -2.533142934439    -0.866961077547    -0.685948176057
    H           -1.492706075831     0.521546440963    -0.713009623275
    C           -0.810941744306    -1.122946670823    -2.824952841778
    H           -0.630002924018    -2.376315930779    -1.088324124459
    H            0.474022701272    -1.033231091851    -1.107666973577
    C            0.143033468151    -1.927371451564    -3.707395180597
    H           -1.836882321901    -1.405536368643    -3.051943141681
    H           -0.724685361138    -0.066619789898    -3.070701043596
    H            0.055516100648    -2.992228715565    -3.510513172082
    H           -0.065973821917    -1.767838863109    -4.760716389476
    H            1.176275236875    -1.643091579825    -3.528859376844

  Mulliken Charges: (a.u.)
   Center  Symbol    Alpha    Beta     Spin     Total
       1     H     0.27969  0.27969  0.00000  0.44062
       2     O     4.37116  4.37116  0.00000 -0.74233
       3     C     2.99740  2.99740  0.00000  0.00519
       4     C     3.16284  3.16284  0.00000 -0.32569
       5     H     0.41448  0.41448  0.00000  0.17103
       6     H     0.43192  0.43192  0.00000  0.13616
       7     C     3.16294  3.16294  0.00000 -0.32589
       8     H     0.41311  0.41311  0.00000  0.17378
       9     H     0.42421  0.42421  0.00000  0.15159
      10     C     3.15434  3.15434  0.00000 -0.30867
      11     H     0.42448  0.42448  0.00000  0.15105
      12     H     0.42468  0.42468  0.00000  0.15063
      13     C     3.15709  3.15709  0.00000 -0.31418
      14     H     0.42185  0.42185  0.00000  0.15630
      15     H     0.41946  0.41946  0.00000  0.16108
      16     C     3.15312  3.15312  0.00000 -0.30624
      17     H     0.42087  0.42087  0.00000  0.15825
      18     H     0.42096  0.42096  0.00000  0.15808
      19     C     3.15212  3.15212  0.00000 -0.30424
      20     H     0.42446  0.42446  0.00000  0.15108
      21     H     0.42056  0.42056  0.00000  0.15889
      22     C     3.23923  3.23923  0.00000 -0.47847
      23     H     0.42341  0.42341  0.00000  0.15317
      24     H     0.42244  0.42244  0.00000  0.15511
      25     H     0.42213  0.42213  0.00000  0.15575
      26     H     0.41930  0.41930  0.00000  0.16141
      27     H     0.42173  0.42173  0.00000  0.15654

   Total alpha = 37.00000, Total beta = 37.00000, Total charge = -0.00000
