  ==> Input File <==

--------------------------------------------------------------------------
set {
	reference rhf
	basis cc-pvtz
}

set_num_threads( 4 )
memory 2 gb

molecule MOL {
0 1

H	 2.556301	 -0.903777	 0.749101
N	 2.433987	 -0.362316	 -0.080024
C	 1.263552	 0.494993	 0.021953
H	 2.340742	 -1.003821	 -0.839704
C	 -0.016533	 -0.325589	 -0.026925
H	 1.280915	 1.180773	 -0.818522
H	 1.263064	 1.106893	 0.925038
C	 -1.280353	 0.525521	 0.047747
H	 -0.016686	 -0.912532	 -0.939714
H	 -0.014099	 -1.037598	 0.796369
C	 -2.560681	 -0.301323	 -0.007747
H	 -1.279957	 1.241025	 -0.770189
H	 -1.270445	 1.110526	 0.963468
H	 -2.617064	 -0.872870	 -0.928010
H	 -3.439525	 0.331102	 0.043462
H	 -2.609427	 -1.002736	 0.818585

	symmetry c1
}
set optking {
	frozen_dihedral = ("
		1 2 3 6
	")
}

ee = optimize('scf')
oeprop('DIPOLE', 'QUADRUPOLE', 'MULLIKEN_CHARGES')
f=open( 'psi4out.xyz', 'w' )
f.write( "16  " )
f.write( str(ee) + "\n" )
f.write( MOL.save_string_xyz() )
f.close()
--------------------------------------------------------------------------

    Molecular point group: c1
  Charge       = 0
  Multiplicity = 1
  Basis Set: CC-PVTZ
  Basis Set:
  @DF-RHF Final Energy:  -212.39804236316027
    Total Energy =                       -212.3980423631602434
    Molecular point group: c1
  Basis Set: CC-PVTZ
  Basis Set:
  Basis Set: CC-PVTZ
  Basis Set:
  @DF-RHF Final Energy:  -212.39992417187986
    Total Energy =                       -212.3999241718798885
  Basis Set: CC-PVTZ
  Basis Set:
  Basis Set: CC-PVTZ
  Basis Set:
  @DF-RHF Final Energy:  -212.40013976365242
    Total Energy =                       -212.4001397636521915
  Basis Set: CC-PVTZ
  Basis Set:
  Basis Set: CC-PVTZ
  Basis Set:
  @DF-RHF Final Energy:  -212.40014394490916
    Total Energy =                       -212.4001439449091890
  Basis Set: CC-PVTZ
  Basis Set:
  Charge       = 0
  Multiplicity = 1
  Basis Set: CC-PVTZ
  Basis Set:

    Orbital Energies (a.u.)
    -----------------------

    Doubly Occupied:

       1A    -15.526117     2A    -11.238080     3A    -11.215427
       4A    -11.211008     5A    -11.208444     6A     -1.178384
       7A     -1.062754     8A     -0.960141     9A     -0.848374
      10A     -0.796779    11A     -0.679505    12A     -0.626693
      13A     -0.598465    14A     -0.588777    15A     -0.553695
      16A     -0.527450    17A     -0.499599    18A     -0.489891
      19A     -0.471450    20A     -0.465839    21A     -0.378318

  @DF-RHF Final Energy:  -212.40014426115624

   => Energetics <=

    Nuclear Repulsion Energy =            186.3668811175595579
    One-Electron Energy =                -655.2836717454376867
    Two-Electron Energy =                 256.5166463667218864
    DFT Exchange-Correlation Energy =       0.0000000000000000
    Empirical Dispersion Energy =           0.0000000000000000
    PCM Polarization Energy =               0.0000000000000000
    EFP Energy =                            0.0000000000000000
    Total Energy =                       -212.4001442611562425
    Molecular point group: c1
  Basis Set: CC-PVTZ
  Basis Set:

  -Total Gradient:
     Atom            X                  Y                   Z
    ------   -----------------  -----------------  -----------------
       1        0.000526184043     0.000786506163     0.000462086655
       2       -0.000545998781    -0.000847496495    -0.000477171563
       3       -0.000448686424    -0.000600605440    -0.000594210774
       4       -0.000014828799     0.000012755091     0.000021605937
       5        0.000081867436     0.000012701902     0.000009037953
       6        0.000443148872     0.000633758646     0.000560918465
       7       -0.000002034104     0.000000710387     0.000013131541
       8        0.000018154485    -0.000009134262     0.000001865805
       9       -0.000004877981     0.000004559607     0.000020772381
      10        0.000000586296     0.000002660780    -0.000005451892
      11       -0.000042279622     0.000014361113    -0.000013569665
      12       -0.000002781838     0.000000191287     0.000008338860
      13        0.000003345092    -0.000008701439    -0.000002643106
      14        0.000001139977    -0.000002095612     0.000001689696
      15       -0.000019264063    -0.000010551737    -0.000005630474
      16        0.000006325408     0.000010380008    -0.000000769819

  **** Optimization is complete! (in 5 steps) ****
    Final optimized geometry and variables:
    Molecular point group: c1

    Geometry (in Angstrom), charge = 0, multiplicity = 1:

    H            2.612813623101    -0.865683902696     0.767244371991
    N            2.495408936156    -0.305923576866    -0.050581362598
    C            1.270064142782     0.470794573293     0.015656955459
    H            2.495901572258    -0.918825125522    -0.838507163111
    C           -0.026573647940    -0.333542143723    -0.021404657522
    H            1.280006433338     1.185076513865    -0.801433872323
    H            1.303394359192     1.060218659071     0.926192947005
    C           -1.278283597912     0.536210531506     0.049753292527
    H           -0.050038722643    -0.926856900832    -0.933358922675
    H           -0.028874155872    -1.042082017038     0.804255574697
    C           -2.572846576086    -0.268991034445     0.006680891323
    H           -1.269344344015     1.246181231328    -0.772812315806
    H           -1.253241040520     1.127492992323     0.961148682844
    H           -2.644635030370    -0.845176083264    -0.909785134055
    H           -3.440585986223     0.378489847208     0.058633358427
    H           -2.628763601409    -0.964203819875     0.837702386767

  Mulliken Charges: (a.u.)
   Center  Symbol    Alpha    Beta     Spin     Total
       1     H     0.43164  0.43164  0.00000  0.13671
       2     N     3.69025  3.69025  0.00000 -0.38049
       3     C     3.02972  3.02972  0.00000 -0.05943
       4     H     0.43170  0.43170  0.00000  0.13660
       5     C     3.08483  3.08483  0.00000 -0.16967
       6     H     0.45303  0.45303  0.00000  0.09393
       7     H     0.45377  0.45377  0.00000  0.09245
       8     C     3.08951  3.08951  0.00000 -0.17902
       9     H     0.46001  0.46001  0.00000  0.07997
      10     H     0.45994  0.45994  0.00000  0.08012
      11     C     3.14850  3.14850  0.00000 -0.29701
      12     H     0.45440  0.45440  0.00000  0.09121
      13     H     0.45445  0.45445  0.00000  0.09110
      14     H     0.45494  0.45494  0.00000  0.09012
      15     H     0.44832  0.44832  0.00000  0.10337
      16     H     0.45498  0.45498  0.00000  0.09003

   Total alpha = 21.00000, Total beta = 21.00000, Total charge = -0.00000
