  ==> Input File <==

--------------------------------------------------------------------------
set {
	reference rhf
	basis cc-pvtz
}

set_num_threads( 4 )
memory 2 gb

molecule MOL {
0 1

H	 2.614283	 2.028610	 0.296620
O	 3.358864	 1.662087	 -0.142800
C	 3.565468	 0.338079	 0.273842
C	 2.533667	 -0.637565	 -0.272227
H	 4.548038	 0.064914	 -0.086598
H	 3.593945	 0.282242	 1.360360
C	 1.114816	 -0.402372	 0.240993
H	 2.544552	 -0.580764	 -1.356576
H	 2.850574	 -1.642962	 -0.005497
C	 0.113298	 -1.420414	 -0.302504
H	 0.796373	 0.598427	 -0.031033
H	 1.113377	 -0.446476	 1.328807
C	 -1.349154	 -1.138045	 0.046433
H	 0.218739	 -1.483064	 -1.382867
H	 0.374922	 -2.401712	 0.083600
C	 -1.939302	 0.112007	 -0.603827
H	 -1.943182	 -1.996753	 -0.254033
H	 -1.452096	 -1.064086	 1.126751
C	 -3.425143	 0.295660	 -0.305569
H	 -1.795142	 0.057179	 -1.680712
H	 -1.403553	 0.995392	 -0.269751
C	 -4.016682	 1.544826	 -0.950208
H	 -3.970696	 -0.579045	 -0.648850
H	 -3.571873	 0.342130	 0.770244
H	 -3.914443	 1.513832	 -2.029941
H	 -5.071624	 1.643405	 -0.721106
H	 -3.517098	 2.441403	 -0.598191

	symmetry c1
}
set optking {
	frozen_dihedral = ("
		14 10 7 4
	")
}

ee = optimize('scf')
oeprop('DIPOLE', 'QUADRUPOLE', 'MULLIKEN_CHARGES')
f=open( 'psi4out.xyz', 'w' )
f.write( "27  " )
f.write( str(ee) + "\n" )
f.write( MOL.save_string_xyz() )
f.close()
--------------------------------------------------------------------------

    Molecular point group: c1
  Charge       = 0
  Multiplicity = 1
  Basis Set: CC-PVTZ
  Basis Set:
  @DF-RHF Final Energy:  -388.42740730659148
    Total Energy =                       -388.4274073065909079
    Molecular point group: c1
  Basis Set: CC-PVTZ
  Basis Set:
  Basis Set: CC-PVTZ
  Basis Set:
  @DF-RHF Final Energy:  -388.42734418623473
    Total Energy =                       -388.4273441862350182
  Basis Set: CC-PVTZ
  Basis Set:
  Basis Set: CC-PVTZ
  Basis Set:
  @DF-RHF Final Energy:  -388.42748657302161
    Total Energy =                       -388.4274865730210422
  Basis Set: CC-PVTZ
  Basis Set:
  Basis Set: CC-PVTZ
  Basis Set:
  @DF-RHF Final Energy:  -388.42749162614308
    Total Energy =                       -388.4274916261431372
  Basis Set: CC-PVTZ
  Basis Set:
  Charge       = 0
  Multiplicity = 1
  Basis Set: CC-PVTZ
  Basis Set:

    Orbital Energies (a.u.)
    -----------------------

    Doubly Occupied:

       1A    -20.545402     2A    -11.264985     3A    -11.216646
       4A    -11.214659     5A    -11.213737     6A    -11.213293
       7A    -11.213274     8A    -11.211640     9A    -11.207037
      10A     -1.363270    11A     -1.095995    12A     -1.062521
      13A     -1.012418    14A     -0.949489    15A     -0.888408
      16A     -0.820617    17A     -0.800923    18A     -0.779415
      19A     -0.696609    20A     -0.649958    21A     -0.640592
      22A     -0.615959    23A     -0.603550    24A     -0.581997
      25A     -0.581494    26A     -0.554082    27A     -0.540765
      28A     -0.531633    29A     -0.506140    30A     -0.495547
      31A     -0.484741    32A     -0.474049    33A     -0.470137
      34A     -0.461335    35A     -0.451998    36A     -0.442526
      37A     -0.425751

  @DF-RHF Final Energy:  -388.42749262452361

   => Energetics <=

    Nuclear Repulsion Energy =            460.3526437385551731
    One-Electron Energy =               -1438.9950905807868367
    Two-Electron Energy =                 590.2149542177085095
    DFT Exchange-Correlation Energy =       0.0000000000000000
    Empirical Dispersion Energy =           0.0000000000000000
    PCM Polarization Energy =               0.0000000000000000
    EFP Energy =                            0.0000000000000000
    Total Energy =                       -388.4274926245232109
    Molecular point group: c1
  Basis Set: CC-PVTZ
  Basis Set:

  -Total Gradient:
     Atom            X                  Y                   Z
    ------   -----------------  -----------------  -----------------
       1        0.000012904778    -0.000013549727     0.000002909424
       2        0.000056107779     0.000010776742    -0.000032910251
       3       -0.000056165858     0.000019566839     0.000081746880
       4       -0.000218614398     0.000721487342    -0.000988684783
       5       -0.000006700237     0.000016315366    -0.000000875759
       6        0.000015053871     0.000001254266     0.000008259946
       7        0.000527347818    -0.001282116568     0.001313310598
       8       -0.000031299270    -0.000012737684    -0.000015506009
       9        0.000001360634     0.000011349780    -0.000005633209
      10       -0.001459848731     0.001764126673    -0.000518686108
      11       -0.000013354065    -0.000002367373     0.000000872159
      12        0.000010321593    -0.000019651715     0.000011748336
      13        0.000033421442     0.000035544377    -0.000004698251
      14        0.001105927136    -0.001196112543     0.000148765134
      15       -0.000017033418    -0.000028199269     0.000021735007
      16        0.000004105157    -0.000019433258    -0.000006382608
      17        0.000010414490     0.000016144918    -0.000010363294
      18        0.000021789337    -0.000012625964     0.000009585125
      19       -0.000012970025    -0.000014625233    -0.000020935754
      20        0.000000447031     0.000005519754    -0.000002084480
      21        0.000015129419    -0.000006978418     0.000002792231
      22        0.000001846849     0.000008461536     0.000010135422
      23       -0.000002335934    -0.000005346964    -0.000003219738
      24        0.000002157669    -0.000001431674    -0.000005334203
      25       -0.000002118976    -0.000004663739     0.000003505534
      26       -0.000000060223     0.000003924440     0.000004135597
      27        0.000002166139     0.000005368095    -0.000004186948

  **** Optimization is complete! (in 5 steps) ****
    Final optimized geometry and variables:
    Molecular point group: c1

    Geometry (in Angstrom), charge = 0, multiplicity = 1:

    H            2.627251358927     1.924302403279     0.619590814467
    O            3.364567752126     1.567126017574     0.160880898770
    C            3.550511616687     0.221659205228     0.513547703080
    C            2.500954994032    -0.709854593213    -0.073972135641
    H            4.527327590589    -0.050049731196     0.136778703680
    H            3.581454301294     0.114036516208     1.596024261714
    C            1.085586205110    -0.467377441850     0.445307261104
    H            2.513611269025    -0.608162221408    -1.154746142472
    H            2.798678104717    -1.731552610966     0.150572691512
    C            0.073511736332    -1.472480642030    -0.103914958247
    H            0.779387597872     0.538579538956     0.178152516072
    H            1.081364813683    -0.516591922663     1.532502662537
    C           -1.384092139482    -1.194001192435     0.266417107353
    H            0.172953446675    -1.528852703612    -1.185112375662
    H            0.340272580738    -2.458858733822     0.266286897648
    C           -2.002122355043     0.025354666095    -0.415580161482
    H           -1.975536449120    -2.068032557118     0.008665616712
    H           -1.465152973909    -1.083911096278     1.345588214682
    C           -3.476811120595     0.218795585859    -0.071793085282
    H           -1.897256697937    -0.077743222237    -1.493271946557
    H           -1.458257561878     0.924337724326    -0.142187951614
    C           -4.096920803111     1.434901278757    -0.751719899253
    H           -4.030854093068    -0.672401187710    -0.353560951878
    H           -3.584252048210     0.315173003836     1.005295330123
    H           -4.036036635866     1.352746041303    -1.831845866382
    H           -5.142598688397     1.542585899885    -0.487154457121
    H           -3.587240198983     2.347973168495    -0.462238311293

  Mulliken Charges: (a.u.)
   Center  Symbol    Alpha    Beta     Spin     Total
       1     H     0.39223  0.39223  0.00000  0.21554
       2     O     4.20554  4.20554  0.00000 -0.41108
       3     C     2.97960  2.97960  0.00000  0.04079
       4     C     3.08965  3.08965  0.00000 -0.17930
       5     H     0.44884  0.44884  0.00000  0.10232
       6     H     0.46950  0.46950  0.00000  0.06099
       7     C     3.10156  3.10156  0.00000 -0.20312
       8     H     0.45050  0.45050  0.00000  0.09901
       9     H     0.45541  0.45541  0.00000  0.08919
      10     C     3.09960  3.09960  0.00000 -0.19921
      11     H     0.45643  0.45643  0.00000  0.08713
      12     H     0.45320  0.45320  0.00000  0.09360
      13     C     3.09813  3.09813  0.00000 -0.19625
      14     H     0.45216  0.45216  0.00000  0.09569
      15     H     0.44782  0.44782  0.00000  0.10437
      16     C     3.08714  3.08714  0.00000 -0.17428
      17     H     0.44770  0.44770  0.00000  0.10460
      18     H     0.45437  0.45437  0.00000  0.09127
      19     C     3.08422  3.08422  0.00000 -0.16844
      20     H     0.45421  0.45421  0.00000  0.09157
      21     H     0.45521  0.45521  0.00000  0.08957
      22     C     3.14953  3.14953  0.00000 -0.29907
      23     H     0.45386  0.45386  0.00000  0.09229
      24     H     0.45472  0.45472  0.00000  0.09057
      25     H     0.45484  0.45484  0.00000  0.09032
      26     H     0.44834  0.44834  0.00000  0.10332
      27     H     0.45568  0.45568  0.00000  0.08863

   Total alpha = 37.00000, Total beta = 37.00000, Total charge = -0.00000
