                              Psi4 1.0.54 Driver

  ==> Input File <==

--------------------------------------------------------------------------
set {
	reference rhf
	basis cc-pvtz
}

set_num_threads( 4 )
memory 2 gb

molecule MOL {
0 1

H	 -3.436473	 1.252944	 -1.023892
O	 -3.458596	 0.315260	 -0.960865
C	 -3.176635	 -0.080824	 0.355601
C	 -1.763371	 0.265266	 0.799691
H	 -3.321825	 -1.153438	 0.379502
H	 -3.895468	 0.357385	 1.043382
C	 -0.673390	 -0.426948	 -0.013392
H	 -1.631049	 1.344913	 0.747560
H	 -1.664587	 -0.001624	 1.849167
C	 0.195094	 -1.364602	 0.821180
H	 -0.049033	 0.323285	 -0.485876
H	 -1.137551	 -0.988872	 -0.820425
C	 1.280769	 -2.058009	 0.000483
H	 0.646519	 -0.799155	 1.630732
H	 -0.434235	 -2.118542	 1.289559
C	 2.126705	 -3.069418	 0.775914
H	 1.933976	 -1.306623	 -0.437227
H	 0.810102	 -2.571257	 -0.833585
C	 3.005448	 -2.463072	 1.867380
H	 2.762724	 -3.596261	 0.071150
H	 1.474833	 -3.820561	 1.214396
H	 3.664486	 -1.703471	 1.459028
H	 3.625502	 -3.223531	 2.328333
H	 2.417893	 -2.003280	 2.652859

	symmetry c1
}
set optking {
	frozen_dihedral = ("
		11 7 4 3
	")
}

ee,wfn = optimize('scf', return_wfn=True)
oeprop( wfn, 'DIPOLE', 'QUADRUPOLE', 'MULLIKEN_CHARGES')
f=open( 'psi4out.xyz', 'w' )
f.write( "24  " )
f.write( str(ee) + "\n" )
f.write( MOL.save_string_xyz() )
f.close()
--------------------------------------------------------------------------

    Molecular point group: c1
  Charge       = 0
  Multiplicity = 1
  Basis Set: CC-PVTZ
  Basis Set:
  @DF-RHF Final Energy:  -349.37526633561072
    Total Energy =                       -349.3752663356105472
    Molecular point group: c1
  Basis Set: CC-PVTZ
  Basis Set:
  Basis Set: CC-PVTZ
  Basis Set:
  @DF-RHF Final Energy:  -349.37548511632968
    Total Energy =                       -349.3754851163297985
  Basis Set: CC-PVTZ
  Basis Set:
  Basis Set: CC-PVTZ
  Basis Set:
  @DF-RHF Final Energy:  -349.37555176563961
    Total Energy =                       -349.3755517656391589
  Basis Set: CC-PVTZ
  Basis Set:
  Charge       = 0
  Multiplicity = 1
  Basis Set: CC-PVTZ
  Basis Set:

    Orbital Energies (a.u.)
    -----------------------

    Doubly Occupied:

       1A    -20.546281     2A    -11.265612     3A    -11.214993
       4A    -11.211905     5A    -11.210406     6A    -11.209140
       7A    -11.208969     8A    -11.205162     9A     -1.364415
      10A     -1.088766    11A     -1.047748    12A     -0.986140
      13A     -0.915579    14A     -0.853332    15A     -0.801058
      16A     -0.777057    17A     -0.680355    18A     -0.648970
      19A     -0.634241    20A     -0.614734    21A     -0.607037
      22A     -0.578274    23A     -0.553209    24A     -0.547751
      25A     -0.520952    26A     -0.508409    27A     -0.494540
      28A     -0.477640    29A     -0.469489    30A     -0.460600
      31A     -0.452718    32A     -0.444904    33A     -0.423473

  @DF-RHF Final Energy:  -349.37555259434453

   => Energetics <=

    Nuclear Repulsion Energy =            385.7229764983161431
    One-Electron Energy =               -1238.1493396499786286
    Two-Electron Energy =                 503.0508105573180728
    DFT Exchange-Correlation Energy =       0.0000000000000000
    Empirical Dispersion Energy =           0.0000000000000000
    PCM Polarization Energy =               0.0000000000000000
    EFP Energy =                            0.0000000000000000
    Total Energy =                       -349.3755525943444127
    Molecular point group: c1
  Basis Set: CC-PVTZ
  Basis Set:

  -Total Gradient:
     Atom            X                  Y                   Z
    ------   -----------------  -----------------  -----------------
       1        0.000007730209    -0.000166299385     0.000072021072
       2        0.000079641468    -0.000037558538    -0.000122733117
       3       -0.000063312328     0.000512826178    -0.000198953652
       4       -0.000145208396    -0.000490607049     0.000308784663
       5       -0.000013218852     0.000062146802    -0.000040395806
       6        0.000053278143    -0.000025263000     0.000005893596
       7        0.000412179176     0.000169857895     0.000326314575
       8       -0.000017202639    -0.000092158957    -0.000007901291
       9        0.000070100864    -0.000035932179     0.000009369359
      10        0.000011797953    -0.000006248721     0.000076793348
      11       -0.000312880182     0.000028853101    -0.000453466525
      12       -0.000041083440     0.000067327454     0.000012442341
      13       -0.000029479723     0.000048673727    -0.000013612990
      14       -0.000026303428     0.000001794537    -0.000048448187
      15        0.000001649145    -0.000020227597     0.000049823895
      16       -0.000053998214    -0.000005747725     0.000042993601
      17        0.000007457664     0.000014265882     0.000012494057
      18        0.000022125742     0.000000864401    -0.000019364232
      19        0.000015115740    -0.000005731467     0.000000035341
      20       -0.000014878099    -0.000004927209    -0.000002860555
      21       -0.000001246234     0.000004547735     0.000012149186
      22        0.000002951725     0.000010716755     0.000002612097
      23        0.000002987402     0.000002564435    -0.000014406415
      24        0.000031796296    -0.000033737071    -0.000009584358

  **** Optimization is complete! (in 4 steps) ****
    Final optimized geometry and variables:
    Molecular point group: c1

    Geometry (in Angstrom), charge = 0, multiplicity = 1:

    H           -3.036940877569     2.286460272594    -1.511231480674
    O           -3.094127830983     1.352989526269    -1.416794970928
    C           -2.834477280661     0.992235568486    -0.086233927873
    C           -1.427418029007     1.350487910836     0.366838716183
    H           -2.979434565994    -0.079827651899    -0.038594447005
    H           -3.564153643422     1.446956739696     0.579184575219
    C           -0.315617052748     0.660553032645    -0.447639063337
    H           -1.315025525074     2.430678282424     0.320169568623
    H           -1.339581699743     1.089551471883     1.417593597932
    C            0.560730486372    -0.271053309912     0.387407715580
    H            0.312926458855     1.407105538274    -0.921875768764
    H           -0.764504588899     0.099686437546    -1.259637988200
    C            1.643528596025    -0.966009045151    -0.434727691354
    H            1.012634724610     0.298394461053     1.193836849998
    H           -0.067080550127    -1.023810800561     0.860472410090
    C            2.490426884282    -1.977681357146     0.339557282181
    H            2.296909137662    -0.215699126404    -0.874587153824
    H            1.170226296714    -1.479026551741    -1.267319225580
    C            3.376146181668    -1.371214799305     1.425325808242
    H            3.121617583099    -2.508139498020    -0.366810650518
    H            1.838548154075    -2.725964064919     0.782809747879
    H            4.033685727305    -0.612688967977     1.012515507118
    H            3.998083486511    -2.131882260305     1.883365065392
    H            2.793783684494    -0.909996474468     2.213792461211

  Mulliken Charges: (a.u.)
   Center  Symbol    Alpha    Beta     Spin     Total
       1     H     0.39563  0.39563  0.00000  0.20875
       2     O     4.20294  4.20294  0.00000 -0.40589
       3     C     2.97521  2.97521  0.00000  0.04959
       4     C     3.11157  3.11157  0.00000 -0.22314
       5     H     0.45891  0.45891  0.00000  0.08218
       6     H     0.46080  0.46080  0.00000  0.07840
       7     C     3.09633  3.09633  0.00000 -0.19265
       8     H     0.45174  0.45174  0.00000  0.09652
       9     H     0.45285  0.45285  0.00000  0.09429
      10     C     3.09242  3.09242  0.00000 -0.18485
      11     H     0.45086  0.45086  0.00000  0.09828
      12     H     0.44246  0.44246  0.00000  0.11509
      13     C     3.09585  3.09585  0.00000 -0.19170
      14     H     0.45245  0.45245  0.00000  0.09511
      15     H     0.45544  0.45544  0.00000  0.08912
      16     C     3.09001  3.09001  0.00000 -0.18002
      17     H     0.45439  0.45439  0.00000  0.09122
      18     H     0.44831  0.44831  0.00000  0.10337
      19     C     3.15221  3.15221  0.00000 -0.30441
      20     H     0.44863  0.44863  0.00000  0.10275
      21     H     0.45502  0.45502  0.00000  0.08996
      22     H     0.45513  0.45513  0.00000  0.08974
      23     H     0.44667  0.44667  0.00000  0.10667
      24     H     0.45419  0.45419  0.00000  0.09161

   Total alpha = 33.00000, Total beta = 33.00000, Total charge = -0.00000

*** Psi4 exiting successfully. Buy a developer a beer!
