  ==> Input File <==

--------------------------------------------------------------------------
set {
	reference rhf
	basis 6-31G*
}

set_num_threads( 1 )
memory 2 gb

molecule MOL {
0 1

H	 -2.646374	 -0.642757	 1.268656
C	 -2.083525	 -0.384536	 0.393091
O	 -0.807605	 -0.127164	 0.768327
F	 -2.118945	 -1.383102	 -0.486752
F	 -2.621877	 0.670592	 -0.209486
C	 0.084052	 0.273579	 -0.209957
C	 1.483128	 -0.017455	 0.317345
Cl	 -0.102267	 1.998711	 -0.565516
H	 -0.049200	 -0.265864	 -1.131379
F	 2.390278	 0.328200	 -0.571328
F	 1.594322	 -1.313055	 0.532970
F	 1.729872	 0.612897	 1.439729

	symmetry c1
}
set optking {
	frozen_dihedral = ("
		10 7 6 9,
		6 3 2 4
	")
}

ee = energy('scf')
oeprop('DIPOLE', 'QUADRUPOLE', 'MULLIKEN_CHARGES')
f=open( 'psi4out.xyz', 'w' )
f.write( "12  " )
f.write( str(ee) + "\n" )
f.write( MOL.save_string_xyz() )
f.close()
--------------------------------------------------------------------------

    Molecular point group: c1

    Geometry (in Angstrom), charge = 0, multiplicity = 1:

       Center              X                  Y                   Z               Mass
    ------------   -----------------  -----------------  -----------------  -----------------
           H         -2.608820646191    -0.886266641717     1.203132896219     1.007825032070
           C         -2.045971646191    -0.628045641717     0.327567896219    12.000000000000
           O         -0.770051646191    -0.370673641717     0.702803896219    15.994914619560
           F         -2.081391646191    -1.626611641717    -0.552275103781    18.998403224000
           F         -2.584323646191     0.427082358283    -0.275009103781    18.998403224000
           C          0.121605353809     0.030069358283    -0.275480103781    12.000000000000
           C          1.520681353809    -0.260964641717     0.251821896219    12.000000000000
          CL         -0.064713646191     1.755201358283    -0.631039103781    34.968852682000
           H         -0.011646646191    -0.509373641717    -1.196902103781     1.007825032070
           F          2.427831353809     0.084690358283    -0.636851103781    18.998403224000
           F          1.631875353809    -1.556564641717     0.467446896219    18.998403224000
           F          1.767425353809     0.369387358283     1.374205896219    18.998403224000

  Charge       = 0
  Multiplicity = 1
  Basis Set: 6-31G*
  Basis Set:

    Orbital Energies (a.u.)
    -----------------------

    Doubly Occupied:

       1A   -104.839490     2A    -26.360909     3A    -26.358950
       4A    -26.358086     5A    -26.346094     6A    -26.342514
       7A    -20.650211     8A    -11.529214     9A    -11.488688
      10A    -11.399977    11A    -10.574539    12A     -8.043902
      13A     -8.040323    14A     -8.040255    15A     -1.761594
      16A     -1.716345    17A     -1.658185    18A     -1.656588
      19A     -1.636891    20A     -1.486012    21A     -1.178210
      22A     -1.053301    23A     -0.985406    24A     -0.919194
      25A     -0.859459    26A     -0.852096    27A     -0.846179
      28A     -0.818227    29A     -0.809677    30A     -0.790152
      31A     -0.729109    32A     -0.726572    33A     -0.708859
      34A     -0.698403    35A     -0.679767    36A     -0.675240
      37A     -0.658535    38A     -0.656944    39A     -0.644763
      40A     -0.635015    41A     -0.597839    42A     -0.576500
      43A     -0.524231    44A     -0.472279    45A     -0.466017

  @DF-RHF Final Energy: -1146.31156200412352

   => Energetics <=

    Nuclear Repulsion Energy =            739.2868583696567839
    One-Electron Energy =               -3061.4950184148192420
    Two-Electron Energy =                1175.8965980410382599
    DFT Exchange-Correlation Energy =       0.0000000000000000
    Empirical Dispersion Energy =           0.0000000000000000
    PCM Polarization Energy =               0.0000000000000000
    EFP Energy =                            0.0000000000000000
    Total Energy =                      -1146.3115620041241982

  Mulliken Charges: (a.u.)
   Center  Symbol    Alpha    Beta     Spin     Total
       1     H     0.40158  0.40158  0.00000  0.19684
       2     C     2.55695  2.55695  0.00000  0.88610
       3     O     4.30317  4.30317  0.00000 -0.60634
       4     F     4.68785  4.68785  0.00000 -0.37570
       5     F     4.68287  4.68287  0.00000 -0.36574
       6     C     3.04848  3.04848  0.00000 -0.09697
       7     C     2.43025  2.43025  0.00000  1.13949
       8    CL     8.50180  8.50180  0.00000 -0.00360
       9     H     0.36815  0.36815  0.00000  0.26370
      10     F     4.67436  4.67436  0.00000 -0.34872
      11     F     4.67607  4.67607  0.00000 -0.35215
      12     F     4.66846  4.66846  0.00000 -0.33692

   Total alpha = 45.00000, Total beta = 45.00000, Total charge = -0.00000
