  ==> Input File <==

--------------------------------------------------------------------------
set {
	reference rhf
	basis 6-31G*
}

set_num_threads( 1 )
memory 2 gb

molecule MOL {
0 1

H	 -3.400836	 -0.393100	 -1.069848
O	 -3.517110	 -0.026191	 -0.205115
C	 -2.306886	 0.532354	 0.237577
C	 -1.177863	 -0.397191	 -0.171080
H	 -2.156308	 1.517575	 -0.201710
H	 -2.315015	 0.655684	 1.319734
C	 0.198102	 0.111031	 0.262842
H	 -1.208843	 -0.518759	 -1.250427
H	 -1.368741	 -1.376554	 0.258909
C	 1.331804	 -0.827780	 -0.158768
H	 0.361943	 1.100838	 -0.156218
H	 0.217265	 0.229072	 1.345532
C	 2.723619	 -0.410569	 0.329459
H	 1.342964	 -0.912588	 -1.244120
H	 1.116806	 -1.824343	 0.220779
C	 3.243875	 0.895854	 -0.272975
H	 3.424222	 -1.207124	 0.091250
H	 2.714788	 -0.329854	 1.414619
H	 3.251977	 0.848779	 -1.358681
H	 2.637085	 1.747371	 0.016682
H	 4.259473	 1.094070	 0.055697

	symmetry c1
}
set optking {
	frozen_dihedral = ("
		2 3 4 8,
		8 4 7 10,
		4 7 10 14,
		16 13 10 14
	")
}

ee = energy('scf')
oeprop('DIPOLE', 'QUADRUPOLE', 'MULLIKEN_CHARGES')
f=open( 'psi4out.xyz', 'w' )
f.write( "21  " )
f.write( str(ee) + "\n" )
f.write( MOL.save_string_xyz() )
f.close()
--------------------------------------------------------------------------

    Molecular point group: c1

    Geometry (in Angstrom), charge = 0, multiplicity = 1:

       Center              X                  Y                   Z               Mass
    ------------   -----------------  -----------------  -----------------  -----------------
           H         -3.409084208636    -0.383908142537    -1.058895455173     1.007825032070
           O         -3.525358208636    -0.016999142537    -0.194162455173    15.994914619560
           C         -2.315134208636     0.541545857463     0.248529544827    12.000000000000
           C         -1.186111208636    -0.387999142537    -0.160127455173    12.000000000000
           H         -2.164556208636     1.526766857463    -0.190757455173     1.007825032070
           H         -2.323263208636     0.664875857463     1.330686544827     1.007825032070
           C          0.189853791364     0.120222857463     0.273794544827    12.000000000000
           H         -1.217091208636    -0.509567142537    -1.239474455173     1.007825032070
           H         -1.376989208636    -1.367362142537     0.269861544827     1.007825032070
           C          1.323555791364    -0.818588142537    -0.147815455173    12.000000000000
           H          0.353694791364     1.110029857463    -0.145265455173     1.007825032070
           H          0.209016791364     0.238263857463     1.356484544827     1.007825032070
           C          2.715370791364    -0.401377142537     0.340411544827    12.000000000000
           H          1.334715791364    -0.903396142537    -1.233167455173     1.007825032070
           H          1.108557791364    -1.815151142537     0.231731544827     1.007825032070
           C          3.235626791364     0.905045857463    -0.262022455173    12.000000000000
           H          3.415973791364    -1.197932142537     0.102202544827     1.007825032070
           H          2.706539791364    -0.320662142537     1.425571544827     1.007825032070
           H          3.243728791364     0.857970857463    -1.347728455173     1.007825032070
           H          2.628836791364     1.756562857463     0.027634544827     1.007825032070
           H          4.251224791364     1.103261857463     0.066649544827     1.007825032070

  Charge       = 0
  Multiplicity = 1
  Basis Set: 6-31G*
  Basis Set:

    Orbital Energies (a.u.)
    -----------------------

    Doubly Occupied:

       1A    -20.549536     2A    -11.267715     3A    -11.220593
       4A    -11.218976     5A    -11.218477     6A    -11.217846
       7A    -11.210950     8A     -1.358744     9A     -1.090765
      10A     -1.036488    11A     -0.956310    12A     -0.880178
      13A     -0.823862    14A     -0.782738    15A     -0.684578
      16A     -0.647346    17A     -0.626137    18A     -0.620346
      19A     -0.593284    20A     -0.572107    21A     -0.550406
      22A     -0.526746    23A     -0.504891    24A     -0.501230
      25A     -0.483241    26A     -0.465773    27A     -0.459953
      28A     -0.452125    29A     -0.423041

  @DF-RHF Final Energy:  -310.21012142578388

   => Energetics <=

    Nuclear Repulsion Energy =            313.2610589580284568
    One-Electron Energy =               -1041.0536792781335862
    Two-Electron Energy =                 417.5824988943214748
    DFT Exchange-Correlation Energy =       0.0000000000000000
    Empirical Dispersion Energy =           0.0000000000000000
    PCM Polarization Energy =               0.0000000000000000
    EFP Energy =                            0.0000000000000000
    Total Energy =                       -310.2101214257836546

  Mulliken Charges: (a.u.)
   Center  Symbol    Alpha    Beta     Spin     Total
       1     H     0.28127  0.28127  0.00000  0.43746
       2     O     4.37376  4.37376  0.00000 -0.74752
       3     C     2.97995  2.97995  0.00000  0.04010
       4     C     3.17621  3.17621  0.00000 -0.35243
       5     H     0.43072  0.43072  0.00000  0.13857
       6     H     0.41787  0.41787  0.00000  0.16425
       7     C     3.16132  3.16132  0.00000 -0.32263
       8     H     0.42851  0.42851  0.00000  0.14298
       9     H     0.41338  0.41338  0.00000  0.17323
      10     C     3.15205  3.15205  0.00000 -0.30411
      11     H     0.42013  0.42013  0.00000  0.15974
      12     H     0.42155  0.42155  0.00000  0.15690
      13     C     3.15272  3.15272  0.00000 -0.30545
      14     H     0.42409  0.42409  0.00000  0.15182
      15     H     0.42106  0.42106  0.00000  0.15789
      16     C     3.24144  3.24144  0.00000 -0.48289
      17     H     0.42028  0.42028  0.00000  0.15943
      18     H     0.42278  0.42278  0.00000  0.15444
      19     H     0.42222  0.42222  0.00000  0.15556
      20     H     0.42021  0.42021  0.00000  0.15959
      21     H     0.41847  0.41847  0.00000  0.16306

   Total alpha = 29.00000, Total beta = 29.00000, Total charge = -0.00000
