                              Psi4 1.0.54 Driver

  ==> Input File <==

--------------------------------------------------------------------------
set {
	reference rhf
	basis cc-pvtz
}

set_num_threads( 4 )
memory 2 gb

molecule MOL {
0 1

H	 -3.258660	 -0.290394	 1.471450
C	 -3.307964	 -0.275695	 0.374072
C	 -2.653809	 0.914422	 -0.273689
O	 -3.855140	 -1.148880	 -0.205112
C	 -1.216901	 1.136108	 0.207794
H	 -2.700131	 0.790676	 -1.347875
H	 -3.256452	 1.781007	 -0.010713
C	 -0.247837	 0.040196	 -0.230469
H	 -0.872882	 2.093195	 -0.169002
H	 -1.209325	 1.218376	 1.291938
C	 1.181757	 0.280428	 0.247371
H	 -0.259600	 -0.030819	 -1.314870
H	 -0.591284	 -0.923375	 0.136958
C	 2.151032	 -0.811012	 -0.202643
H	 1.515939	 1.247397	 -0.115449
H	 1.191514	 0.341223	 1.333422
C	 3.580021	 -0.656538	 0.320835
H	 2.170545	 -0.847575	 -1.289412
H	 1.766632	 -1.772905	 0.124928
C	 3.773239	 -1.063328	 1.779696
H	 3.875021	 0.382034	 0.207983
H	 4.255732	 -1.232129	 -0.306393
H	 3.105128	 -0.508167	 2.430402
H	 3.585178	 -2.118795	 1.935602
H	 4.788438	 -0.863476	 2.102799

	symmetry c1
}
set optking {
	frozen_dihedral = ("
		20 17 14 18
	")
}

ee,wfn = optimize('scf', return_wfn=True)
oeprop( wfn, 'DIPOLE', 'QUADRUPOLE', 'MULLIKEN_CHARGES')
f=open( 'psi4out.xyz', 'w' )
f.write( "25  " )
f.write( str(ee) + "\n" )
f.write( MOL.save_string_xyz() )
f.close()
--------------------------------------------------------------------------

    Molecular point group: c1
  Charge       = 0
  Multiplicity = 1
  Basis Set: CC-PVTZ
  Basis Set:
  @DF-RHF Final Energy:  -387.25965590253094
    Total Energy =                       -387.2596559025306533
    Molecular point group: c1
  Basis Set: CC-PVTZ
  Basis Set:
  Basis Set: CC-PVTZ
  Basis Set:
  @DF-RHF Final Energy:  -387.25993974580541
    Total Energy =                       -387.2599397458055819
  Basis Set: CC-PVTZ
  Basis Set:
  Basis Set: CC-PVTZ
  Basis Set:
  @DF-RHF Final Energy:  -387.26000321387960
    Total Energy =                       -387.2600032138799406
  Basis Set: CC-PVTZ
  Basis Set:
  Basis Set: CC-PVTZ
  Basis Set:
  @DF-RHF Final Energy:  -387.25985773556022
    Total Energy =                       -387.2598577355599900
  Basis Set: CC-PVTZ
  Basis Set:
  Basis Set: CC-PVTZ
  Basis Set:
  @DF-RHF Final Energy:  -387.26000572466995
    Total Energy =                       -387.2600057246701226
  Basis Set: CC-PVTZ
  Basis Set:
  Charge       = 0
  Multiplicity = 1
  Basis Set: CC-PVTZ
  Basis Set:

    Orbital Energies (a.u.)
    -----------------------

    Doubly Occupied:

       1A    -20.551380     2A    -11.320989     3A    -11.233812
       4A    -11.232880     5A    -11.221741     6A    -11.217989
       7A    -11.216115     8A    -11.214865     9A    -11.208855
      10A     -1.406389    11A     -1.105321    12A     -1.070885
      13A     -1.014934    14A     -0.943653    15A     -0.874498
      16A     -0.820047    17A     -0.788985    18A     -0.784574
      19A     -0.667729    20A     -0.663886    21A     -0.632090
      22A     -0.627384    23A     -0.609857    24A     -0.592976
      25A     -0.567626    26A     -0.563128    27A     -0.529004
      28A     -0.520735    29A     -0.519807    30A     -0.499421
      31A     -0.486645    32A     -0.481873    33A     -0.466170
      34A     -0.458749    35A     -0.442590    36A     -0.411884

  @DF-RHF Final Energy:  -387.26000568354129

   => Energetics <=

    Nuclear Repulsion Energy =            439.7092542174028722
    One-Electron Energy =               -1395.9995975061860918
    Two-Electron Energy =                 569.0303376052421527
    DFT Exchange-Correlation Energy =       0.0000000000000000
    Empirical Dispersion Energy =           0.0000000000000000
    PCM Polarization Energy =               0.0000000000000000
    EFP Energy =                            0.0000000000000000
    Total Energy =                       -387.2600056835410669
    Molecular point group: c1
  Basis Set: CC-PVTZ
  Basis Set:

  -Total Gradient:
     Atom            X                  Y                   Z
    ------   -----------------  -----------------  -----------------
       1       -0.000038417884     0.000027981575     0.000008259980
       2        0.000138929968    -0.000059898184    -0.000016559732
       3       -0.000063756211     0.000003718104     0.000020419294
       4       -0.000046474294     0.000001761942    -0.000013248289
       5        0.000024503917     0.000014855370    -0.000029201892
       6       -0.000005377567     0.000012913670     0.000000077627
       7        0.000003464510    -0.000004773300     0.000010531303
       8       -0.000010178914    -0.000017250271    -0.000002748530
       9        0.000012763875    -0.000002838325    -0.000005547518
      10        0.000005899159     0.000013015838     0.000001419631
      11        0.000010179470    -0.000002232793    -0.000013813231
      12       -0.000001242130     0.000010048281     0.000003251348
      13       -0.000008746613    -0.000002546801     0.000001493616
      14       -0.000175870990     0.001772081642    -0.000217066686
      15       -0.000010284862     0.000006034898    -0.000005315638
      16        0.000021890073    -0.000013599438    -0.000001312382
      17       -0.000369853449     0.001416234328     0.000594569587
      18        0.000211453252    -0.001861696051     0.000082750827
      19       -0.000021956638    -0.000020250815    -0.000006334140
      20        0.000303954758    -0.001292963449    -0.000420752594
      21        0.000019377364     0.000002661306     0.000007352243
      22        0.000000219092    -0.000004419533    -0.000007224369
      23       -0.000016087117     0.000013217149     0.000013901435
      24       -0.000000428647    -0.000014909200    -0.000005293525
      25        0.000016039870     0.000002854056     0.000000391637

  **** Optimization is complete! (in 6 steps) ****
    Final optimized geometry and variables:
    Molecular point group: c1

    Geometry (in Angstrom), charge = 0, multiplicity = 1:

    H           -3.214652516424    -0.119338308324     1.214376625721
    C           -3.253935344126    -0.083661262873     0.117053478693
    C           -2.586034755384     1.113889439590    -0.502385298328
    O           -3.802597857639    -0.941434402722    -0.483376884283
    C           -1.152656907156     1.317576191984    -0.003007513599
    H           -2.622643877725     1.010167581932    -1.579074096354
    H           -3.185965501211     1.979272135370    -0.229455137416
    C           -0.187850804942     0.219917874609    -0.446223046157
    H           -0.797013527034     2.276884913311    -0.363008465441
    H           -1.155893128362     1.384951697017     1.082180001699
    C            1.239052384493     0.443798050083     0.046596702744
    H           -0.191126761299     0.161475412030    -1.531393495220
    H           -0.541081163543    -0.745377017312    -0.092683033454
    C            2.208574173963    -0.642901783870    -0.412122567855
    H            1.592988463487     1.408872206699    -0.308161517719
    H            1.234817835361     0.501070888224     1.131268042179
    C            3.648622205361    -0.454639848080     0.073561443463
    H            2.203811283085    -0.689792633746    -1.497268605039
    H            1.846347925920    -1.611937450045    -0.076219566985
    C            3.873549402612    -0.846134777772     1.532095966720
    H            3.951834325275     0.577318945263    -0.080558566783
    H            4.305296186737    -1.057116401045    -0.546118129978
    H            3.269047919211    -0.253905980716     2.209696218171
    H            3.624802105533    -1.889623167540     1.693870011108
    H            4.910629616518    -0.706309851613     1.815049071887

  Mulliken Charges: (a.u.)
   Center  Symbol    Alpha    Beta     Spin     Total
       1     H     0.46415  0.46415  0.00000  0.07170
       2     C     2.90482  2.90482  0.00000  0.19036
       3     C     3.08916  3.08916  0.00000 -0.17833
       4     O     4.16626  4.16626  0.00000 -0.33252
       5     C     3.11591  3.11591  0.00000 -0.23182
       6     H     0.44287  0.44287  0.00000  0.11427
       7     H     0.44048  0.44048  0.00000  0.11903
       8     C     3.09010  3.09010  0.00000 -0.18020
       9     H     0.44308  0.44308  0.00000  0.11384
      10     H     0.44999  0.44999  0.00000  0.10001
      11     C     3.09149  3.09149  0.00000 -0.18297
      12     H     0.44963  0.44963  0.00000  0.10073
      13     H     0.44810  0.44810  0.00000  0.10381
      14     C     3.09524  3.09524  0.00000 -0.19049
      15     H     0.45335  0.45335  0.00000  0.09330
      16     H     0.45300  0.45300  0.00000  0.09401
      17     C     3.09110  3.09110  0.00000 -0.18220
      18     H     0.44773  0.44773  0.00000  0.10454
      19     H     0.45393  0.45393  0.00000  0.09214
      20     C     3.14945  3.14945  0.00000 -0.29890
      21     H     0.45541  0.45541  0.00000  0.08917
      22     H     0.44773  0.44773  0.00000  0.10455
      23     H     0.45572  0.45572  0.00000  0.08855
      24     H     0.45438  0.45438  0.00000  0.09123
      25     H     0.44691  0.44691  0.00000  0.10618

   Total alpha = 36.00000, Total beta = 36.00000, Total charge = -0.00000

*** Psi4 exiting successfully. Buy a developer a beer!
