  ==> Input File <==

--------------------------------------------------------------------------
set {
	reference rhf
	basis cc-pvtz
}

set_num_threads( 4 )
memory 2 gb

molecule MOL {
0 1

H	 2.386229	 -1.115044	 0.573206
N	 2.433987	 -0.362316	 -0.080024
C	 1.263552	 0.494993	 0.021953
H	 2.501432	 -0.766471	 -0.990764
C	 -0.016533	 -0.325589	 -0.026925
H	 1.280915	 1.180773	 -0.818522
H	 1.263064	 1.106893	 0.925038
C	 -1.280353	 0.525521	 0.047747
H	 -0.016686	 -0.912532	 -0.939714
H	 -0.014099	 -1.037598	 0.796369
C	 -2.560681	 -0.301323	 -0.007747
H	 -1.279957	 1.241025	 -0.770189
H	 -1.270445	 1.110526	 0.963468
H	 -2.617064	 -0.872870	 -0.928010
H	 -3.439525	 0.331102	 0.043462
H	 -2.609427	 -1.002736	 0.818585

	symmetry c1
}
set optking {
	frozen_dihedral = ("
		1 2 3 6
	")
}

ee = optimize('scf')
oeprop('DIPOLE', 'QUADRUPOLE', 'MULLIKEN_CHARGES')
f=open( 'psi4out.xyz', 'w' )
f.write( "16  " )
f.write( str(ee) + "\n" )
f.write( MOL.save_string_xyz() )
f.close()
--------------------------------------------------------------------------

    Molecular point group: c1
  Charge       = 0
  Multiplicity = 1
  Basis Set: CC-PVTZ
  Basis Set:
  @DF-RHF Final Energy:  -212.39818135969264
    Total Energy =                       -212.3981813596925576
    Molecular point group: c1
  Basis Set: CC-PVTZ
  Basis Set:
  Basis Set: CC-PVTZ
  Basis Set:
  @DF-RHF Final Energy:  -212.39972943536367
    Total Energy =                       -212.3997294353637244
  Basis Set: CC-PVTZ
  Basis Set:
  Basis Set: CC-PVTZ
  Basis Set:
  @DF-RHF Final Energy:  -212.39993218804523
    Total Energy =                       -212.3999321880452271
  Basis Set: CC-PVTZ
  Basis Set:
  Charge       = 0
  Multiplicity = 1
  Basis Set: CC-PVTZ
  Basis Set:

    Orbital Energies (a.u.)
    -----------------------

    Doubly Occupied:

       1A    -15.526838     2A    -11.238299     3A    -11.215708
       4A    -11.211509     5A    -11.208662     6A     -1.179042
       7A     -1.063035     8A     -0.960330     9A     -0.848439
      10A     -0.797047    11A     -0.678800    12A     -0.626630
      13A     -0.598656    14A     -0.588192    15A     -0.554232
      16A     -0.526568    17A     -0.501229    18A     -0.489433
      19A     -0.471665    20A     -0.466391    21A     -0.379816

  @DF-RHF Final Energy:  -212.39993463881348

   => Energetics <=

    Nuclear Repulsion Energy =            186.3916993742377031
    One-Electron Energy =                -655.3222208919487457
    Two-Electron Energy =                 256.5305868788975658
    DFT Exchange-Correlation Energy =       0.0000000000000000
    Empirical Dispersion Energy =           0.0000000000000000
    PCM Polarization Energy =               0.0000000000000000
    EFP Energy =                            0.0000000000000000
    Total Energy =                       -212.3999346388134768
    Molecular point group: c1
  Basis Set: CC-PVTZ
  Basis Set:

  -Total Gradient:
     Atom            X                  Y                   Z
    ------   -----------------  -----------------  -----------------
       1       -0.000726042861    -0.000938177529    -0.001217463532
       2        0.000626374687     0.001039275389     0.001293637595
       3        0.000768568944     0.000950363783     0.000786911196
       4       -0.000017457334     0.000038350684     0.000027180509
       5       -0.000029677738    -0.000008154447    -0.000034370518
       6       -0.000656422999    -0.001055848525    -0.000892673913
       7        0.000048627120    -0.000002959500     0.000013290563
       8        0.000115353990    -0.000055114357     0.000028345451
       9        0.000001888159    -0.000016035332    -0.000007215096
      10       -0.000000986683     0.000014426225    -0.000006013831
      11       -0.000063122150     0.000016309182     0.000000271655
      12       -0.000013030981    -0.000008032822     0.000016904960
      13       -0.000026480256     0.000016787758    -0.000010013397
      14        0.000016355589     0.000011971876     0.000019775425
      15       -0.000054615557    -0.000018222286    -0.000004237942
      16        0.000010668070     0.000015059903    -0.000014329125

  **** Optimization is complete! (in 4 steps) ****
    Final optimized geometry and variables:
    Molecular point group: c1

    Geometry (in Angstrom), charge = 0, multiplicity = 1:

    H            2.464834211166    -1.074305316135     0.592247171762
    N            2.495081343635    -0.306486568198    -0.046167591353
    C            1.270754308333     0.474492062906     0.023513876119
    H            2.610150083919    -0.698933221984    -0.957169991435
    C           -0.025272049400    -0.331756277309    -0.023364890307
    H            1.281073995856     1.176784266087    -0.803231682046
    H            1.295203318546     1.065495857994     0.933208561691
    C           -1.278420474008     0.535254766189     0.054121532348
    H           -0.045602496420    -0.919463779845    -0.938758240583
    H           -0.029016673096    -1.045253692957     0.798460436162
    C           -2.571457274980    -0.272637417063     0.013582660606
    H           -1.273949988779     1.246993678553    -0.767029055602
    H           -1.251642437263     1.124750541646     0.966524200420
    H           -2.644566838207    -0.847663295305    -0.903475366470
    H           -3.440575027524     0.372730766853     0.069052605558
    H           -2.623351359984    -0.969174405368     0.843723870647

  Mulliken Charges: (a.u.)
   Center  Symbol    Alpha    Beta     Spin     Total
       1     H     0.43257  0.43257  0.00000  0.13487
       2     N     3.68779  3.68779  0.00000 -0.37557
       3     C     3.02864  3.02864  0.00000 -0.05728
       4     H     0.43262  0.43262  0.00000  0.13476
       5     C     3.08586  3.08586  0.00000 -0.17173
       6     H     0.45444  0.45444  0.00000  0.09112
       7     H     0.45331  0.45331  0.00000  0.09338
       8     C     3.08966  3.08966  0.00000 -0.17932
       9     H     0.45981  0.45981  0.00000  0.08037
      10     H     0.45993  0.45993  0.00000  0.08015
      11     C     3.14853  3.14853  0.00000 -0.29705
      12     H     0.45441  0.45441  0.00000  0.09118
      13     H     0.45427  0.45427  0.00000  0.09147
      14     H     0.45500  0.45500  0.00000  0.08999
      15     H     0.44827  0.44827  0.00000  0.10345
      16     H     0.45489  0.45489  0.00000  0.09021

   Total alpha = 21.00000, Total beta = 21.00000, Total charge = -0.00000
