                              Psi4 1.0.54 Driver

  ==> Input File <==

--------------------------------------------------------------------------
set {
	reference rhf
	basis cc-pvtz
}

set_num_threads( 4 )
memory 2 gb

molecule MOL {
0 1

O	 -2.345790	 -0.552941	 -0.962950
C	 -1.922978	 0.063265	 -0.045005
C	 -2.767013	 0.829516	 0.934238
O	 -0.637375	 0.157174	 0.243149
H	 -2.481835	 1.873648	 0.920780
H	 -3.807498	 0.725815	 0.672941
H	 -2.594255	 0.454581	 1.934811
C	 0.162530	 -1.009518	 0.097799
C	 1.587210	 -0.664190	 0.477086
H	 0.096803	 -1.356267	 -0.924704
H	 -0.233803	 -1.785900	 0.736810
C	 2.256770	 0.342732	 -0.454344
H	 2.154716	 -1.590834	 0.479041
H	 1.598751	 -0.289614	 1.496104
C	 3.698146	 0.643205	 -0.057145
H	 2.235038	 -0.042575	 -1.470299
H	 1.683491	 1.262594	 -0.461300
H	 4.150202	 1.356548	 -0.736242
H	 4.305463	 -0.255904	 -0.069842
H	 3.749130	 1.061068	 0.942759

	symmetry c1
}
set optking {
	frozen_dihedral = ("
		1 2 4 8
	")
}

ee,wfn = optimize('scf', return_wfn=True)
oeprop( wfn, 'DIPOLE', 'QUADRUPOLE', 'MULLIKEN_CHARGES')
f=open( 'psi4out.xyz', 'w' )
f.write( "20  " )
f.write( str(ee) + "\n" )
f.write( MOL.save_string_xyz() )
f.close()
--------------------------------------------------------------------------

    Molecular point group: c1
  Charge       = 0
  Multiplicity = 1
  Basis Set: CC-PVTZ
  Basis Set:
  @DF-RHF Final Energy:  -384.07961826830285
    Total Energy =                       -384.0796182683031930
    Molecular point group: c1
  Basis Set: CC-PVTZ
  Basis Set:
  Basis Set: CC-PVTZ
  Basis Set:
  @DF-RHF Final Energy:  -384.07574131102297
    Total Energy =                       -384.0757413110222842
  Basis Set: CC-PVTZ
  Basis Set:
  Basis Set: CC-PVTZ
  Basis Set:
  @DF-RHF Final Energy:  -384.08009818156995
    Total Energy =                       -384.0800981815698378
  Basis Set: CC-PVTZ
  Basis Set:
  Basis Set: CC-PVTZ
  Basis Set:
  @DF-RHF Final Energy:  -384.08025009969947
    Total Energy =                       -384.0802500996998106
  Basis Set: CC-PVTZ
  Basis Set:
  @DF-RHF Final Energy:  -384.08027407356144
    Total Energy =                       -384.0802740735616680
  @DF-RHF Final Energy:  -384.08028570772302
    Total Energy =                       -384.0802857077228509
  @DF-RHF Final Energy:  -384.08029041641703
    Total Energy =                       -384.0802904164171423
  @DF-RHF Final Energy:  -384.08029150568353
    Total Energy =                       -384.0802915056833626
  @DF-RHF Final Energy:  -384.08029151737560
    Total Energy =                       -384.0802915173755991
  @DF-RHF Final Energy:  -384.08028929807682
    Total Energy =                       -384.0802892980768775
  @DF-RHF Final Energy:  -384.08029217571033
    Total Energy =                       -384.0802921757103832
  Basis Set: CC-PVTZ
  Basis Set:
  @DF-RHF Final Energy:  -384.08014710914006
    Total Energy =                       -384.0801471091402846
  Basis Set: CC-PVTZ
  Basis Set:
  Basis Set: CC-PVTZ
  Basis Set:
  @DF-RHF Final Energy:  -384.08025319155462
    Total Energy =                       -384.0802531915544478
  Basis Set: CC-PVTZ
  Basis Set:
  Basis Set: CC-PVTZ
  Basis Set:
  @DF-RHF Final Energy:  -384.08029088155229
    Total Energy =                       -384.0802908815516048
  Basis Set: CC-PVTZ
  Basis Set:
  Charge       = 0
  Multiplicity = 1
  Basis Set: CC-PVTZ
  Basis Set:

    Orbital Energies (a.u.)
    -----------------------

    Doubly Occupied:

       1A    -20.586738     2A    -20.536717     3A    -11.368005
       4A    -11.283223     5A    -11.232434     6A    -11.224034
       7A    -11.217691     8A    -11.210858     9A     -1.465978
      10A     -1.366318    11A     -1.086253    12A     -1.027201
      13A     -0.983683    14A     -0.880891    15A     -0.810907
      16A     -0.776225    17A     -0.695612    18A     -0.683036
      19A     -0.666699    20A     -0.631509    21A     -0.606320
      22A     -0.593694    23A     -0.575355    24A     -0.550958
      25A     -0.542898    26A     -0.539341    27A     -0.507363
      28A     -0.485605    29A     -0.475654    30A     -0.474056
      31A     -0.451025    32A     -0.439032

  @DF-RHF Final Energy:  -384.08029229890485

   => Energetics <=

    Nuclear Repulsion Energy =            384.8896582686925285
    One-Electron Energy =               -1285.9892812894643157
    Two-Electron Energy =                 517.0193307218670498
    DFT Exchange-Correlation Energy =       0.0000000000000000
    Empirical Dispersion Energy =           0.0000000000000000
    PCM Polarization Energy =               0.0000000000000000
    EFP Energy =                            0.0000000000000000
    Total Energy =                       -384.0802922989047374
    Molecular point group: c1
  Basis Set: CC-PVTZ
  Basis Set:

  -Total Gradient:
     Atom            X                  Y                   Z
    ------   -----------------  -----------------  -----------------
       1        0.000467632414     0.007585483499    -0.005376280552
       2       -0.001315815326    -0.012299536195     0.011481229036
       3        0.000011992143     0.000062972711    -0.000033166607
       4        0.002073587661     0.006512475599    -0.012932184006
       5       -0.000004556971    -0.000005411756     0.000002120692
       6        0.000011338114    -0.000002243568     0.000000885520
       7       -0.000002498504     0.000003540178    -0.000005572145
       8       -0.001243472326    -0.001851549352     0.006861034543
       9        0.000000644673    -0.000001009882     0.000004078423
      10        0.000000757958    -0.000003213843    -0.000000604276
      11       -0.000000260480     0.000000988526     0.000000727655
      12        0.000000091896    -0.000004007548    -0.000002933230
      13        0.000000431317     0.000001398230    -0.000000768158
      14        0.000000495550    -0.000000934546     0.000002518808
      15       -0.000001320720     0.000000560896     0.000000911431
      16        0.000001551226     0.000001102874    -0.000000996447
      17        0.000000627381    -0.000000512931    -0.000000939393
      18       -0.000000932996     0.000000903594     0.000000567364
      19       -0.000000100661    -0.000000115747    -0.000001002358
      20       -0.000000192353    -0.000000890741     0.000000373701

  **** Optimization is complete! (in 15 steps) ****
    Final optimized geometry and variables:
    Molecular point group: c1

    Geometry (in Angstrom), charge = 0, multiplicity = 1:

    O           -2.355943733079    -0.563773740325    -0.956375944673
    C           -1.928558634776     0.053350868896    -0.044428288369
    C           -2.761183201773     0.886837254988     0.886766505591
    O           -0.628910490402     0.162550209631     0.220625526773
    H           -2.368655648732     1.894611781669     0.920639943747
    H           -3.787435754997     0.892731123443     0.557102422522
    H           -2.695713536724     0.477461128224     1.887746556104
    C            0.182466418296    -0.994517572788     0.053505710658
    C            1.606400359823    -0.644812312529     0.430114435968
    H            0.117875501403    -1.334667759337    -0.970431461258
    H           -0.202223193632    -1.777614028951     0.695628886030
    C            2.260443663352     0.376169154514    -0.496756176688
    H            2.180580313202    -1.567355932480     0.419445900296
    H            1.620433539508    -0.279101683222     1.452216357334
    C            3.696917204507     0.696150654082    -0.097565258358
    H            2.243753668641    -0.004354563773    -1.514278447659
    H            1.672812995043     1.286675928440    -0.499080737962
    H            4.137592761760     1.420277358824    -0.772629983353
    H            4.318050024958    -0.193395007463    -0.115660616491
    H            3.741679004539     1.109073171406     0.904718663764

  Mulliken Charges: (a.u.)
   Center  Symbol    Alpha    Beta     Spin     Total
       1     O     4.18785  4.18785  0.00000 -0.37570
       2     C     2.80738  2.80738  0.00000  0.38525
       3     C     3.13789  3.13789  0.00000 -0.27577
       4     O     4.16242  4.16242  0.00000 -0.32484
       5     H     0.44435  0.44435  0.00000  0.11131
       6     H     0.43821  0.43821  0.00000  0.12358
       7     H     0.44938  0.44938  0.00000  0.10123
       8     C     2.99055  2.99055  0.00000  0.01890
       9     C     3.08556  3.08556  0.00000 -0.17113
      10     H     0.44460  0.44460  0.00000  0.11080
      11     H     0.45361  0.45361  0.00000  0.09278
      12     C     3.08553  3.08553  0.00000 -0.17106
      13     H     0.45261  0.45261  0.00000  0.09477
      14     H     0.45254  0.45254  0.00000  0.09491
      15     C     3.15018  3.15018  0.00000 -0.30037
      16     H     0.45374  0.45374  0.00000  0.09252
      17     H     0.44610  0.44610  0.00000  0.10780
      18     H     0.44700  0.44700  0.00000  0.10599
      19     H     0.45578  0.45578  0.00000  0.08844
      20     H     0.45472  0.45472  0.00000  0.09057

   Total alpha = 32.00000, Total beta = 32.00000, Total charge =  0.00000

*** Psi4 exiting successfully. Buy a developer a beer!
