  ==> Input File <==

--------------------------------------------------------------------------
set {
	reference rhf
	basis 6-31G*
}

set_num_threads( 1 )
memory 2 gb

molecule MOL {
0 1

O	 0.749854	 1.307668	 -0.000040
C	 0.576249	 0.131685	 -0.000108
C	 -0.766779	 -0.556801	 -0.000461
O	 1.568443	 -0.749345	 -0.000005
C	 -1.945214	 0.412366	 0.000161
H	 -0.796911	 -1.211249	 -0.867467
H	 -0.796854	 -1.212390	 0.865687
C	 -2.032038	 1.209013	 1.301077
H	 -2.864474	 -0.141681	 -0.156663
H	 -1.852656	 1.088956	 -0.842593
H	 -2.156984	 0.553884	 2.158777
H	 -2.875750	 1.891048	 1.281625
H	 -1.134477	 1.799008	 1.464676
C	 2.886820	 -0.232538	 0.000322
H	 3.059106	 0.369571	 -0.880203
H	 3.540187	 -1.091012	 0.000050
H	 3.059019	 0.368956	 0.881266

	symmetry c1
}
set optking {
	frozen_dihedral = ("
		1 2 3 6,
		14 4 2 1
	")
}

ee = energy('scf')
oeprop('DIPOLE', 'QUADRUPOLE', 'MULLIKEN_CHARGES')
f=open( 'psi4out.xyz', 'w' )
f.write( "17  " )
f.write( str(ee) + "\n" )
f.write( MOL.save_string_xyz() )
f.close()
--------------------------------------------------------------------------

    Molecular point group: c1

    Geometry (in Angstrom), charge = 0, multiplicity = 1:

       Center              X                  Y                   Z               Mass
    ------------   -----------------  -----------------  -----------------  -----------------
           O          0.565001304812     1.083023645188    -0.191548307752    15.994914619560
           C          0.391396304812    -0.092959354812    -0.191616307752    12.000000000000
           C         -0.951631695188    -0.781445354812    -0.191969307752    12.000000000000
           O          1.383590304812    -0.973989354812    -0.191513307752    15.994914619560
           C         -2.130066695188     0.187721645188    -0.191347307752    12.000000000000
           H         -0.981763695188    -1.435893354812    -1.058975307752     1.007825032070
           H         -0.981706695188    -1.437034354812     0.674178692248     1.007825032070
           C         -2.216890695188     0.984368645188     1.109568692248    12.000000000000
           H         -3.049326695188    -0.366325354812    -0.348171307752     1.007825032070
           H         -2.037508695188     0.864311645188    -1.034101307752     1.007825032070
           H         -2.341836695188     0.329239645188     1.967268692248     1.007825032070
           H         -3.060602695188     1.666403645188     1.090116692248     1.007825032070
           H         -1.319329695188     1.574363645188     1.273167692248     1.007825032070
           C          2.701967304812    -0.457182354812    -0.191186307752    12.000000000000
           H          2.874253304812     0.144926645188    -1.071711307752     1.007825032070
           H          3.355334304812    -1.315656354812    -0.191458307752     1.007825032070
           H          2.874166304812     0.144311645188     0.689757692248     1.007825032070

  Charge       = 0
  Multiplicity = 1
  Basis Set: 6-31G*
  Basis Set:

    Orbital Energies (a.u.)
    -----------------------

    Doubly Occupied:

       1A    -20.605183     2A    -20.547096     3A    -11.374043
       4A    -11.281902     5A    -11.236004     6A    -11.221704
       7A    -11.203151     8A     -1.471130     9A     -1.365047
      10A     -1.079409    11A     -0.998988    12A     -0.936272
      13A     -0.828869    14A     -0.767324    15A     -0.701603
      16A     -0.682442    17A     -0.672461    18A     -0.619526
      19A     -0.615055    20A     -0.566537    21A     -0.562120
      22A     -0.533272    23A     -0.522625    24A     -0.491233
      25A     -0.482080    26A     -0.481047    27A     -0.456830
      28A     -0.435232

  @DF-RHF Final Energy:  -344.90547647298990

   => Energetics <=

    Nuclear Repulsion Energy =            319.2710053455526804
    One-Electron Energy =               -1102.8768450172317444
    Two-Electron Energy =                 438.7003631986883647
    DFT Exchange-Correlation Energy =       0.0000000000000000
    Empirical Dispersion Energy =           0.0000000000000000
    PCM Polarization Energy =               0.0000000000000000
    EFP Energy =                            0.0000000000000000
    Total Energy =                       -344.9054764729906992

  Mulliken Charges: (a.u.)
   Center  Symbol    Alpha    Beta     Spin     Total
       1     O     4.28591  4.28591  0.00000 -0.57181
       2     C     2.60624  2.60624  0.00000  0.78753
       3     C     3.20814  3.20814  0.00000 -0.41629
       4     O     4.30643  4.30643  0.00000 -0.61287
       5     C     3.15268  3.15268  0.00000 -0.30537
       6     H     0.39855  0.39855  0.00000  0.20290
       7     H     0.40067  0.40067  0.00000  0.19866
       8     C     3.24965  3.24965  0.00000 -0.49930
       9     H     0.41782  0.41782  0.00000  0.16437
      10     H     0.41049  0.41049  0.00000  0.17902
      11     H     0.42618  0.42618  0.00000  0.14763
      12     H     0.41936  0.41936  0.00000  0.16127
      13     H     0.39931  0.39931  0.00000  0.20139
      14     C     3.09251  3.09251  0.00000 -0.18501
      15     H     0.40886  0.40886  0.00000  0.18227
      16     H     0.40816  0.40816  0.00000  0.18368
      17     H     0.40903  0.40903  0.00000  0.18193

   Total alpha = 28.00000, Total beta = 28.00000, Total charge = -0.00000
