  ==> Input File <==

--------------------------------------------------------------------------
set {
	reference rhf
	basis 6-31G*
}

set_num_threads( 1 )
memory 2 gb

molecule MOL {
0 1

H	 -3.892951	 0.981613	 -0.358725
C	 -3.196921	 0.361773	 0.172313
C	 -2.076860	 -0.007332	 -0.404944
H	 -3.439953	 0.057760	 1.173024
O	 -0.903330	 -0.074749	 0.277069
H	 -2.024005	 -0.295446	 -1.440025
C	 0.261148	 -0.301102	 -0.440292
C	 0.856686	 0.987434	 -0.961161
H	 0.103810	 -0.965166	 -1.282883
H	 0.978949	 -0.750437	 0.230040
F	 1.983692	 0.723153	 -1.606002
F	 0.043262	 1.597109	 -1.807606
F	 1.133271	 1.832955	 0.009913

	symmetry c1
}
set optking {
	frozen_dihedral = ("
		11 8 7 9,
		3 5 7 9,
		6 3 5 7
	")
}

ee = energy('scf')
oeprop('DIPOLE', 'QUADRUPOLE', 'MULLIKEN_CHARGES')
f=open( 'psi4out.xyz', 'w' )
f.write( "13  " )
f.write( str(ee) + "\n" )
f.write( MOL.save_string_xyz() )
f.close()
--------------------------------------------------------------------------

    Molecular point group: c1

    Geometry (in Angstrom), charge = 0, multiplicity = 1:

       Center              X                  Y                   Z               Mass
    ------------   -----------------  -----------------  -----------------  -----------------
           H         -3.792817761576     0.273690955221     0.288218366509     1.007825032070
           C         -3.096787761576    -0.346149044779     0.819256366509    12.000000000000
           C         -1.976726761576    -0.715254044779     0.241999366509    12.000000000000
           H         -3.339819761576    -0.650162044779     1.819967366509     1.007825032070
           O         -0.803196761576    -0.782671044779     0.924012366509    15.994914619560
           H         -1.923871761576    -1.003368044779    -0.793081633491     1.007825032070
           C          0.361281238424    -1.009024044779     0.206651366509    12.000000000000
           C          0.956819238424     0.279511955221    -0.314217633491    12.000000000000
           H          0.203943238424    -1.673088044779    -0.635939633491     1.007825032070
           H          1.079082238424    -1.458359044779     0.876983366509     1.007825032070
           F          2.083825238424     0.015230955221    -0.959058633491    18.998403224000
           F          0.143395238424     0.889186955221    -1.160662633491    18.998403224000
           F          1.233404238424     1.125032955221     0.656856366509    18.998403224000

  Charge       = 0
  Multiplicity = 1
  Basis Set: 6-31G*
  Basis Set:

    Orbital Energies (a.u.)
    -----------------------

    Doubly Occupied:

       1A    -26.345545     2A    -26.343568     3A    -26.340861
       4A    -20.610577     5A    -11.504190     6A    -11.320273
       7A    -11.305718     8A    -11.210114     9A     -1.742125
      10A     -1.640356    11A     -1.638452    12A     -1.440408
      13A     -1.085104    14A     -1.016628    15A     -0.925867
      16A     -0.837095    17A     -0.831338    18A     -0.822183
      19A     -0.792078    20A     -0.721889    21A     -0.711466
      22A     -0.696163    23A     -0.675984    24A     -0.660169
      25A     -0.654908    26A     -0.643401    27A     -0.635207
      28A     -0.586575    29A     -0.572580    30A     -0.526202
      31A     -0.510149    32A     -0.327624

  @DF-RHF Final Energy:  -527.49995617012223

   => Energetics <=

    Nuclear Repulsion Energy =            413.4888392652255220
    One-Electron Energy =               -1550.6279315736076114
    Two-Electron Energy =                 609.6391361382592322
    DFT Exchange-Correlation Energy =       0.0000000000000000
    Empirical Dispersion Energy =           0.0000000000000000
    PCM Polarization Energy =               0.0000000000000000
    EFP Energy =                            0.0000000000000000
    Total Energy =                       -527.4999561701228004

  Mulliken Charges: (a.u.)
   Center  Symbol    Alpha    Beta     Spin     Total
       1     H     0.40393  0.40393  0.00000  0.19214
       2     C     3.24751  3.24751  0.00000 -0.49502
       3     C     2.89332  2.89332  0.00000  0.21337
       4     H     0.40381  0.40381  0.00000  0.19238
       5     O     4.29490  4.29490  0.00000 -0.58981
       6     H     0.40593  0.40593  0.00000  0.18815
       7     C     3.06528  3.06528  0.00000 -0.13056
       8     C     2.45449  2.45449  0.00000  1.09103
       9     H     0.40520  0.40520  0.00000  0.18960
      10     H     0.38951  0.38951  0.00000  0.22097
      11     F     4.68263  4.68263  0.00000 -0.36526
      12     F     4.67930  4.67930  0.00000 -0.35859
      13     F     4.67420  4.67420  0.00000 -0.34840

   Total alpha = 32.00000, Total beta = 32.00000, Total charge = -0.00000
