  ==> Input File <==

--------------------------------------------------------------------------
set {
	reference rhf
	basis 6-31G*
}

set_num_threads( 1 )
memory 2 gb

molecule MOL {
0 1

H	 -2.332162	 -0.403324	 -0.729841
O	 -2.035884	 -0.060112	 0.102722
C	 -0.955155	 0.788182	 -0.092531
C	 0.353668	 0.040312	 -0.004810
H	 -0.985057	 1.290372	 -1.054184
H	 -0.974469	 1.533190	 0.688632
F	 0.394464	 -0.937475	 -0.903053
F	 1.368604	 0.853376	 -0.249821
F	 0.546173	 -0.502608	 1.179981

	symmetry c1
}
set optking {
	frozen_dihedral = ("
		7 4 3 5
	")
}

ee = energy('scf')
oeprop('DIPOLE', 'QUADRUPOLE', 'MULLIKEN_CHARGES')
f=open( 'psi4out.xyz', 'w' )
f.write( "9  " )
f.write( str(ee) + "\n" )
f.write( MOL.save_string_xyz() )
f.close()
--------------------------------------------------------------------------

    Molecular point group: c1

    Geometry (in Angstrom), charge = 0, multiplicity = 1:

       Center              X                  Y                   Z               Mass
    ------------   -----------------  -----------------  -----------------  -----------------
           H         -2.329812182639    -0.406054848341    -0.728700783566     1.007825032070
           O         -2.033534182639    -0.062842848341     0.103862216434    15.994914619560
           C         -0.952805182639     0.785451151659    -0.091390783566    12.000000000000
           C          0.356017817361     0.037581151659    -0.003669783566    12.000000000000
           H         -0.982707182639     1.287641151659    -1.053043783566     1.007825032070
           H         -0.972119182639     1.530459151659     0.689772216434     1.007825032070
           F          0.396813817361    -0.940205848341    -0.901912783566    18.998403224000
           F          1.370953817361     0.850645151659    -0.248680783566    18.998403224000
           F          0.548522817361    -0.505338848341     1.181121216434    18.998403224000

  Charge       = 0
  Multiplicity = 1
  Basis Set: 6-31G*
  Basis Set:

    Orbital Energies (a.u.)
    -----------------------

    Doubly Occupied:

       1A    -26.340987     2A    -26.336828     3A    -26.335845
       4A    -20.590717     5A    -11.496686     6A    -11.309742
       7A     -1.736009     8A     -1.635355     9A     -1.631909
      10A     -1.402559    11A     -1.047076    12A     -0.920368
      13A     -0.826672    14A     -0.825224    15A     -0.797159
      16A     -0.732615    17A     -0.707944    18A     -0.697603
      19A     -0.661569    20A     -0.654579    21A     -0.638356
      22A     -0.629224    23A     -0.604991    24A     -0.533466
      25A     -0.479936

  @DF-RHF Final Energy:  -450.66176695884440

   => Energetics <=

    Nuclear Repulsion Energy =            276.7062163766007643
    One-Electron Energy =               -1175.5891405299132657
    Two-Electron Energy =                 448.2211571944674233
    DFT Exchange-Correlation Energy =       0.0000000000000000
    Empirical Dispersion Energy =           0.0000000000000000
    PCM Polarization Energy =               0.0000000000000000
    EFP Energy =                            0.0000000000000000
    Total Energy =                       -450.6617669588450781

  Mulliken Charges: (a.u.)
   Center  Symbol    Alpha    Beta     Spin     Total
       1     H     0.27164  0.27164  0.00000  0.45673
       2     O     4.36046  4.36046  0.00000 -0.72093
       3     C     3.05933  3.05933  0.00000 -0.11866
       4     C     2.45781  2.45781  0.00000  1.08438
       5     H     0.40957  0.40957  0.00000  0.18086
       6     H     0.39744  0.39744  0.00000  0.20512
       7     F     4.68580  4.68580  0.00000 -0.37161
       8     F     4.68239  4.68239  0.00000 -0.36478
       9     F     4.67556  4.67556  0.00000 -0.35111

   Total alpha = 25.00000, Total beta = 25.00000, Total charge = -0.00000
