  ==> Input File <==

--------------------------------------------------------------------------
set {
	reference rhf
	basis 6-31G*
}

set_num_threads( 4 )
memory 2 gb

molecule MOL {
0 1

O	 2.200284	 -0.326412	 0.222469
C	 1.122059	 0.121804	 -0.000188
C	 -0.170150	 -0.657997	 -0.000612
O	 0.911685	 1.400730	 -0.284909
C	 -1.412532	 0.227344	 -0.000452
H	 -0.153702	 -1.313099	 -0.867402
H	 -0.153924	 -1.313811	 0.865644
C	 -2.706999	 -0.587347	 -0.000541
H	 -1.388000	 0.879466	 -0.868000
H	 -1.387972	 0.879138	 0.867341
C	 -3.956778	 0.291888	 0.000910
H	 -2.726114	 -1.239230	 -0.871609
H	 -2.725217	 -1.240844	 0.869333
H	 -3.985213	 0.933254	 -0.875158
H	 -4.860123	 -0.309979	 0.000519
H	 -3.984618	 0.931166	 0.878514
C	 2.046525	 2.247040	 -0.317118
H	 2.537384	 2.261298	 0.645348
H	 1.674883	 3.229837	 -0.561947
H	 2.747816	 1.913898	 -1.068593

	symmetry c1
}
set optking {
	frozen_dihedral = ("
		1 2 3 6
	")
}

ee = optimize('scf')
oeprop('DIPOLE', 'QUADRUPOLE', 'MULLIKEN_CHARGES')
f=open( 'psi4out.xyz', 'w' )
f.write( "20  " )
f.write( str(ee) + "\n" )
f.write( MOL.save_string_xyz() )
f.close()
--------------------------------------------------------------------------

    Molecular point group: c1
  Charge       = 0
  Multiplicity = 1
  Basis Set: 6-31G*
  Basis Set:
  @DF-RHF Final Energy:  -383.93774474350971
    Total Energy =                       -383.9377447435098247
    Molecular point group: c1
  Basis Set: 6-31G*
  Basis Set:
  Basis Set: 6-31G*
  Basis Set:
  @DF-RHF Final Energy:  -383.93845473546162
    Total Energy =                       -383.9384547354616188
  Basis Set: 6-31G*
  Basis Set:
  Basis Set: 6-31G*
  Basis Set:
  @DF-RHF Final Energy:  -383.93831535357180
    Total Energy =                       -383.9383153535719657
  Basis Set: 6-31G*
  Basis Set:
  Basis Set: 6-31G*
  Basis Set:
  @DF-RHF Final Energy:  -383.93908620160403
    Total Energy =                       -383.9390862016039137
  Basis Set: 6-31G*
  Basis Set:
  Basis Set: 6-31G*
  Basis Set:
  @DF-RHF Final Energy:  -383.93909505231125
    Total Energy =                       -383.9390950523114725
  Basis Set: 6-31G*
  Basis Set:
  Basis Set: 6-31G*
  Basis Set:
  @DF-RHF Final Energy:  -383.93909762314058
    Total Energy =                       -383.9390976231409240
  Basis Set: 6-31G*
  Basis Set:
  Charge       = 0
  Multiplicity = 1
  Basis Set: 6-31G*
  Basis Set:

    Orbital Energies (a.u.)
    -----------------------

    Doubly Occupied:

       1A    -20.606558     2A    -20.540577     3A    -11.372506
       4A    -11.281701     5A    -11.235860     6A    -11.223749
       7A    -11.222479     8A    -11.213387     9A     -1.470294
      10A     -1.360949    11A     -1.091338    12A     -1.023806
      13A     -0.966935    14A     -0.892463    15A     -0.806095
      16A     -0.774975    17A     -0.693057    18A     -0.684027
      19A     -0.670498    20A     -0.647500    21A     -0.593871
      22A     -0.592013    23A     -0.580974    24A     -0.542409
      25A     -0.531534    26A     -0.523076    27A     -0.503266
      28A     -0.493830    29A     -0.479405    30A     -0.474439
      31A     -0.452030    32A     -0.427566

  @DF-RHF Final Energy:  -383.93909761087161

   => Energetics <=

    Nuclear Repulsion Energy =            383.6405251026230872
    One-Electron Energy =               -1283.2129085362864771
    Two-Electron Energy =                 515.6332858227917768
    DFT Exchange-Correlation Energy =       0.0000000000000000
    Empirical Dispersion Energy =           0.0000000000000000
    PCM Polarization Energy =               0.0000000000000000
    EFP Energy =                            0.0000000000000000
    Total Energy =                       -383.9390976108716131
    Molecular point group: c1
  Basis Set: 6-31G*
  Basis Set:

  -Total Gradient:
     Atom            X                  Y                   Z
    ------   -----------------  -----------------  -----------------
       1        0.000068186274    -0.000158040315    -0.000585637688
       2       -0.000058278069     0.000099659003     0.000912614602
       3       -0.000246908776     0.000461344154    -0.000635955396
       4       -0.000013502629     0.000020178300    -0.000020314656
       5        0.000009723601    -0.000003341800     0.000026266117
       6        0.000246133421    -0.000429909241     0.000305815993
       7        0.000005022833     0.000007151166    -0.000009726041
       8       -0.000010307102    -0.000005032901    -0.000000550541
       9       -0.000002761723     0.000009315427     0.000005662502
      10        0.000004094843     0.000000446521     0.000010051985
      11        0.000006179021     0.000002083803    -0.000016204730
      12        0.000007558618    -0.000007968980     0.000004308872
      13       -0.000003877253     0.000011810880     0.000006661031
      14       -0.000003306925     0.000004620646    -0.000001973981
      15        0.000005255492    -0.000002133529    -0.000004114109
      16        0.000002257764    -0.000003866753     0.000000209511
      17       -0.000010945078    -0.000008085347     0.000006525466
      18        0.000001345979     0.000002166417    -0.000002096553
      19       -0.000005652281    -0.000000391398    -0.000001458783
      20       -0.000000218010    -0.000000006056    -0.000000083600

  **** Optimization is complete! (in 7 steps) ****
    Final optimized geometry and variables:
    Molecular point group: c1

    Geometry (in Angstrom), charge = 0, multiplicity = 1:

    O            2.381780652962    -0.714659134229     0.282954501545
    C            1.334654627939    -0.198842888787     0.052971084013
    C            0.023549458523    -0.953416510112     0.034952950738
    O            1.211735170116     1.086246547675    -0.241301652886
    C           -1.254180076387    -0.115580324831     0.044241363041
    H            0.057088073257    -1.589638113784    -0.846382661594
    H            0.054312470051    -1.627650184767     0.884099865338
    C           -2.510956606659    -0.987932224595     0.057405223618
    H           -1.270417804707     0.534956069610    -0.823832462393
    H           -1.255831848548     0.535838710888     0.913931313472
    C           -3.799431774512    -0.166520775530     0.060516041037
    H           -2.504374579130    -1.645044186417    -0.809793312895
    H           -2.494084021777    -1.635971363449     0.931034916122
    H           -3.862405949407     0.467011864530    -0.819537821191
    H           -4.674159822597    -0.809059565795     0.069202118028
    H           -3.852133061491     0.476368124236     0.934462483247
    C            2.402034883631     1.853769999471    -0.271015899799
    H            2.887843903656     1.836887332925     0.693710936495
    H            2.098405061926     2.858407140477    -0.520786071279
    H            3.081553179903     1.469834947850    -1.017969394684

  Mulliken Charges: (a.u.)
   Center  Symbol    Alpha    Beta     Spin     Total
       1     O     4.28918  4.28918  0.00000 -0.57836
       2     C     2.60458  2.60458  0.00000  0.79085
       3     C     3.21142  3.21142  0.00000 -0.42284
       4     O     4.30411  4.30411  0.00000 -0.60822
       5     C     3.15080  3.15080  0.00000 -0.30160
       6     H     0.39911  0.39911  0.00000  0.20178
       7     H     0.39782  0.39782  0.00000  0.20437
       8     C     3.15473  3.15473  0.00000 -0.30946
       9     H     0.41210  0.41210  0.00000  0.17581
      10     H     0.41671  0.41671  0.00000  0.16657
      11     C     3.23939  3.23939  0.00000 -0.47878
      12     H     0.42200  0.42200  0.00000  0.15601
      13     H     0.42146  0.42146  0.00000  0.15708
      14     H     0.42053  0.42053  0.00000  0.15895
      15     H     0.41784  0.41784  0.00000  0.16432
      16     H     0.42055  0.42055  0.00000  0.15891
      17     C     3.09273  3.09273  0.00000 -0.18546
      18     H     0.40808  0.40808  0.00000  0.18383
      19     H     0.40858  0.40858  0.00000  0.18284
      20     H     0.40829  0.40829  0.00000  0.18341

   Total alpha = 32.00000, Total beta = 32.00000, Total charge = -0.00000
