                              Psi4 1.0.54 Driver

  ==> Input File <==

--------------------------------------------------------------------------
set {
	reference rhf
	basis cc-pvtz
}

set_num_threads( 4 )
memory 2 gb

molecule MOL {
0 1

H	 3.721907	 -0.933076	 -0.066039
O	 2.824271	 -1.154299	 0.131461
C	 2.076458	 -0.067370	 -0.038225
C	 0.626018	 -0.337582	 0.258241
O	 2.538288	 0.965419	 -0.381593
C	 -0.267326	 0.883135	 0.076490
H	 0.325620	 -1.161483	 -0.378003
H	 0.574537	 -0.713685	 1.275261
C	 -1.726822	 0.642622	 0.463839
H	 -0.210803	 1.217591	 -0.953497
H	 0.129920	 1.693110	 0.675679
C	 -2.480891	 -0.340606	 -0.429852
H	 -2.243098	 1.597649	 0.438609
H	 -1.776542	 0.301208	 1.495542
C	 -2.759016	 -1.671191	 0.262004
H	 -3.421291	 0.107881	 -0.738949
H	 -1.918263	 -0.528309	 -1.338792
H	 -3.295948	 -2.348805	 -0.391622
H	 -3.357102	 -1.529670	 1.155852
H	 -1.835871	 -2.158797	 0.557300

	symmetry c1
}
set optking {
	frozen_dihedral = ("
		16 12 9 6
	")
}

ee,wfn = optimize('scf', return_wfn=True)
oeprop( wfn, 'DIPOLE', 'QUADRUPOLE', 'MULLIKEN_CHARGES')
f=open( 'psi4out.xyz', 'w' )
f.write( "20  " )
f.write( str(ee) + "\n" )
f.write( MOL.save_string_xyz() )
f.close()
--------------------------------------------------------------------------

    Molecular point group: c1
  Charge       = 0
  Multiplicity = 1
  Basis Set: CC-PVTZ
  Basis Set:
  @DF-RHF Final Energy:  -384.08951463056809
    Total Energy =                       -384.0895146305684875
    Molecular point group: c1
  Basis Set: CC-PVTZ
  Basis Set:
  Basis Set: CC-PVTZ
  Basis Set:
  @DF-RHF Final Energy:  -384.08985712252115
    Total Energy =                       -384.0898571225211526
  Basis Set: CC-PVTZ
  Basis Set:
  Basis Set: CC-PVTZ
  Basis Set:
  @DF-RHF Final Energy:  -384.08992756543404
    Total Energy =                       -384.0899275654336407
  Basis Set: CC-PVTZ
  Basis Set:
  Basis Set: CC-PVTZ
  Basis Set:
  @DF-RHF Final Energy:  -384.08992783727558
    Total Energy =                       -384.0899278372748995
  Basis Set: CC-PVTZ
  Basis Set:
  Basis Set: CC-PVTZ
  Basis Set:
  @DF-RHF Final Energy:  -384.08989135458705
    Total Energy =                       -384.0898913545870528
  Basis Set: CC-PVTZ
  Basis Set:
  Basis Set: CC-PVTZ
  Basis Set:
  @DF-RHF Final Energy:  -384.08994431460485
    Total Energy =                       -384.0899443146045087
  Basis Set: CC-PVTZ
  Basis Set:
  Charge       = 0
  Multiplicity = 1
  Basis Set: CC-PVTZ
  Basis Set:

    Orbital Energies (a.u.)
    -----------------------

    Doubly Occupied:

       1A    -20.603979     2A    -20.540619     3A    -11.373505
       4A    -11.238817     5A    -11.221235     6A    -11.218904
       7A    -11.218135     8A    -11.212046     9A     -1.477557
      10A     -1.369096    11A     -1.096674    12A     -1.039602
      13A     -0.964126    14A     -0.873276    15A     -0.815274
      16A     -0.778626    17A     -0.703801    18A     -0.693605
      19A     -0.667500    20A     -0.626059    21A     -0.612509
      22A     -0.598345    23A     -0.581698    24A     -0.555409
      25A     -0.536253    26A     -0.515232    27A     -0.502317
      28A     -0.484514    29A     -0.470688    30A     -0.464084
      31A     -0.457412    32A     -0.444900

  @DF-RHF Final Energy:  -384.08994550997784

   => Energetics <=

    Nuclear Repulsion Energy =            381.5367173442301691
    One-Electron Energy =               -1279.3417277006242330
    Two-Electron Energy =                 513.7150648464159985
    DFT Exchange-Correlation Energy =       0.0000000000000000
    Empirical Dispersion Energy =           0.0000000000000000
    PCM Polarization Energy =               0.0000000000000000
    EFP Energy =                            0.0000000000000000
    Total Energy =                       -384.0899455099780653
    Molecular point group: c1
  Basis Set: CC-PVTZ
  Basis Set:

  -Total Gradient:
     Atom            X                  Y                   Z
    ------   -----------------  -----------------  -----------------
       1        0.000009440311    -0.000005199859     0.000000783382
       2        0.000014572654    -0.000005660062    -0.000006060910
       3       -0.000017068180     0.000025006185    -0.000007140556
       4       -0.000010818593    -0.000004378275    -0.000006652384
       5        0.000001508198    -0.000018046053     0.000011929982
       6       -0.000228130704     0.000590987212    -0.000473346270
       7        0.000000802560     0.000002274258     0.000006195595
       8        0.000005953892     0.000004038621     0.000006848332
       9        0.000427087499    -0.000740663237     0.000473263936
      10       -0.000002181764     0.000003783459    -0.000006965034
      11       -0.000001316661    -0.000007434368    -0.000001023184
      12       -0.000682030300    -0.000245847273     0.000858353543
      13        0.000000124599     0.000005365101    -0.000001239942
      14        0.000001790563    -0.000004302482     0.000001082459
      15       -0.000007130816    -0.000001383120     0.000001872192
      16        0.000483240896     0.000407584802    -0.000857917885
      17        0.000002926807    -0.000000184824    -0.000001825098
      18       -0.000000113740    -0.000005259776    -0.000001325653
      19       -0.000004972402    -0.000001837574     0.000003804449
      20        0.000006315185     0.000001157262    -0.000000636952

  **** Optimization is complete! (in 7 steps) ****
    Final optimized geometry and variables:
    Molecular point group: c1

    Geometry (in Angstrom), charge = 0, multiplicity = 1:

    H            3.559924922299    -0.782536843412    -0.142942859149
    O            2.666276158996    -0.995442502733     0.080229874907
    C            1.919007884161     0.091263705969    -0.093529541912
    C            0.474836965624    -0.166357942092     0.242693363642
    O            2.376174449169     1.115009653775    -0.468763412586
    C           -0.416826452095     1.055344055168     0.063172166639
    H            0.153238003299    -0.997667917128    -0.374128617321
    H            0.446010614444    -0.527302086255     1.265845102867
    C           -1.880390686373     0.812442565508     0.436912683219
    H           -0.355571485562     1.393805888496    -0.964920563511
    H           -0.023865016712     1.863261380005     0.668568783694
    C           -2.627204491498    -0.198639944628    -0.457960187194
    H           -2.386899202079     1.769724421250     0.391207425082
    H           -1.939948738108     0.495638201558     1.474739285601
    C           -2.917744598326    -1.538143067706     0.214594282780
    H           -3.564645947655     0.236735286346    -0.785294959759
    H           -2.057577251616    -0.370364592196    -1.366623294270
    H           -3.431193280597    -2.211936730450    -0.461933903792
    H           -3.547041906523    -1.403652573821     1.087802155639
    H           -2.007551811412    -2.029025206000     0.541214065306

  Mulliken Charges: (a.u.)
   Center  Symbol    Alpha    Beta     Spin     Total
       1     H     0.38230  0.38230  0.00000  0.23541
       2     O     4.16044  4.16044  0.00000 -0.32088
       3     C     2.80382  2.80382  0.00000  0.39236
       4     C     3.11458  3.11458  0.00000 -0.22917
       5     O     4.19080  4.19080  0.00000 -0.38160
       6     C     3.09014  3.09014  0.00000 -0.18028
       7     H     0.43664  0.43664  0.00000  0.12671
       8     H     0.43633  0.43633  0.00000  0.12733
       9     C     3.10462  3.10462  0.00000 -0.20923
      10     H     0.44540  0.44540  0.00000  0.10920
      11     H     0.44051  0.44051  0.00000  0.11898
      12     C     3.10184  3.10184  0.00000 -0.20368
      13     H     0.44018  0.44018  0.00000  0.11964
      14     H     0.45443  0.45443  0.00000  0.09115
      15     C     3.14681  3.14681  0.00000 -0.29362
      16     H     0.44309  0.44309  0.00000  0.11382
      17     H     0.45178  0.45178  0.00000  0.09644
      18     H     0.44781  0.44781  0.00000  0.10438
      19     H     0.45337  0.45337  0.00000  0.09326
      20     H     0.45511  0.45511  0.00000  0.08979

   Total alpha = 32.00000, Total beta = 32.00000, Total charge =  0.00000

*** Psi4 exiting successfully. Buy a developer a beer!
