  ==> Input File <==

--------------------------------------------------------------------------
set {
	reference rhf
	basis 6-31G*
}

set_num_threads( 4 )
memory 2 gb

molecule MOL {
0 1

O	 3.225979	 0.970355	 -0.599647
C	 2.701189	 0.057885	 -0.047330
C	 1.245376	 -0.013843	 0.345420
O	 3.347903	 -1.046386	 0.304773
C	 0.455112	 1.231400	 -0.050772
H	 0.838542	 -0.913825	 -0.103701
H	 1.208210	 -0.175333	 1.419774
C	 -0.998893	 1.219485	 0.433193
H	 0.482531	 1.345121	 -1.130325
H	 0.957290	 2.103070	 0.354729
C	 -1.883438	 0.145884	 -0.207175
H	 -1.431207	 2.195402	 0.224832
H	 -1.019646	 1.105716	 1.516076
C	 -3.347647	 0.245583	 0.225435
H	 -1.822183	 0.231698	 -1.291012
H	 -1.510341	 -0.844814	 0.042401
C	 -3.846796	 -0.996438	 0.965953
H	 -3.970948	 0.415131	 -0.650913
H	 -3.476059	 1.118818	 0.863141
C	 -5.310927	 -0.890373	 1.391126
H	 -3.718275	 -1.870126	 0.330505
H	 -3.227710	 -1.165046	 1.844636
H	 -5.635158	 -1.785275	 1.913267
H	 -5.960280	 -0.756081	 0.530602
H	 -5.465939	 -0.045190	 2.055891
C	 4.728119	 -1.109107	 -0.004993
H	 4.882018	 -1.033965	 -1.071845
H	 5.068212	 -2.067527	 0.355250
H	 5.265056	 -0.311663	 0.488280

	symmetry c1
}
set optking {
	frozen_dihedral = ("
		17 14 11 15
	")
}

ee = optimize('scf')
oeprop('DIPOLE', 'QUADRUPOLE', 'MULLIKEN_CHARGES')
f=open( 'psi4out.xyz', 'w' )
f.write( "29  " )
f.write( str(ee) + "\n" )
f.write( MOL.save_string_xyz() )
f.close()
--------------------------------------------------------------------------

    Molecular point group: c1
  Charge       = 0
  Multiplicity = 1
  Basis Set: 6-31G*
  Basis Set:
  @DF-RHF Final Energy:  -501.03840968169163
    Total Energy =                       -501.0384096816910642
    Molecular point group: c1
  Basis Set: 6-31G*
  Basis Set:
  Basis Set: 6-31G*
  Basis Set:
  @DF-RHF Final Energy:  -501.03861471501750
    Total Energy =                       -501.0386147150184115
  Basis Set: 6-31G*
  Basis Set:
  Basis Set: 6-31G*
  Basis Set:
  @DF-RHF Final Energy:  -501.03871425282864
    Total Energy =                       -501.0387142528290951
  Basis Set: 6-31G*
  Basis Set:
  Basis Set: 6-31G*
  Basis Set:
  @DF-RHF Final Energy:  -501.03870125018136
    Total Energy =                       -501.0387012501819299
  Basis Set: 6-31G*
  Basis Set:
  @DF-RHF Final Energy:  -501.03871036382725
    Total Energy =                       -501.0387103638270219
  Basis Set: 6-31G*
  Basis Set:
  @DF-RHF Final Energy:  -501.03871960159154
    Total Energy =                       -501.0387196015922200
  Basis Set: 6-31G*
  Basis Set:
  Basis Set: 6-31G*
  Basis Set:
  @DF-RHF Final Energy:  -501.03871832892196
    Total Energy =                       -501.0387183289218456
  Basis Set: 6-31G*
  Basis Set:
  Basis Set: 6-31G*
  Basis Set:
  @DF-RHF Final Energy:  -501.03871997912393
    Total Energy =                       -501.0387199791233570
  Basis Set: 6-31G*
  Basis Set:
  Charge       = 0
  Multiplicity = 1
  Basis Set: 6-31G*
  Basis Set:

    Orbital Energies (a.u.)
    -----------------------

    Doubly Occupied:

       1A    -20.603383     2A    -20.545206     3A    -11.372027
       4A    -11.280671     5A    -11.234807     6A    -11.218927
       7A    -11.217987     8A    -11.216507     9A    -11.215615
      10A    -11.214133    11A    -11.209057    12A     -1.469082
      13A     -1.362525    14A     -1.096966    15A     -1.065878
      16A     -1.019052    17A     -0.976397    18A     -0.928133
      19A     -0.862146    20A     -0.803565    21A     -0.788710
      22A     -0.763948    23A     -0.700464    24A     -0.682289
      25A     -0.672007    26A     -0.637352    27A     -0.632201
      28A     -0.611176    29A     -0.595074    30A     -0.580346
      31A     -0.563163    32A     -0.554431    33A     -0.537960
      34A     -0.525932    35A     -0.517174    36A     -0.509336
      37A     -0.495650    38A     -0.477380    39A     -0.474554
      40A     -0.459941    41A     -0.456287    42A     -0.451445
      43A     -0.441683    44A     -0.435431

  @DF-RHF Final Energy:  -501.03871996813302

   => Energetics <=

    Nuclear Repulsion Energy =            612.6661186495092579
    One-Electron Energy =               -1896.4576924169214180
    Two-Electron Energy =                 782.7528537992781139
    DFT Exchange-Correlation Energy =       0.0000000000000000
    Empirical Dispersion Energy =           0.0000000000000000
    PCM Polarization Energy =               0.0000000000000000
    EFP Energy =                            0.0000000000000000
    Total Energy =                       -501.0387199681339325
    Molecular point group: c1
  Basis Set: 6-31G*
  Basis Set:

  -Total Gradient:
     Atom            X                  Y                   Z
    ------   -----------------  -----------------  -----------------
       1        0.000001540114     0.000009300297     0.000018964022
       2       -0.000011430106    -0.000027965427    -0.000051155286
       3        0.000007204125     0.000004499697     0.000018856403
       4        0.000003538075     0.000006705135     0.000015576124
       5       -0.000007200211    -0.000009271809    -0.000002749671
       6        0.000004268848     0.000000651485    -0.000002117658
       7       -0.000002459808    -0.000001327597     0.000000829304
       8       -0.000000639096     0.000022967876     0.000018719861
       9        0.000000880164     0.000004809241    -0.000002533658
      10       -0.000008830825    -0.000002641943     0.000002868557
      11        0.000009151140     0.000238625362    -0.000042916744
      12        0.000009311868     0.000004210381    -0.000003813865
      13       -0.000003766179     0.000012949204     0.000006397021
      14        0.000051145164     0.000041780952     0.000196740986
      15       -0.000036491426    -0.000223458569    -0.000020997503
      16       -0.000007560976    -0.000006487209    -0.000003723773
      17       -0.000041149918    -0.000087535254    -0.000136973414
      18        0.000012100979     0.000005235077    -0.000004287716
      19        0.000008830390     0.000008590684    -0.000004197955
      20        0.000010089742     0.000009255781    -0.000007194508
      21       -0.000004787810    -0.000007166491     0.000003417524
      22        0.000000235573    -0.000007317596     0.000003439438
      23        0.000009221880     0.000001790823    -0.000003146321
      24       -0.000002790505    -0.000000704634    -0.000001856102
      25       -0.000000272065     0.000001992899     0.000001175417
      26       -0.000000220450     0.000000275414     0.000000342656
      27       -0.000000540755     0.000000129058     0.000000051709
      28       -0.000000004380     0.000000190706     0.000000296032
      29        0.000000626429    -0.000000083541    -0.000000010879

  **** Optimization is complete! (in 9 steps) ****
    Final optimized geometry and variables:
    Molecular point group: c1

    Geometry (in Angstrom), charge = 0, multiplicity = 1:

    O            3.161279202605     0.992554611064    -0.846590159246
    C            2.628627715717     0.085889244524    -0.292259125848
    C            1.170068129238     0.023423210235     0.091831095785
    O            3.267835250911    -1.019221712198     0.070748083077
    C            0.388178381679     1.269902578990    -0.317357583143
    H            0.762318485595    -0.877928684699    -0.353568991942
    H            1.125645801982    -0.130589379130     1.167003904661
    C           -1.068131068528     1.270149045015     0.158405986772
    H            0.422193408047     1.376264871715    -1.397568153512
    H            0.893045747539     2.141547699905     0.084880020607
    C           -1.960483600472     0.205594808510    -0.488526305460
    H           -1.491846024414     2.249540809621    -0.050838660697
    H           -1.097599955461     1.154559802772     1.241299732305
    C           -3.433189622195     0.282435852609    -0.025730360627
    H           -1.904106317665     0.311241421960    -1.569084191706
    H           -1.569341643227    -0.783723332438    -0.266876134500
    C           -3.914858393277    -0.976231945038     0.700266781719
    H           -4.080994939956     0.463718992989    -0.879563017939
    H           -3.565872719077     1.138074763788     0.632815328203
    C           -5.365189806203    -0.877823451490     1.170047958980
    H           -3.805684777189    -1.834640473836     0.040812675526
    H           -3.269298122450    -1.165794462135     1.555855959389
    H           -5.676996489307    -1.784886718372     1.678648156032
    H           -6.038630734561    -0.720356604923     0.332153294064
    H           -5.498664393841    -0.049174692715     1.859898854625
    C            4.649710179956    -1.090315897005    -0.229684085443
    H            4.810839959064    -1.022448496063    -1.295960186310
    H            4.982911468049    -2.048088720550     0.138609819234
    H            5.187213468369    -0.292387658695     0.262187877033

  Mulliken Charges: (a.u.)
   Center  Symbol    Alpha    Beta     Spin     Total
       1     O     4.28594  4.28594  0.00000 -0.57188
       2     C     2.60481  2.60481  0.00000  0.79039
       3     C     3.20963  3.20963  0.00000 -0.41926
       4     O     4.30745  4.30745  0.00000 -0.61491
       5     C     3.15458  3.15458  0.00000 -0.30917
       6     H     0.39889  0.39889  0.00000  0.20223
       7     H     0.40124  0.40124  0.00000  0.19752
       8     C     3.15856  3.15856  0.00000 -0.31712
       9     H     0.41309  0.41309  0.00000  0.17383
      10     H     0.40867  0.40867  0.00000  0.18266
      11     C     3.15853  3.15853  0.00000 -0.31706
      12     H     0.41754  0.41754  0.00000  0.16491
      13     H     0.42405  0.42405  0.00000  0.15190
      14     C     3.15369  3.15369  0.00000 -0.30738
      15     H     0.41987  0.41987  0.00000  0.16026
      16     H     0.42081  0.42081  0.00000  0.15838
      17     C     3.15331  3.15331  0.00000 -0.30662
      18     H     0.42052  0.42052  0.00000  0.15896
      19     H     0.42084  0.42084  0.00000  0.15831
      20     C     3.24011  3.24011  0.00000 -0.48023
      21     H     0.42260  0.42260  0.00000  0.15479
      22     H     0.42378  0.42378  0.00000  0.15243
      23     H     0.41924  0.41924  0.00000  0.16152
      24     H     0.42152  0.42152  0.00000  0.15695
      25     H     0.42158  0.42158  0.00000  0.15683
      26     C     3.09241  3.09241  0.00000 -0.18481
      27     H     0.40908  0.40908  0.00000  0.18183
      28     H     0.40851  0.40851  0.00000  0.18298
      29     H     0.40912  0.40912  0.00000  0.18175

   Total alpha = 44.00000, Total beta = 44.00000, Total charge = -0.00000
