                              Psi4 1.0.54 Driver

  ==> Input File <==

--------------------------------------------------------------------------
set {
	reference rhf
	basis cc-pvtz
}

set_num_threads( 4 )
memory 2 gb

molecule MOL {
0 1

H	 2.156633	 -1.057754	 0.128821
C	 1.911446	 -0.111665	 -0.371632
C	 0.692262	 0.592428	 0.156232
O	 2.586824	 0.280038	 -1.259363
C	 -0.554654	 -0.292621	 0.086567
H	 0.556737	 1.509088	 -0.402521
H	 0.891281	 0.854550	 1.193325
C	 -1.846385	 0.513195	 -0.016346
H	 -0.473986	 -0.956115	 -0.769708
H	 -0.597929	 -0.929215	 0.966651
C	 -3.089953	 -0.365049	 -0.098564
H	 -1.798267	 1.154820	 -0.891143
H	 -1.925398	 1.173265	 0.842889
H	 -3.055079	 -1.012299	 -0.968245
H	 -3.988403	 0.236438	 -0.170014
H	 -3.183055	 -0.995885	 0.779079

	symmetry c1
}
set optking {
	frozen_dihedral = ("
		6 3 5 9
	")
}

ee,wfn = optimize('scf', return_wfn=True)
oeprop( wfn, 'DIPOLE', 'QUADRUPOLE', 'MULLIKEN_CHARGES')
f=open( 'psi4out.xyz', 'w' )
f.write( "16  " )
f.write( str(ee) + "\n" )
f.write( MOL.save_string_xyz() )
f.close()
--------------------------------------------------------------------------

    Molecular point group: c1
  Charge       = 0
  Multiplicity = 1
  Basis Set: CC-PVTZ
  Basis Set:
  @DF-RHF Final Energy:  -270.11676644123963
    Total Energy =                       -270.1167664412399745
    Molecular point group: c1
  Basis Set: CC-PVTZ
  Basis Set:
  Basis Set: CC-PVTZ
  Basis Set:
  @DF-RHF Final Energy:  -270.11673068065181
    Total Energy =                       -270.1167306806515853
  Basis Set: CC-PVTZ
  Basis Set:
  Basis Set: CC-PVTZ
  Basis Set:
  @DF-RHF Final Energy:  -270.11468829716512
    Total Energy =                       -270.1146882971651166
  Basis Set: CC-PVTZ
  Basis Set:
  Basis Set: CC-PVTZ
  Basis Set:
  @DF-RHF Final Energy:  -270.11686695277217
    Total Energy =                       -270.1168669527723409
  Basis Set: CC-PVTZ
  Basis Set:
  @DF-RHF Final Energy:  -270.11699976587977
    Total Energy =                       -270.1169997658799957
  @DF-RHF Final Energy:  -270.11704804912290
    Total Energy =                       -270.1170480491230705
  Basis Set: CC-PVTZ
  Basis Set:
  @DF-RHF Final Energy:  -270.11705252600552
    Total Energy =                       -270.1170525260052955
  Basis Set: CC-PVTZ
  Basis Set:
  Basis Set: CC-PVTZ
  Basis Set:
  @DF-RHF Final Energy:  -270.11705498863984
    Total Energy =                       -270.1170549886398931
  Basis Set: CC-PVTZ
  Basis Set:
  Basis Set: CC-PVTZ
  Basis Set:
  @DF-RHF Final Energy:  -270.11705606868344
    Total Energy =                       -270.1170560686833824
  Basis Set: CC-PVTZ
  Basis Set:
  Charge       = 0
  Multiplicity = 1
  Basis Set: CC-PVTZ
  Basis Set:

    Orbital Energies (a.u.)
    -----------------------

    Doubly Occupied:

       1A    -20.551659     2A    -11.321652     3A    -11.234563
       4A    -11.233819     5A    -11.227644     6A    -11.216614
       7A     -1.406598     8A     -1.097078     9A     -1.019972
      10A     -0.907202    11A     -0.813049    12A     -0.795017
      13A     -0.678279    14A     -0.649813    15A     -0.633637
      16A     -0.604166    17A     -0.588039    18A     -0.545590
      19A     -0.530759    20A     -0.513548    21A     -0.487383
      22A     -0.484698    23A     -0.475378    24A     -0.412177

  @DF-RHF Final Energy:  -270.11705615903998

   => Energetics <=

    Nuclear Repulsion Energy =            229.3067701276133903
    One-Electron Energy =                -819.9909829549105780
    Two-Electron Energy =                 320.5671566682570983
    DFT Exchange-Correlation Energy =       0.0000000000000000
    Empirical Dispersion Energy =           0.0000000000000000
    PCM Polarization Energy =               0.0000000000000000
    EFP Energy =                            0.0000000000000000
    Total Energy =                       -270.1170561590400894
    Molecular point group: c1
  Basis Set: CC-PVTZ
  Basis Set:

  -Total Gradient:
     Atom            X                  Y                   Z
    ------   -----------------  -----------------  -----------------
       1       -0.000000344990     0.000000792211     0.000001401256
       2       -0.000001521808     0.000011483462    -0.000013793546
       3        0.002010140242    -0.002743378902    -0.003482974099
       4        0.000003749088    -0.000002685545    -0.000001284432
       5       -0.002329895321     0.003691502493    -0.001699479869
       6       -0.001298734696     0.001659012873     0.003156636312
       7        0.000005777387    -0.000003752350     0.000006857979
       8       -0.000007240487    -0.000002731523    -0.000027391222
       9        0.001621209574    -0.002628349011     0.002049467150
      10       -0.000006506692     0.000013154549     0.000006844470
      11        0.000006324481     0.000005563794     0.000003430827
      12        0.000001335221     0.000000286894     0.000001467298
      13       -0.000003381955    -0.000001173486    -0.000001823994
      14        0.000001166561     0.000001871743     0.000001119101
      15       -0.000001241552    -0.000000710191     0.000000262968
      16       -0.000000835050    -0.000000887011    -0.000000740200

  **** Optimization is complete! (in 10 steps) ****
    Final optimized geometry and variables:
    Molecular point group: c1

    Geometry (in Angstrom), charge = 0, multiplicity = 1:

    H            2.106890177089    -1.273125800606     0.274271438766
    C            1.959680262552    -0.268080207841    -0.142840397969
    C            0.746200068939     0.459719256893     0.360944086612
    O            2.729696504072     0.164531845727    -0.928720442651
    C           -0.530844810013    -0.390524942291     0.282192387181
    H            0.640299022342     1.394181731638    -0.174222106936
    H            0.938718271600     0.718821813911     1.400144066722
    C           -1.803077670533     0.449124022889     0.246225264603
    H           -0.489248060587    -1.042712771128    -0.586407355138
    H           -0.567693986835    -1.058724757981     1.137996955848
    C           -3.072621074717    -0.394464874108     0.223675253906
    H           -1.779733025104     1.093235995663    -0.627434266765
    H           -1.820495889827     1.107420348127     1.110505241255
    H           -3.095657478625    -1.043014697521    -0.645547680137
    H           -3.956335235766     0.231728060262     0.192289202698
    H           -3.142673868051    -1.021766574009     1.105907246161

  Mulliken Charges: (a.u.)
   Center  Symbol    Alpha    Beta     Spin     Total
       1     H     0.46449  0.46449  0.00000  0.07103
       2     C     2.90995  2.90995  0.00000  0.18010
       3     C     3.07882  3.07882  0.00000 -0.15764
       4     O     4.16421  4.16421  0.00000 -0.32843
       5     C     3.10053  3.10053  0.00000 -0.20105
       6     H     0.44300  0.44300  0.00000  0.11401
       7     H     0.44815  0.44815  0.00000  0.10371
       8     C     3.08404  3.08404  0.00000 -0.16808
       9     H     0.44972  0.44972  0.00000  0.10055
      10     H     0.45145  0.45145  0.00000  0.09709
      11     C     3.14914  3.14914  0.00000 -0.29829
      12     H     0.44972  0.44972  0.00000  0.10055
      13     H     0.45227  0.45227  0.00000  0.09547
      14     H     0.45345  0.45345  0.00000  0.09309
      15     H     0.44651  0.44651  0.00000  0.10699
      16     H     0.45456  0.45456  0.00000  0.09089

   Total alpha = 24.00000, Total beta = 24.00000, Total charge = -0.00000

*** Psi4 exiting successfully. Buy a developer a beer!
