  ==> Input File <==

--------------------------------------------------------------------------
set {
	reference rhf
	basis 6-31G*
}

set_num_threads( 4 )
memory 2 gb

molecule MOL {
0 1

H	 -2.646374	 -0.642757	 1.268656
C	 -2.083525	 -0.384536	 0.393091
O	 -0.807605	 -0.127164	 0.768327
F	 -2.118945	 -1.383102	 -0.486752
F	 -2.621877	 0.670592	 -0.209486
C	 0.084052	 0.273579	 -0.209957
C	 -0.715492	 1.046835	 -1.250613
Cl	 0.881334	 -1.124979	 -0.948598
H	 0.851999	 0.920849	 0.176143
F	 0.074406	 1.473873	 -2.212818
F	 -1.260554	 2.098148	 -0.671746
F	 -1.671051	 0.321954	 -1.779223

	symmetry c1
}
set optking {
	frozen_dihedral = ("
		9 6 3 2
	")
}

ee = optimize('scf')
oeprop('DIPOLE', 'QUADRUPOLE', 'MULLIKEN_CHARGES')
f=open( 'psi4out.xyz', 'w' )
f.write( "12  " )
f.write( str(ee) + "\n" )
f.write( MOL.save_string_xyz() )
f.close()
--------------------------------------------------------------------------

    Molecular point group: c1
  Charge       = 0
  Multiplicity = 1
  Basis Set: 6-31G*
  Basis Set:
  @DF-RHF Final Energy: -1146.22004429832259
    Total Energy =                      -1146.2200442983225912
    Molecular point group: c1
  Basis Set: 6-31G*
  Basis Set:
  Basis Set: 6-31G*
  Basis Set:
  @DF-RHF Final Energy: -1146.25752142246529
    Total Energy =                      -1146.2575214224657429
  Basis Set: 6-31G*
  Basis Set:
  Basis Set: 6-31G*
  Basis Set:
  @DF-RHF Final Energy: -1146.28017415366594
    Total Energy =                      -1146.2801741536650297
  Basis Set: 6-31G*
  Basis Set:
  Basis Set: 6-31G*
  Basis Set:
  @DF-RHF Final Energy: -1146.29309226148280
    Total Energy =                      -1146.2930922614821156
  Basis Set: 6-31G*
  Basis Set:
  @DF-RHF Final Energy: -1146.29898795277359
    Total Energy =                      -1146.2989879527726771
  @DF-RHF Final Energy: -1146.30200550653740
    Total Energy =                      -1146.3020055065380802
  @DF-RHF Final Energy: -1146.30325743274443
    Total Energy =                      -1146.3032574327446582
  @DF-RHF Final Energy: -1146.30360742913331
    Total Energy =                      -1146.3036074291319437
  @DF-RHF Final Energy: -1146.30367854017209
    Total Energy =                      -1146.3036785401716315
  @DF-RHF Final Energy: -1146.30370037731473
    Total Energy =                      -1146.3037003773149536
  @DF-RHF Final Energy: -1146.27410843844177
    Total Energy =                      -1146.2741084384419992
  @DF-RHF Final Energy: -1146.29927641309996
    Total Energy =                      -1146.2992764130999603
  @DF-RHF Final Energy: -1146.30355254479809
    Total Energy =                      -1146.3035525447980945
  @DF-RHF Final Energy: -1146.30370905542668
    Total Energy =                      -1146.3037090554266797
  @DF-RHF Final Energy: -1146.30373612762105
    Total Energy =                      -1146.3037361276208230
  @DF-RHF Final Energy: -1146.30375712470732
    Total Energy =                      -1146.3037571247077722
  @DF-RHF Final Energy: -1146.30376306458083
    Total Energy =                      -1146.3037630645812897
  Basis Set: 6-31G*
  Basis Set:
  @DF-RHF Final Energy: -1146.30376508954214
    Total Energy =                      -1146.3037650895421393
  Basis Set: 6-31G*
  Basis Set:
  Basis Set: 6-31G*
  Basis Set:
  @DF-RHF Final Energy: -1146.30376323342512
    Total Energy =                      -1146.3037632334246609
  Basis Set: 6-31G*
  Basis Set:
  Basis Set: 6-31G*
  Basis Set:
  @DF-RHF Final Energy: -1146.30376594830432
    Total Energy =                      -1146.3037659483043171
  Basis Set: 6-31G*
  Basis Set:
  Charge       = 0
  Multiplicity = 1
  Basis Set: 6-31G*
  Basis Set:

    Orbital Energies (a.u.)
    -----------------------

    Doubly Occupied:

       1A   -104.842753     2A    -26.360816     3A    -26.360333
       4A    -26.359573     5A    -26.340162     6A    -26.338640
       7A    -20.645879     8A    -11.531132     9A    -11.486039
      10A    -11.403819    11A    -10.577617    12A     -8.046983
      13A     -8.043425    14A     -8.043326    15A     -1.763509
      16A     -1.711285    17A     -1.659952    18A     -1.657306
      19A     -1.633197    20A     -1.477312    21A     -1.178646
      22A     -1.047806    23A     -0.996747    24A     -0.917171
      25A     -0.860608    26A     -0.852688    27A     -0.847147
      28A     -0.827548    29A     -0.807914    30A     -0.749261
      31A     -0.732036    32A     -0.728867    33A     -0.704422
      34A     -0.694984    35A     -0.679401    36A     -0.673791
      37A     -0.664152    38A     -0.658544    39A     -0.651745
      40A     -0.638777    41A     -0.587710    42A     -0.560032
      43A     -0.522073    44A     -0.475898    45A     -0.466984

  @DF-RHF Final Energy: -1146.30376636903043

   => Energetics <=

    Nuclear Repulsion Energy =            759.8662615521800490
    One-Electron Energy =               -3102.7240329671690233
    Two-Electron Energy =                1196.5540050459594568
    DFT Exchange-Correlation Energy =       0.0000000000000000
    Empirical Dispersion Energy =           0.0000000000000000
    PCM Polarization Energy =               0.0000000000000000
    EFP Energy =                            0.0000000000000000
    Total Energy =                      -1146.3037663690292902
    Molecular point group: c1
  Basis Set: 6-31G*
  Basis Set:

  -Total Gradient:
     Atom            X                  Y                   Z
    ------   -----------------  -----------------  -----------------
       1       -0.000021267313     0.000025297461    -0.000005986646
       2       -0.001692161624     0.005790175351     0.000954965551
       3        0.001861142036    -0.008249871342    -0.001900108711
       4       -0.000054220767    -0.000072043344     0.000099036747
       5        0.000037761868     0.000013583912    -0.000021317445
       6        0.003863379690    -0.002776951411     0.002374081492
       7        0.000018864783     0.000113147783     0.000041850010
       8       -0.000064127838    -0.000041745798     0.000000309265
       9       -0.003942183377     0.005181165962    -0.001421322593
      10        0.000040165693     0.000020473385    -0.000027743097
      11       -0.000017927392    -0.000048564394     0.000027108391
      12       -0.000029425886     0.000045332441    -0.000120872965

  **** Optimization is complete! (in 21 steps) ****
    Final optimized geometry and variables:
    Molecular point group: c1

    Geometry (in Angstrom), charge = 0, multiplicity = 1:

    H           -1.646110492790    -1.043767503308     2.248025989580
    C           -1.306731890437    -0.670098953337     1.301201264081
    O           -0.002620014088    -0.320887655237     1.461310095704
    F           -1.449760996525    -1.600940961328     0.367711928901
    F           -2.050221631585     0.367858950080     0.941861143563
    C            0.862526486687     0.092616167980     0.463814873838
    C            0.272676209525     0.936282665856    -0.674162639478
    CL           1.765190969806    -1.282357141820    -0.198861856944
    H            1.556850575828     0.759612420171     0.943646605560
    F            1.261619073500     1.333879347953    -1.449367364750
    F           -0.291979115752     2.013100496552    -0.167950626051
    F           -0.603420028839     0.305037491147    -1.414844520624

  Mulliken Charges: (a.u.)
   Center  Symbol    Alpha    Beta     Spin     Total
       1     H     0.40400  0.40400  0.00000  0.19200
       2     C     2.56018  2.56018  0.00000  0.87964
       3     O     4.31541  4.31541  0.00000 -0.63082
       4     F     4.68202  4.68202  0.00000 -0.36403
       5     F     4.68360  4.68360  0.00000 -0.36720
       6     C     3.01117  3.01117  0.00000 -0.02234
       7     C     2.45741  2.45741  0.00000  1.08518
       8    CL     8.50358  8.50358  0.00000 -0.00717
       9     H     0.36823  0.36823  0.00000  0.26354
      10     F     4.67363  4.67363  0.00000 -0.34727
      11     F     4.67474  4.67474  0.00000 -0.34949
      12     F     4.66602  4.66602  0.00000 -0.33203

   Total alpha = 45.00000, Total beta = 45.00000, Total charge = -0.00000
