  ==> Input File <==

--------------------------------------------------------------------------
set {
	reference rhf
	basis 6-31G*
}

set_num_threads( 4 )
memory 2 gb

molecule MOL {
0 1

O	 2.918212	 1.265264	 0.453546
C	 2.843464	 0.164689	 -0.000222
C	 1.546494	 -0.624492	 -0.000609
C	 4.048971	 -0.520868	 -0.610075
C	 0.291004	 0.242674	 0.000989
H	 1.557904	 -1.283758	 -0.867573
H	 1.558622	 -1.285963	 0.864672
C	 -0.994322	 -0.586602	 0.000262
H	 0.309117	 0.896430	 -0.865270
H	 0.309661	 0.894078	 0.869017
C	 -2.259874	 0.272531	 0.000494
H	 -1.004862	 -1.240012	 -0.870939
H	 -1.005220	 -1.241071	 0.870675
C	 -3.549786	 -0.549746	 -0.000374
H	 -2.250389	 0.926680	 -0.869574
H	 -2.250838	 0.925513	 0.871430
C	 -4.809590	 0.315458	 -0.000369
H	 -3.560515	 -1.202009	 -0.871156
H	 -3.561123	 -1.202955	 0.869711
H	 -4.844746	 0.956611	 -0.876632
H	 -5.706986	 -0.295590	 -0.001609
H	 -4.845960	 0.954827	 0.877144
H	 3.854582	 -0.777480	 -1.647370
H	 4.907596	 0.133779	 -0.554986
H	 4.264528	 -1.446408	 -0.084200

	symmetry c1
}
set optking {
	frozen_dihedral = ("
		1 2 3 6
	")
}

ee = optimize('scf')
oeprop('DIPOLE', 'QUADRUPOLE', 'MULLIKEN_CHARGES')
f=open( 'psi4out.xyz', 'w' )
f.write( "25  " )
f.write( str(ee) + "\n" )
f.write( MOL.save_string_xyz() )
f.close()
--------------------------------------------------------------------------

    Molecular point group: c1
  Charge       = 0
  Multiplicity = 1
  Basis Set: 6-31G*
  Basis Set:
  @DF-RHF Final Energy:  -387.13561509073298
    Total Energy =                       -387.1356150907329265
    Molecular point group: c1
  Basis Set: 6-31G*
  Basis Set:
  Basis Set: 6-31G*
  Basis Set:
  @DF-RHF Final Energy:  -387.13436075952370
    Total Energy =                       -387.1343607595241565
  Basis Set: 6-31G*
  Basis Set:
  Basis Set: 6-31G*
  Basis Set:
  @DF-RHF Final Energy:  -387.13585209858263
    Total Energy =                       -387.1358520985830864
  Basis Set: 6-31G*
  Basis Set:
  Basis Set: 6-31G*
  Basis Set:
  @DF-RHF Final Energy:  -387.13598887276908
    Total Energy =                       -387.1359888727691896
  Basis Set: 6-31G*
  Basis Set:
  Basis Set: 6-31G*
  Basis Set:
  @DF-RHF Final Energy:  -387.13600483900575
    Total Energy =                       -387.1360048390059774
  Basis Set: 6-31G*
  Basis Set:
  Basis Set: 6-31G*
  Basis Set:
  @DF-RHF Final Energy:  -387.13601200508822
    Total Energy =                       -387.1360120050885598
  Basis Set: 6-31G*
  Basis Set:
  Charge       = 0
  Multiplicity = 1
  Basis Set: 6-31G*
  Basis Set:

    Orbital Energies (a.u.)
    -----------------------

    Doubly Occupied:

       1A    -20.549286     2A    -11.326232     3A    -11.231599
       4A    -11.228551     5A    -11.218479     6A    -11.217365
       7A    -11.215735     8A    -11.214051     9A    -11.208606
      10A     -1.395025    11A     -1.094113    12A     -1.056500
      13A     -1.014656    14A     -0.969540    15A     -0.891142
      16A     -0.814620    17A     -0.791352    18A     -0.730088
      19A     -0.662424    20A     -0.650533    21A     -0.632997
      22A     -0.621098    23A     -0.597045    24A     -0.584575
      25A     -0.567185    26A     -0.560386    27A     -0.540427
      28A     -0.528501    29A     -0.512635    30A     -0.490879
      31A     -0.486848    32A     -0.473199    33A     -0.464234
      34A     -0.462982    35A     -0.451028    36A     -0.398115

  @DF-RHF Final Energy:  -387.13601201263140

   => Energetics <=

    Nuclear Repulsion Energy =            438.2560179509389968
    One-Electron Energy =               -1393.0799975459751749
    Two-Electron Energy =                 567.6879675824045535
    DFT Exchange-Correlation Energy =       0.0000000000000000
    Empirical Dispersion Energy =           0.0000000000000000
    PCM Polarization Energy =               0.0000000000000000
    EFP Energy =                            0.0000000000000000
    Total Energy =                       -387.1360120126316815
    Molecular point group: c1
  Basis Set: 6-31G*
  Basis Set:

  -Total Gradient:
     Atom            X                  Y                   Z
    ------   -----------------  -----------------  -----------------
       1        0.000258272164    -0.000516175972     0.001207025567
       2       -0.000235418454     0.000519633786    -0.001524230612
       3       -0.000567494158     0.000924342622    -0.000392680526
       4        0.000008250600    -0.000002219949     0.000029765473
       5       -0.000011688299     0.000004165675    -0.000018630233
       6        0.000540485619    -0.000920411474     0.000763502452
       7        0.000008635831    -0.000006717786    -0.000004800946
       8       -0.000004027464    -0.000000117271    -0.000010006144
       9       -0.000005692321     0.000002112737    -0.000006798762
      10        0.000003123587     0.000006297523    -0.000005943728
      11        0.000001420929    -0.000000661275     0.000002686376
      12       -0.000008762958     0.000011534345    -0.000011709824
      13        0.000006194907    -0.000012972513    -0.000008484421
      14        0.000002533802    -0.000002607718     0.000000118972
      15        0.000002664998    -0.000015764179    -0.000006159092
      16       -0.000001814168     0.000016159781    -0.000005330832
      17        0.000002642701     0.000001902276     0.000023917155
      18        0.000001874116     0.000007078469    -0.000004649207
      19       -0.000001685156    -0.000007602888    -0.000004692442
      20        0.000002825643    -0.000006509843    -0.000000965873
      21        0.000001313517    -0.000000400389     0.000006040952
      22       -0.000003433744     0.000006958644    -0.000000951321
      23       -0.000002610936     0.000000894920    -0.000011197475
      24        0.000002687052    -0.000008129260    -0.000010217610
      25       -0.000000297814    -0.000000790263    -0.000005607899

  **** Optimization is complete! (in 7 steps) ****
    Final optimized geometry and variables:
    Molecular point group: c1

    Geometry (in Angstrom), charge = 0, multiplicity = 1:

    O            2.896267198133     1.270770143404     0.449955205932
    C            2.844806032112     0.166136588356     0.002393822906
    C            1.549836946818    -0.627005131899    -0.031488828991
    C            4.079195181973    -0.530349098596    -0.528410127182
    C            0.291740367020     0.238425000941    -0.023679560181
    H            1.561538751725    -1.303368443944    -0.882812899330
    H            1.565844760645    -1.271086632453     0.848520586364
    C           -0.992666412791    -0.591526167569     0.003808891544
    H            0.293924235820     0.879444068954    -0.901721910470
    H            0.325842529900     0.900094159867     0.834290797814
    C           -2.258678117273     0.266878695265     0.013622996749
    H           -1.016295121659    -1.256011816527    -0.858640628215
    H           -0.988357181362    -1.234378164592     0.882778530734
    C           -3.547605137646    -0.556153165470     0.049856357500
    H           -2.266208146394     0.906974458468    -0.866957010711
    H           -2.233875230796     0.933652437031     0.873648288650
    C           -4.807892745378     0.308241191061     0.062350425880
    H           -3.574888406745    -1.220973622000    -0.811037924344
    H           -3.541156214511    -1.196630951570     0.929341747799
    H           -4.861761435575     0.935555436283    -0.822947733178
    H           -5.704517474363    -0.303309129157     0.089207643797
    H           -4.826715269420     0.961215716116     0.930317046498
    H            3.998111004478    -0.644568737250    -1.606134015291
    H            4.959899989308     0.052339277549    -0.296779567031
    H            4.173193331091    -1.526252151439    -0.105707471612

  Mulliken Charges: (a.u.)
   Center  Symbol    Alpha    Beta     Spin     Total
       1     O     4.26274  4.26274  0.00000 -0.52548
       2     C     2.73381  2.73381  0.00000  0.53238
       3     C     3.21095  3.21095  0.00000 -0.42189
       4     C     3.28768  3.28768  0.00000 -0.57536
       5     C     3.15068  3.15068  0.00000 -0.30136
       6     H     0.41348  0.41348  0.00000  0.17304
       7     H     0.40561  0.40561  0.00000  0.18878
       8     C     3.15365  3.15365  0.00000 -0.30730
       9     H     0.41781  0.41781  0.00000  0.16437
      10     H     0.40543  0.40543  0.00000  0.18915
      11     C     3.15091  3.15091  0.00000 -0.30181
      12     H     0.42493  0.42493  0.00000  0.15015
      13     H     0.42394  0.42394  0.00000  0.15212
      14     C     3.15156  3.15156  0.00000 -0.30312
      15     H     0.42304  0.42304  0.00000  0.15392
      16     H     0.42184  0.42184  0.00000  0.15632
      17     C     3.23936  3.23936  0.00000 -0.47872
      18     H     0.42362  0.42362  0.00000  0.15276
      19     H     0.42322  0.42322  0.00000  0.15355
      20     H     0.42155  0.42155  0.00000  0.15689
      21     H     0.41944  0.41944  0.00000  0.16112
      22     H     0.42116  0.42116  0.00000  0.15768
      23     H     0.40670  0.40670  0.00000  0.18660
      24     H     0.39691  0.39691  0.00000  0.20618
      25     H     0.40999  0.40999  0.00000  0.18003

   Total alpha = 36.00000, Total beta = 36.00000, Total charge =  0.00000
