                              Psi4 1.0.54 Driver

  ==> Input File <==

--------------------------------------------------------------------------
set {
	reference rhf
	basis cc-pvtz
}

set_num_threads( 4 )
memory 2 gb

molecule MOL {
0 1

H	 0.000068	 2.878690	 0.000017
C	 0.000050	 1.804749	 0.000009
C	 1.189632	 1.108141	 -0.000035
C	 -1.189576	 1.108200	 0.000033
H	 2.131056	 1.620511	 -0.000056
C	 1.142336	 -0.276760	 -0.000049
H	 -2.130973	 1.620623	 0.000060
C	 -1.142370	 -0.276690	 0.000010
N	 -0.000021	 -0.938351	 -0.000029
C	 2.395749	 -1.108491	 0.000006
C	 -2.395785	 -1.108346	 0.000035
H	 2.414407	 -1.749479	 -0.872551
H	 3.285021	 -0.492810	 -0.000702
H	 2.415079	 -1.748345	 0.873391
H	 -2.414902	 -1.748744	 -0.872963
H	 -3.285059	 -0.492643	 0.000073
H	 -2.414848	 -1.748773	 0.873013

	symmetry c1
}
ee,wfn = energy('scf', return_wfn=True)
oeprop( wfn, 'DIPOLE', 'QUADRUPOLE', 'MULLIKEN_CHARGES')
oeprop( wfn, 'GRID_ESP')
f=open( 'psi4out.xyz', 'w' )
f.write( "17  " )
f.write( str(ee) + "\n" )
f.write( MOL.save_string_xyz() )
f.close()
--------------------------------------------------------------------------

    Molecular point group: c1

    Geometry (in Angstrom), charge = 0, multiplicity = 1:

       Center              X                  Y                   Z               Mass
    ------------   -----------------  -----------------  -----------------  -----------------
           H          0.000068133050     2.878743184452     0.000017129654     1.007825032070
           C          0.000050133050     1.804802184452     0.000009129654    12.000000000000
           C          1.189632133050     1.108194184452    -0.000034870346    12.000000000000
           C         -1.189575866950     1.108253184452     0.000033129654    12.000000000000
           H          2.131056133050     1.620564184452    -0.000055870346     1.007825032070
           C          1.142336133050    -0.276706815548    -0.000048870346    12.000000000000
           H         -2.130972866950     1.620676184452     0.000060129654     1.007825032070
           C         -1.142369866950    -0.276636815548     0.000010129654    12.000000000000
           N         -0.000020866950    -0.938297815548    -0.000028870346    14.003074004780
           C          2.395749133050    -1.108437815548     0.000006129654    12.000000000000
           C         -2.395784866950    -1.108292815548     0.000035129654    12.000000000000
           H          2.414407133050    -1.749425815548    -0.872550870346     1.007825032070
           H          3.285021133050    -0.492756815548    -0.000701870346     1.007825032070
           H          2.415079133050    -1.748291815548     0.873391129654     1.007825032070
           H         -2.414901866950    -1.748690815548    -0.872962870346     1.007825032070
           H         -3.285058866950    -0.492589815548     0.000073129654     1.007825032070
           H         -2.414847866950    -1.748719815548     0.873013129654     1.007825032070

  Charge       = 0
  Multiplicity = 1
  Basis Set: CC-PVTZ
  Basis Set:

    Orbital Energies (a.u.)
    -----------------------

    Doubly Occupied:

       1A    -15.541441     2A    -11.270339     3A    -11.270320
       4A    -11.246095     5A    -11.221243     6A    -11.221195
       7A    -11.214467     8A    -11.214465     9A     -1.264087
      10A     -1.084062    11A     -1.072104    12A     -0.976928
      13A     -0.934376    14A     -0.832628    15A     -0.814649
      16A     -0.688466    17A     -0.672662    18A     -0.617195
      19A     -0.595815    20A     -0.578209    21A     -0.570134
      22A     -0.568758    23A     -0.535374    24A     -0.533635
      25A     -0.502195    26A     -0.500529    27A     -0.401750
      28A     -0.376422    29A     -0.327715

  @DF-RHF Final Energy:  -324.88547918982977

   => Energetics <=

    Nuclear Repulsion Energy =            348.8898217601829401
    One-Electron Energy =               -1130.2562350389794119
    Two-Electron Energy =                 456.4809340889668192
    DFT Exchange-Correlation Energy =       0.0000000000000000
    Empirical Dispersion Energy =           0.0000000000000000
    PCM Polarization Energy =               0.0000000000000000
    EFP Energy =                            0.0000000000000000
    Total Energy =                       -324.8854791898296526

  Mulliken Charges: (a.u.)
   Center  Symbol    Alpha    Beta     Spin     Total
       1     H     0.42219  0.42219  0.00000  0.15563
       2     C     3.08148  3.08148  0.00000 -0.16297
       3     C     3.10272  3.10272  0.00000 -0.20544
       4     C     3.10272  3.10272  0.00000 -0.20544
       5     H     0.41586  0.41586  0.00000  0.16828
       6     C     2.94532  2.94532  0.00000  0.10937
       7     H     0.41586  0.41586  0.00000  0.16828
       8     C     2.94530  2.94530  0.00000  0.10939
       9     N     3.60660  3.60660  0.00000 -0.21320
      10     C     3.13461  3.13461  0.00000 -0.26923
      11     C     3.13462  3.13462  0.00000 -0.26923
      12     H     0.44586  0.44586  0.00000  0.10827
      13     H     0.45462  0.45462  0.00000  0.09076
      14     H     0.44588  0.44588  0.00000  0.10825
      15     H     0.44587  0.44587  0.00000  0.10826
      16     H     0.45462  0.45462  0.00000  0.09076
      17     H     0.44587  0.44587  0.00000  0.10826

   Total alpha = 29.00000, Total beta = 29.00000, Total charge = -0.00000

*** Psi4 exiting successfully. Buy a developer a beer!
