                              Psi4 1.0.54 Driver

  ==> Input File <==

--------------------------------------------------------------------------
set {
	reference rhf
	basis cc-pvtz
}

set_num_threads( 4 )
memory 2 gb

molecule MOL {
0 1

H	 2.566890	 1.967959	 1.954915
O	 1.636150	 1.881877	 2.053598
C	 1.095725	 1.198123	 1.026034
C	 1.861312	 0.705382	 -0.019797
C	 -0.268889	 0.993848	 1.037091
H	 2.924217	 0.865425	 -0.026814
C	 1.261669	 0.010573	 -1.050633
H	 -0.862909	 1.373148	 1.843387
C	 -0.861704	 0.296439	 0.000000
H	 1.864056	 -0.365997	 -1.854467
C	 -0.102836	 -0.198075	 -1.047090
C	 -2.330689	 0.069587	 0.000000
H	 -0.571932	 -0.737991	 -1.847295
O	 -2.848621	 -0.993976	 0.000000
H	 -2.934306	 0.982410	 0.000000

	symmetry c1
}
set optking {
	frozen_dihedral = ("
		11 9 12 14
	")
}

ee,wfn = optimize('scf', return_wfn=True)
oeprop( wfn, 'DIPOLE', 'QUADRUPOLE', 'MULLIKEN_CHARGES')
f=open( 'psi4out.xyz', 'w' )
f.write( "15  " )
f.write( str(ee) + "\n" )
f.write( MOL.save_string_xyz() )
f.close()
--------------------------------------------------------------------------

    Molecular point group: c1
  Charge       = 0
  Multiplicity = 1
  Basis Set: CC-PVTZ
  Basis Set:
  @DF-RHF Final Energy:  -418.43009311424731
    Total Energy =                       -418.4300931142474838
    Molecular point group: c1
  Basis Set: CC-PVTZ
  Basis Set:
  Basis Set: CC-PVTZ
  Basis Set:
  @DF-RHF Final Energy:  -418.42962162911618
    Total Energy =                       -418.4296216291161272
  Basis Set: CC-PVTZ
  Basis Set:
  Basis Set: CC-PVTZ
  Basis Set:
  @DF-RHF Final Energy:  -418.43017248156508
    Total Energy =                       -418.4301724815650232
  Basis Set: CC-PVTZ
  Basis Set:
  Basis Set: CC-PVTZ
  Basis Set:
  @DF-RHF Final Energy:  -418.43072662941029
    Total Energy =                       -418.4307266294099463
  Basis Set: CC-PVTZ
  Basis Set:
  Basis Set: CC-PVTZ
  Basis Set:
  @DF-RHF Final Energy:  -418.43075735364556
    Total Energy =                       -418.4307573536452765
  Basis Set: CC-PVTZ
  Basis Set:
  Charge       = 0
  Multiplicity = 1
  Basis Set: CC-PVTZ
  Basis Set:

    Orbital Energies (a.u.)
    -----------------------

    Doubly Occupied:

       1A    -20.597607     2A    -20.561336     3A    -11.331493
       4A    -11.313103     5A    -11.254999     6A    -11.249209
       7A    -11.241451     8A    -11.239748     9A    -11.236380
      10A     -1.429310    11A     -1.415998    12A     -1.172965
      13A     -1.052552    14A     -1.027409    15A     -0.902835
      16A     -0.847035    17A     -0.820010    18A     -0.742760
      19A     -0.703737    20A     -0.676425    21A     -0.672549
      22A     -0.639589    23A     -0.616297    24A     -0.608895
      25A     -0.587053    26A     -0.544665    27A     -0.540297
      28A     -0.517050    29A     -0.496294    30A     -0.427126
      31A     -0.358439    32A     -0.328980

  @DF-RHF Final Energy:  -418.43075896397517

   => Energetics <=

    Nuclear Repulsion Energy =            402.8209658148471703
    One-Electron Energy =               -1368.1962618811317043
    Two-Electron Energy =                 546.9445371023095959
    DFT Exchange-Correlation Energy =       0.0000000000000000
    Empirical Dispersion Energy =           0.0000000000000000
    PCM Polarization Energy =               0.0000000000000000
    EFP Energy =                            0.0000000000000000
    Total Energy =                       -418.4307589639749949
    Molecular point group: c1
  Basis Set: CC-PVTZ
  Basis Set:

  -Total Gradient:
     Atom            X                  Y                   Z
    ------   -----------------  -----------------  -----------------
       1       -0.000000334652     0.000000840200     0.000003019245
       2        0.000027657348     0.000010099874    -0.000003159067
       3       -0.000231000980     0.000003010842     0.000090109631
       4        0.000008514417    -0.000130235419    -0.000173931478
       5        0.000184382222     0.000085439060     0.000045913934
       6       -0.000001830135     0.000019441053     0.000005357851
       7        0.000159429892     0.000067480369     0.000094992044
       8       -0.000009970916    -0.000005802956     0.000001145539
       9        0.000760085518    -0.006616339643     0.005850526485
      10       -0.000012759559    -0.000006254358    -0.000003115684
      11       -0.000682589893     0.004421998083    -0.002182786827
      12       -0.000207642347     0.002498151929    -0.009745475725
      13        0.000000763741    -0.000005063459     0.000003906388
      14        0.000005661689    -0.000338625590     0.006024869788
      15       -0.000000366341    -0.000004139988    -0.000011372125

  **** Optimization is complete! (in 6 steps) ****
    Final optimized geometry and variables:
    Molecular point group: c1

    Geometry (in Angstrom), charge = 0, multiplicity = 1:

    H            2.633095900109     1.475917977155     1.732437739020
    O            1.700960787956     1.390685605905     1.820700913358
    C            1.172606425213     0.724710562408     0.776148492698
    C            1.940433615588     0.261888841392    -0.277256440667
    C           -0.195525043541     0.520658090756     0.775097165307
    H            3.001652119464     0.431647675299    -0.284310897675
    C            1.337438118985    -0.411348336795    -1.322576383662
    H           -0.779017038830     0.906699847827     1.589115670840
    C           -0.780911493289    -0.185607337817    -0.256964059020
    H            1.938438136237    -0.757540417972    -2.141338365629
    C           -0.022637180281    -0.641315031232    -1.322607080088
    C           -2.265798540350    -0.363057700629    -0.261289757796
    H           -0.489617588432    -1.175689546723    -2.125824106249
    O           -2.808358765534    -1.410898114336    -0.315479175150
    H           -2.846148370829     0.559837873381    -0.161706942565

  Mulliken Charges: (a.u.)
   Center  Symbol    Alpha    Beta     Spin     Total
       1     H     0.38617  0.38617  0.00000  0.22766
       2     O     4.17178  4.17178  0.00000 -0.34356
       3     C     2.83721  2.83721  0.00000  0.32558
       4     C     3.13782  3.13782  0.00000 -0.27565
       5     C     3.13525  3.13525  0.00000 -0.27051
       6     H     0.43229  0.43229  0.00000  0.13542
       7     C     3.05405  3.05405  0.00000 -0.10811
       8     H     0.41940  0.41940  0.00000  0.16120
       9     C     2.92779  2.92779  0.00000  0.14441
      10     H     0.41944  0.41944  0.00000  0.16112
      11     C     3.11833  3.11833  0.00000 -0.23666
      12     C     2.92557  2.92557  0.00000  0.14887
      13     H     0.41700  0.41700  0.00000  0.16601
      14     O     4.15982  4.15982  0.00000 -0.31965
      15     H     0.45807  0.45807  0.00000  0.08387

   Total alpha = 32.00000, Total beta = 32.00000, Total charge = -0.00000

*** Psi4 exiting successfully. Buy a developer a beer!
