  ==> Input File <==

--------------------------------------------------------------------------
set {
	reference rhf
	basis 6-31G*
}

set_num_threads( 4 )
memory 2 gb

molecule MOL {
0 1

H	 2.743254	 -0.659446	 0.826060
N	 2.434251	 -0.367735	 -0.081097
C	 1.267428	 0.496480	 0.024474
H	 2.209380	 -1.200464	 -0.591890
C	 -0.016086	 -0.325158	 -0.029487
H	 1.288818	 1.183521	 -0.816092
H	 1.267576	 1.109062	 0.929528
C	 -1.282277	 0.529072	 0.046735
H	 -0.012495	 -0.908639	 -0.945788
H	 -0.015903	 -1.041248	 0.791956
C	 -2.563920	 -0.301775	 -0.006060
H	 -1.284084	 1.244622	 -0.773004
H	 -1.271387	 1.115393	 0.963286
H	 -2.621848	 -0.873522	 -0.927727
H	 -3.445135	 0.329952	 0.047812
H	 -2.609542	 -1.004582	 0.821105

	symmetry c1
}
set optking {
	frozen_dihedral = ("
		1 2 3 6
	")
}

ee = optimize('scf')
oeprop('DIPOLE', 'QUADRUPOLE', 'MULLIKEN_CHARGES')
f=open( 'psi4out.xyz', 'w' )
f.write( "16  " )
f.write( str(ee) + "\n" )
f.write( MOL.save_string_xyz() )
f.close()
--------------------------------------------------------------------------

    Molecular point group: c1
  Charge       = 0
  Multiplicity = 1
  Basis Set: 6-31G*
  Basis Set:
  @DF-RHF Final Energy:  -212.31292908255864
    Total Energy =                       -212.3129290825586395
    Molecular point group: c1
  Basis Set: 6-31G*
  Basis Set:
  Basis Set: 6-31G*
  Basis Set:
  @DF-RHF Final Energy:  -212.31501390335265
    Total Energy =                       -212.3150139033526784
  Basis Set: 6-31G*
  Basis Set:
  Basis Set: 6-31G*
  Basis Set:
  @DF-RHF Final Energy:  -212.31528255103041
    Total Energy =                       -212.3152825510304638
  Basis Set: 6-31G*
  Basis Set:
  Basis Set: 6-31G*
  Basis Set:
  @DF-RHF Final Energy:  -212.31529228988100
    Total Energy =                       -212.3152922898809720
  Basis Set: 6-31G*
  Basis Set:
  Basis Set: 6-31G*
  Basis Set:
  @DF-RHF Final Energy:  -212.31529882535898
    Total Energy =                       -212.3152988253591502
  Basis Set: 6-31G*
  Basis Set:
  Basis Set: 6-31G*
  Basis Set:
  @DF-RHF Final Energy:  -212.31530000894455
    Total Energy =                       -212.3153000089445754
  Basis Set: 6-31G*
  Basis Set:
  Charge       = 0
  Multiplicity = 1
  Basis Set: 6-31G*
  Basis Set:

    Orbital Energies (a.u.)
    -----------------------

    Doubly Occupied:

       1A    -15.530289     2A    -11.239518     3A    -11.218085
       4A    -11.214290     5A    -11.210847     6A     -1.174744
       7A     -1.062071     8A     -0.959645     9A     -0.847925
      10A     -0.797400    11A     -0.675801    12A     -0.628557
      13A     -0.596661    14A     -0.587794    15A     -0.557265
      16A     -0.525515    17A     -0.503355    18A     -0.484025
      19A     -0.472243    20A     -0.465644    21A     -0.372463

  @DF-RHF Final Energy:  -212.31530007083580

   => Energetics <=

    Nuclear Repulsion Energy =            186.0106740492328186
    One-Electron Energy =                -654.4036720489957588
    Two-Electron Energy =                 256.0776979289271367
    DFT Exchange-Correlation Energy =       0.0000000000000000
    Empirical Dispersion Energy =           0.0000000000000000
    PCM Polarization Energy =               0.0000000000000000
    EFP Energy =                            0.0000000000000000
    Total Energy =                       -212.3153000708358036
    Molecular point group: c1
  Basis Set: 6-31G*
  Basis Set:

  -Total Gradient:
     Atom            X                  Y                   Z
    ------   -----------------  -----------------  -----------------
       1        0.001870640711     0.002886636033     0.000417177304
       2       -0.001993739809    -0.003110420145    -0.000078715387
       3       -0.001300045379    -0.001796949373    -0.002204795413
       4        0.000004738085    -0.000016012493    -0.000004530129
       5       -0.000033113427    -0.000008039685     0.000005629570
       6        0.001440975639     0.002065788103     0.001869135270
       7       -0.000000258568    -0.000008930975    -0.000011426853
       8       -0.000018875107     0.000003867228     0.000019671690
       9       -0.000001075326    -0.000001841525    -0.000010853503
      10       -0.000011346897    -0.000006283376     0.000005219242
      11        0.000023218538    -0.000010532713    -0.000011132240
      12       -0.000000343465    -0.000000239230    -0.000001772094
      13        0.000005614288     0.000001134991     0.000006481085
      14       -0.000001360351    -0.000007757665    -0.000001459059
      15        0.000017940187     0.000007674579    -0.000005379072
      16       -0.000002969116     0.000001906247     0.000006749586

  **** Optimization is complete! (in 7 steps) ****
    Final optimized geometry and variables:
    Molecular point group: c1

    Geometry (in Angstrom), charge = 0, multiplicity = 1:

    H            2.779164058757    -0.628228098377     0.852662594535
    N            2.495424829670    -0.314785255148    -0.053257227405
    C            1.272373965995     0.471542517863     0.011213111281
    H            2.397482219765    -1.114608630763    -0.646891698455
    C           -0.027232665529    -0.333762688225    -0.020719968566
    H            1.282747395919     1.198247771601    -0.796912104864
    H            1.310346066664     1.057762760239     0.925064889060
    C           -1.280784453047     0.540314837673     0.043421768511
    H           -0.052036429578    -0.932008368213    -0.931314225576
    H           -0.029427474298    -1.038735609744     0.809441250526
    C           -2.576787570121    -0.268377002347    -0.000831745890
    H           -1.268966691554     1.247602100148    -0.783029101860
    H           -1.258687641140     1.135495480806     0.954008267640
    H           -2.645446578635    -0.848696603684    -0.916589371157
    H           -3.446390402821     0.379716266315     0.045806165396
    H           -2.635326111567    -0.961248519415     0.833812324672

  Mulliken Charges: (a.u.)
   Center  Symbol    Alpha    Beta     Spin     Total
       1     H     0.33245  0.33245  0.00000  0.33509
       2     N     3.92572  3.92572  0.00000 -0.85145
       3     C     3.05538  3.05538  0.00000 -0.11076
       4     H     0.33330  0.33330  0.00000  0.33340
       5     C     3.15902  3.15902  0.00000 -0.31805
       6     H     0.41924  0.41924  0.00000  0.16152
       7     H     0.42272  0.42272  0.00000  0.15457
       8     C     3.15562  3.15562  0.00000 -0.31124
       9     H     0.42638  0.42638  0.00000  0.14724
      10     H     0.42591  0.42591  0.00000  0.14818
      11     C     3.23872  3.23872  0.00000 -0.47745
      12     H     0.42122  0.42122  0.00000  0.15755
      13     H     0.42248  0.42248  0.00000  0.15504
      14     H     0.42142  0.42142  0.00000  0.15716
      15     H     0.41871  0.41871  0.00000  0.16258
      16     H     0.42170  0.42170  0.00000  0.15660

   Total alpha = 21.00000, Total beta = 21.00000, Total charge =  0.00000
