  ==> Input File <==

--------------------------------------------------------------------------
set {
	reference rhf
	basis 6-31G*
}

set_num_threads( 1 )
memory 2 gb

molecule MOL {
0 1

H	 -1.227050	 0.537072	 -0.994127
C	 -0.790252	 0.431209	 0.000000
N	 0.538815	 0.649616	 0.000000
O	 -1.452535	 0.151684	 0.955226
C	 1.521968	 -0.411503	 0.000000
H	 0.852804	 1.592852	 0.000000
H	 2.150599	 -0.357004	 -0.881901
H	 0.999455	 -1.354525	 0.000000
H	 2.150599	 -0.357004	 0.881901

	symmetry c1
}
set optking {
	frozen_dihedral = ("
		6 3 5 7
	")
}

ee = energy('scf')
oeprop('DIPOLE', 'QUADRUPOLE', 'MULLIKEN_CHARGES')
f=open( 'psi4out.xyz', 'w' )
f.write( "9  " )
f.write( str(ee) + "\n" )
f.write( MOL.save_string_xyz() )
f.close()
--------------------------------------------------------------------------

    Molecular point group: c1

    Geometry (in Angstrom), charge = 0, multiplicity = 1:

       Center              X                  Y                   Z               Mass
    ------------   -----------------  -----------------  -----------------  -----------------
           H         -1.194145974553     0.336839702373    -1.235955424892     1.007825032070
           C         -0.757347974553     0.230976702373    -0.241828424892    12.000000000000
           N          0.571719025447     0.449383702373    -0.241828424892    14.003074004780
           O         -1.419630974553    -0.048548297627     0.713397575108    15.994914619560
           C          1.554872025447    -0.611735297627    -0.241828424892    12.000000000000
           H          0.885708025447     1.392619702373    -0.241828424892     1.007825032070
           H          2.183503025447    -0.557236297627    -1.123729424892     1.007825032070
           H          1.032359025447    -1.554757297627    -0.241828424892     1.007825032070
           H          2.183503025447    -0.557236297627     0.640072575108     1.007825032070

  Charge       = 0
  Multiplicity = 1
  Basis Set: 6-31G*
  Basis Set:

    Orbital Energies (a.u.)
    -----------------------

    Doubly Occupied:

       1A    -20.561487     2A    -15.551039     3A    -11.349311
       4A    -11.264492     5A     -1.405608     6A     -1.225122
       7A     -0.958665     8A     -0.818013     9A     -0.723112
      10A     -0.661954    11A     -0.641147    12A     -0.596357
      13A     -0.562302    14A     -0.509637    15A     -0.440025
      16A     -0.376477

  @DF-RHF Final Energy:  -207.91803878876999

   => Energetics <=

    Nuclear Repulsion Energy =            121.2689449084824531
    One-Electron Energy =                -523.0844713581277574
    Two-Electron Energy =                 193.8974876608752709
    DFT Exchange-Correlation Energy =       0.0000000000000000
    Empirical Dispersion Energy =           0.0000000000000000
    PCM Polarization Energy =               0.0000000000000000
    EFP Energy =                            0.0000000000000000
    Total Energy =                       -207.9180387887700192

  Mulliken Charges: (a.u.)
   Center  Symbol    Alpha    Beta     Spin     Total
       1     H     0.43156  0.43156  0.00000  0.13688
       2     C     2.76519  2.76519  0.00000  0.46962
       3     N     3.89837  3.89837  0.00000 -0.79674
       4     O     4.22695  4.22695  0.00000 -0.45391
       5     C     3.13113  3.13113  0.00000 -0.26225
       6     H     0.30836  0.30836  0.00000  0.38328
       7     H     0.41769  0.41769  0.00000  0.16462
       8     H     0.40846  0.40846  0.00000  0.18308
       9     H     0.41229  0.41229  0.00000  0.17542

   Total alpha = 16.00000, Total beta = 16.00000, Total charge = -0.00000
