                              Psi4 1.0.54 Driver

  ==> Input File <==

--------------------------------------------------------------------------
set {
	reference rhf
	basis cc-pvtz
}

set_num_threads( 4 )
memory 2 gb

molecule MOL {
0 1

O	 -2.071633	 -1.227563	 -0.223463
C	 -1.652164	 -0.152425	 0.058082
C	 -0.327811	 0.006324	 0.778296
C	 -2.402515	 1.108629	 -0.298924
C	 0.843231	 -0.001575	 -0.211665
H	 -0.319484	 0.928173	 1.350354
H	 -0.227804	 -0.823091	 1.466705
C	 2.030742	 -0.819679	 0.287088
H	 1.167816	 1.017590	 -0.405679
H	 0.495243	 -0.401662	 -1.157815
C	 3.192994	 -0.840781	 -0.699768
H	 2.371103	 -0.418367	 1.237682
H	 1.705124	 -1.836974	 0.483613
H	 3.564042	 0.160815	 -0.889937
H	 2.890792	 -1.266649	 -1.650388
H	 4.017812	 -1.431945	 -0.319503
H	 -3.240910	 0.874416	 -0.936711
H	 -1.747554	 1.818823	 -0.790984
H	 -2.760419	 1.579708	 0.610998

	symmetry c1
}
set optking {
	frozen_dihedral = ("
		9 5 3 2
	")
}

ee,wfn = optimize('scf', return_wfn=True)
oeprop( wfn, 'DIPOLE', 'QUADRUPOLE', 'MULLIKEN_CHARGES')
f=open( 'psi4out.xyz', 'w' )
f.write( "19  " )
f.write( str(ee) + "\n" )
f.write( MOL.save_string_xyz() )
f.close()
--------------------------------------------------------------------------

    Molecular point group: c1
  Charge       = 0
  Multiplicity = 1
  Basis Set: CC-PVTZ
  Basis Set:
  @DF-RHF Final Energy:  -309.17297246259631
    Total Energy =                       -309.1729724625963058
    Molecular point group: c1
  Basis Set: CC-PVTZ
  Basis Set:
  Basis Set: CC-PVTZ
  Basis Set:
  @DF-RHF Final Energy:  -309.17318973149327
    Total Energy =                       -309.1731897314934940
  Basis Set: CC-PVTZ
  Basis Set:
  Basis Set: CC-PVTZ
  Basis Set:
  @DF-RHF Final Energy:  -309.17102587925530
    Total Energy =                       -309.1710258792554100
  Basis Set: CC-PVTZ
  Basis Set:
  Basis Set: CC-PVTZ
  Basis Set:
  @DF-RHF Final Energy:  -309.17343052643071
    Total Energy =                       -309.1734305264309342
  Basis Set: CC-PVTZ
  Basis Set:
  @DF-RHF Final Energy:  -309.17352763194725
    Total Energy =                       -309.1735276319473087
  Basis Set: CC-PVTZ
  Basis Set:
  @DF-RHF Final Energy:  -309.17360925508342
    Total Energy =                       -309.1736092550834769
  Basis Set: CC-PVTZ
  Basis Set:
  Basis Set: CC-PVTZ
  Basis Set:
  @DF-RHF Final Energy:  -309.17362828589376
    Total Energy =                       -309.1736282858936420
  Basis Set: CC-PVTZ
  Basis Set:
  Basis Set: CC-PVTZ
  Basis Set:
  @DF-RHF Final Energy:  -309.17363388510722
    Total Energy =                       -309.1736338851072787
  Basis Set: CC-PVTZ
  Basis Set:
  Charge       = 0
  Multiplicity = 1
  Basis Set: CC-PVTZ
  Basis Set:

    Orbital Energies (a.u.)
    -----------------------

    Doubly Occupied:

       1A    -20.537023     2A    -11.319147     3A    -11.231102
       4A    -11.227591     5A    -11.226339     6A    -11.222773
       7A    -11.213144     8A     -1.396986     9A     -1.092458
      10A     -1.030227    11A     -0.982469    12A     -0.893007
      13A     -0.808569    14A     -0.735257    15A     -0.665291
      16A     -0.641494    17A     -0.629598    18A     -0.614153
      19A     -0.582436    20A     -0.576503    21A     -0.555413
      22A     -0.531007    23A     -0.519000    24A     -0.503671
      25A     -0.480569    26A     -0.475318    27A     -0.470492
      28A     -0.399377

  @DF-RHF Final Energy:  -309.17363446195350

   => Energetics <=

    Nuclear Repulsion Energy =            302.4056131165948500
    One-Electron Energy =               -1018.0376697649305697
    Two-Electron Energy =                 406.4584221863822222
    DFT Exchange-Correlation Energy =       0.0000000000000000
    Empirical Dispersion Energy =           0.0000000000000000
    PCM Polarization Energy =               0.0000000000000000
    EFP Energy =                            0.0000000000000000
    Total Energy =                       -309.1736344619534975
    Molecular point group: c1
  Basis Set: CC-PVTZ
  Basis Set:

  -Total Gradient:
     Atom            X                  Y                   Z
    ------   -----------------  -----------------  -----------------
       1        0.000036099825     0.000068615471     0.000008828664
       2        0.000176883346    -0.002588257866    -0.000031125532
       3        0.000261414696     0.003305310936     0.000653761983
       4       -0.000011208147     0.000025844157     0.000047380226
       5       -0.002817692379    -0.000402877423    -0.003033576068
       6       -0.000018103828    -0.000013053262     0.000010267943
       7       -0.000019490386     0.000009605540    -0.000012361658
       8       -0.000009155590     0.000043493616    -0.000003186573
       9        0.002373652183    -0.000447685224     0.002421071457
      10        0.000020548772    -0.000000225352    -0.000033665238
      11       -0.000001958502    -0.000007569706    -0.000010024436
      12        0.000001965916     0.000004055456     0.000002382077
      13       -0.000010797276     0.000005271132     0.000004899003
      14        0.000000757217    -0.000002019157     0.000004662752
      15        0.000000065876     0.000002252693    -0.000004677063
      16       -0.000001259638    -0.000003231382    -0.000001258922
      17        0.000020015683    -0.000005620631     0.000002220219
      18       -0.000009947155    -0.000004655630    -0.000012466985
      19        0.000008209387     0.000010746633    -0.000013131851

  **** Optimization is complete! (in 9 steps) ****
    Final optimized geometry and variables:
    Molecular point group: c1

    Geometry (in Angstrom), charge = 0, multiplicity = 1:

    O           -2.192156673839    -0.936690000936     0.187685412959
    C           -1.612149939573     0.098165492653     0.247812033235
    C           -0.232875671188     0.192693288237     0.865884664197
    C           -2.210558723605     1.372372743403    -0.301722877234
    C            0.876404234650     0.277453370574    -0.207344949534
    H           -0.180186145367     1.050950609017     1.526352357403
    H           -0.102149914915    -0.698655688803     1.463484367573
    C            2.104128134214    -0.554620891475     0.159524242627
    H            1.191514283171     1.308393819054    -0.329146115849
    H            0.499177301559    -0.059219752604    -1.167605513941
    C            3.226581016468    -0.440645576634    -0.865604500709
    H            2.469507148574    -0.241551360931     1.133801035895
    H            1.809648592519    -1.594295294969     0.262440617733
    H            3.567831180555     0.584701518915    -0.962544804827
    H            2.897444075547    -0.773016541591    -1.844444847032
    H            4.078527322400    -1.046604477554    -0.580493606013
    H           -3.119427205439     1.153077918828    -0.840625107471
    H           -1.507110495067     1.879443382768    -0.952122532385
    H           -2.431546738670     2.045790680102     0.520164735008

  Mulliken Charges: (a.u.)
   Center  Symbol    Alpha    Beta     Spin     Total
       1     O     4.17583  4.17583  0.00000 -0.35166
       2     C     2.85916  2.85916  0.00000  0.28168
       3     C     3.10034  3.10034  0.00000 -0.20068
       4     C     3.15512  3.15512  0.00000 -0.31024
       5     C     3.09838  3.09838  0.00000 -0.19676
       6     H     0.44590  0.44590  0.00000  0.10819
       7     H     0.43995  0.43995  0.00000  0.12011
       8     C     3.08403  3.08403  0.00000 -0.16806
       9     H     0.45152  0.45152  0.00000  0.09696
      10     H     0.44865  0.44865  0.00000  0.10270
      11     C     3.15026  3.15026  0.00000 -0.30051
      12     H     0.45262  0.45262  0.00000  0.09476
      13     H     0.44860  0.44860  0.00000  0.10280
      14     H     0.45557  0.45557  0.00000  0.08886
      15     H     0.45348  0.45348  0.00000  0.09304
      16     H     0.44680  0.44680  0.00000  0.10639
      17     H     0.43574  0.43574  0.00000  0.12852
      18     H     0.44931  0.44931  0.00000  0.10139
      19     H     0.44875  0.44875  0.00000  0.10251

   Total alpha = 28.00000, Total beta = 28.00000, Total charge = -0.00000

*** Psi4 exiting successfully. Buy a developer a beer!
