  ==> Input File <==

--------------------------------------------------------------------------
set {
	reference rhf
	basis cc-pvtz
}

set_num_threads( 4 )
memory 2 gb

molecule MOL {
0 1

H	 1.289234	 -2.201773	 -0.517896
C	 0.336354	 -1.711172	 -0.623549
O	 0.462329	 -0.453336	 -0.000137
H	 -0.427085	 -2.309809	 -0.142910
H	 0.106613	 -1.603391	 -1.676089
C	 -0.590565	 0.341382	 0.000062
O	 -1.693898	 -0.053880	 0.000252
H	 -0.340426	 1.403822	 0.000200

	symmetry c1
}
set optking {
	frozen_dihedral = ("
		2 3 6 7
	")
}

ee = optimize('scf')
oeprop('DIPOLE', 'QUADRUPOLE', 'MULLIKEN_CHARGES')
f=open( 'psi4out.xyz', 'w' )
f.write( "8  " )
f.write( str(ee) + "\n" )
f.write( MOL.save_string_xyz() )
f.close()
--------------------------------------------------------------------------

    Molecular point group: c1
  Charge       = 0
  Multiplicity = 1
  Basis Set: CC-PVTZ
  Basis Set:
  @DF-RHF Final Energy:  -227.87253256303671
    Total Energy =                       -227.8725325630367422
    Molecular point group: c1
  Basis Set: CC-PVTZ
  Basis Set:
  Basis Set: CC-PVTZ
  Basis Set:
  @DF-RHF Final Energy:  -227.86808860188344
    Total Energy =                       -227.8680886018833291
  Basis Set: CC-PVTZ
  Basis Set:
  Basis Set: CC-PVTZ
  Basis Set:
  @DF-RHF Final Energy:  -227.87307914260015
    Total Energy =                       -227.8730791426000621
  Basis Set: CC-PVTZ
  Basis Set:
  Basis Set: CC-PVTZ
  Basis Set:
  @DF-RHF Final Energy:  -227.87384171294804
    Total Energy =                       -227.8738417129479785
  Basis Set: CC-PVTZ
  Basis Set:
  Basis Set: CC-PVTZ
  Basis Set:
  @DF-RHF Final Energy:  -227.87385022305654
    Total Energy =                       -227.8738502230565359
  Basis Set: CC-PVTZ
  Basis Set:
  Basis Set: CC-PVTZ
  Basis Set:
  @DF-RHF Final Energy:  -227.87385185210530
    Total Energy =                       -227.8738518521052470
  Basis Set: CC-PVTZ
  Basis Set:
  Charge       = 0
  Multiplicity = 1
  Basis Set: CC-PVTZ
  Basis Set:

    Orbital Energies (a.u.)
    -----------------------

    Doubly Occupied:

       1A    -20.605113     2A    -20.551245     3A    -11.373232
       4A    -11.289032     5A     -1.479563     6A     -1.380750
       7A     -0.996971     8A     -0.821691     9A     -0.746246
      10A     -0.686089    11A     -0.680556    12A     -0.607652
      13A     -0.560970    14A     -0.532191    15A     -0.470787
      16A     -0.460238

  @DF-RHF Final Energy:  -227.87385195669256

   => Energetics <=

    Nuclear Repulsion Energy =            123.5694309216511044
    One-Electron Energy =                -556.4019098980359104
    Two-Electron Energy =                 204.9586270196924147
    DFT Exchange-Correlation Energy =       0.0000000000000000
    Empirical Dispersion Energy =           0.0000000000000000
    PCM Polarization Energy =               0.0000000000000000
    EFP Energy =                            0.0000000000000000
    Total Energy =                       -227.8738519566923628
    Molecular point group: c1
  Basis Set: CC-PVTZ
  Basis Set:

  -Total Gradient:
     Atom            X                  Y                   Z
    ------   -----------------  -----------------  -----------------
       1       -0.000000473923     0.000012831032     0.000004223619
       2        0.002413565713     0.002785373361    -0.006147605191
       3       -0.003832323154    -0.004180331991     0.014109579226
       4        0.000003628305     0.000005126928     0.000001723800
       5        0.000004627897     0.000001301865    -0.000001516372
       6        0.001799957033     0.001307233035    -0.017416627087
       7       -0.000393050508     0.000062553011     0.009444285069
       8        0.000004068636     0.000005912759     0.000005936935

  **** Optimization is complete! (in 7 steps) ****
    Final optimized geometry and variables:
    Molecular point group: c1

    Geometry (in Angstrom), charge = 0, multiplicity = 1:

    H            1.701089298099    -1.687155574907    -0.371137652313
    C            0.721428392815    -1.242569553975    -0.426757486090
    O            0.829157810748     0.024237796081     0.200568361398
    H            0.000461681979    -1.865305269326     0.080609818422
    H            0.427394498964    -1.121963987292    -1.459714047017
    C           -0.220976307400     0.818903354899     0.149876105363
    O           -1.344093877709     0.471145944516     0.102284165281
    H            0.084666338090     1.856846228587     0.240531673869

  Mulliken Charges: (a.u.)
   Center  Symbol    Alpha    Beta     Spin     Total
       1     H     0.44433  0.44433  0.00000  0.11134
       2     C     3.02714  3.02714  0.00000 -0.05428
       3     O     4.14412  4.14412  0.00000 -0.28825
       4     H     0.44923  0.44923  0.00000  0.10153
       5     H     0.45887  0.45887  0.00000  0.08226
       6     C     2.83549  2.83549  0.00000  0.32902
       7     O     4.18829  4.18829  0.00000 -0.37657
       8     H     0.45253  0.45253  0.00000  0.09495

   Total alpha = 16.00000, Total beta = 16.00000, Total charge =  0.00000
