                              Psi4 1.0.54 Driver

  ==> Input File <==

--------------------------------------------------------------------------
set {
	reference rhf
	basis cc-pvtz
}

set_num_threads( 4 )
memory 2 gb

molecule MOL {
0 1

H	 -2.599224	 -0.498032	 -0.024551
N	 -1.851927	 0.161443	 -0.071573
C	 -0.561396	 -0.500007	 0.035200
H	 -1.983309	 0.809559	 0.676773
C	 0.575129	 0.507849	 -0.048832
H	 -0.478089	 -1.200753	 -0.788956
H	 -0.456191	 -1.081816	 0.952176
C	 1.951750	 -0.141983	 0.035101
H	 0.478254	 1.061643	 -0.975981
H	 0.467676	 1.231891	 0.755499
H	 2.101550	 -0.848142	 -0.774949
H	 2.738260	 0.600794	 -0.026526
H	 2.078939	 -0.679792	 0.968824

	symmetry c1
}
set optking {
	frozen_dihedral = ("
		1 2 3 6
	")
}

ee,wfn = optimize('scf', return_wfn=True)
oeprop( wfn, 'DIPOLE', 'QUADRUPOLE', 'MULLIKEN_CHARGES')
f=open( 'psi4out.xyz', 'w' )
f.write( "13  " )
f.write( str(ee) + "\n" )
f.write( MOL.save_string_xyz() )
f.close()
--------------------------------------------------------------------------

    Molecular point group: c1
  Charge       = 0
  Multiplicity = 1
  Basis Set: CC-PVTZ
  Basis Set:
  @DF-RHF Final Energy:  -173.35258621247382
    Total Energy =                       -173.3525862124738524
    Molecular point group: c1
  Basis Set: CC-PVTZ
  Basis Set:
  Basis Set: CC-PVTZ
  Basis Set:
  @DF-RHF Final Energy:  -173.35258937680558
    Total Energy =                       -173.3525893768054402
  Basis Set: CC-PVTZ
  Basis Set:
  Charge       = 0
  Multiplicity = 1
  Basis Set: CC-PVTZ
  Basis Set:

    Orbital Energies (a.u.)
    -----------------------

    Doubly Occupied:

       1A    -15.526837     2A    -11.238325     3A    -11.210901
       4A    -11.207291     5A     -1.178686     6A     -1.036617
       7A     -0.899436     8A     -0.800605     9A     -0.661684
      10A     -0.632574    11A     -0.604220    12A     -0.565587
      13A     -0.532534    14A     -0.492880    15A     -0.477195
      16A     -0.469239    17A     -0.384866

  @DF-RHF Final Energy:  -173.35258989091233

   => Energetics <=

    Nuclear Repulsion Energy =            132.0097520086594045
    One-Electron Energy =                -494.8857280642058640
    Two-Electron Energy =                 189.5233861646342177
    DFT Exchange-Correlation Energy =       0.0000000000000000
    Empirical Dispersion Energy =           0.0000000000000000
    PCM Polarization Energy =               0.0000000000000000
    EFP Energy =                            0.0000000000000000
    Total Energy =                       -173.3525898909122418
    Molecular point group: c1
  Basis Set: CC-PVTZ
  Basis Set:

  -Total Gradient:
     Atom            X                  Y                   Z
    ------   -----------------  -----------------  -----------------
       1        0.000001881439     0.000077342771     0.000423321315
       2        0.000067831251    -0.000009039292    -0.000540236985
       3       -0.000256465456    -0.000288621842     0.000332583284
       4       -0.000003613409    -0.000024663913    -0.000011496715
       5       -0.000018127267    -0.000042851945    -0.000016487493
       6        0.000187465938     0.000260955210    -0.000233534134
       7        0.000012015603     0.000008660894     0.000026563692
       8        0.000003040673     0.000010783274     0.000017811133
       9       -0.000001391042    -0.000004221089    -0.000012461848
      10        0.000011695484     0.000004885149     0.000011684081
      11       -0.000009732388     0.000010141967    -0.000002288576
      12        0.000004148737     0.000000654270     0.000004077030
      13        0.000001250444    -0.000004025453     0.000000465216

  **** Optimization is complete! (in 3 steps) ****
    Final optimized geometry and variables:
    Molecular point group: c1

    Geometry (in Angstrom), charge = 0, multiplicity = 1:

    H           -2.599256672746    -0.497986322894    -0.029967848914
    N           -1.851680565917     0.161561128740    -0.074746858556
    C           -0.561985070358    -0.500779524693     0.037323826815
    H           -1.985644714021     0.805287574243     0.677156400549
    C            0.574657409617     0.506937900647    -0.047660836214
    H           -0.475121508550    -1.202515842549    -0.785719220336
    H           -0.458652818492    -1.079121877011     0.956653261520
    C            1.951232642893    -0.143169896594     0.033570196835
    H            0.476851796705     1.061288746888    -0.974461918753
    H            0.469066308007     1.230343516319     0.757551818862
    H            2.099404514603    -0.848702452094    -0.777258767964
    H            2.737720712092     0.599578933792    -0.028790400784
    H            2.079650576796    -0.681586485198     0.966762127469

  Mulliken Charges: (a.u.)
   Center  Symbol    Alpha    Beta     Spin     Total
       1     H     0.43023  0.43023  0.00000  0.13953
       2     N     3.68920  3.68920  0.00000 -0.37839
       3     C     3.02127  3.02127  0.00000 -0.04254
       4     H     0.43110  0.43110  0.00000  0.13780
       5     C     3.07882  3.07882  0.00000 -0.15765
       6     H     0.45781  0.45781  0.00000  0.08438
       7     H     0.47000  0.47000  0.00000  0.06000
       8     C     3.15260  3.15260  0.00000 -0.30520
       9     H     0.44901  0.44901  0.00000  0.10198
      10     H     0.46036  0.46036  0.00000  0.07928
      11     H     0.45491  0.45491  0.00000  0.09017
      12     H     0.44777  0.44777  0.00000  0.10445
      13     H     0.45691  0.45691  0.00000  0.08618

   Total alpha = 17.00000, Total beta = 17.00000, Total charge =  0.00000

*** Psi4 exiting successfully. Buy a developer a beer!
