                              Psi4 1.0.54 Driver

  ==> Input File <==

--------------------------------------------------------------------------
set {
	reference rhf
	basis cc-pvtz
}

set_num_threads( 4 )
memory 2 gb

molecule MOL {
0 1

H	 1.088875	 1.775634	 -0.461871
O	 0.275345	 1.295056	 -0.487956
C	 0.489979	 0.078084	 0.002623
C	 -0.763662	 -0.754014	 0.000816
O	 1.551943	 -0.267479	 0.390863
C	 -2.038001	 0.074705	 -0.000833
H	 -0.712945	 -1.405886	 -0.864342
H	 -0.715137	 -1.405770	 0.866182
H	 -2.087267	 0.710831	 -0.874232
H	 -2.903419	 -0.576199	 -0.001922
H	 -2.089467	 0.710909	 0.872389

	symmetry c1
}
set optking {
	frozen_dihedral = ("
		2 3 4 7
	")
}

ee,wfn = optimize('scf', return_wfn=True)
oeprop( wfn, 'DIPOLE', 'QUADRUPOLE', 'MULLIKEN_CHARGES')
f=open( 'psi4out.xyz', 'w' )
f.write( "11  " )
f.write( str(ee) + "\n" )
f.write( MOL.save_string_xyz() )
f.close()
--------------------------------------------------------------------------

    Molecular point group: c1
  Charge       = 0
  Multiplicity = 1
  Basis Set: CC-PVTZ
  Basis Set:
  @DF-RHF Final Energy:  -266.94987084152194
    Total Energy =                       -266.9498708415220563
    Molecular point group: c1
  Basis Set: CC-PVTZ
  Basis Set:
  Basis Set: CC-PVTZ
  Basis Set:
  @DF-RHF Final Energy:  -266.95020711061602
    Total Energy =                       -266.9502071106161338
  Basis Set: CC-PVTZ
  Basis Set:
  Basis Set: CC-PVTZ
  Basis Set:
  @DF-RHF Final Energy:  -266.95075373145568
    Total Energy =                       -266.9507537314555066
  Basis Set: CC-PVTZ
  Basis Set:
  Basis Set: CC-PVTZ
  Basis Set:
  @DF-RHF Final Energy:  -266.95080637901975
    Total Energy =                       -266.9508063790196957
  Basis Set: CC-PVTZ
  Basis Set:
  Basis Set: CC-PVTZ
  Basis Set:
  @DF-RHF Final Energy:  -266.95079758611871
    Total Energy =                       -266.9507975861187106
  Basis Set: CC-PVTZ
  Basis Set:
  Charge       = 0
  Multiplicity = 1
  Basis Set: CC-PVTZ
  Basis Set:

    Orbital Energies (a.u.)
    -----------------------

    Doubly Occupied:

       1A    -20.607474     2A    -20.537905     3A    -11.374761
       4A    -11.243072     5A    -11.223971     6A     -1.479626
       7A     -1.368920     8A     -1.067695     9A     -0.911298
      10A     -0.826105    11A     -0.705943    12A     -0.679736
      13A     -0.660512    14A     -0.601354    15A     -0.590374
      16A     -0.555384    17A     -0.525865    18A     -0.515983
      19A     -0.476689    20A     -0.443396

  @DF-RHF Final Energy:  -266.95081134017073

   => Energetics <=

    Nuclear Repulsion Energy =            180.4014145358798089
    One-Electron Energy =                -721.9123247662282665
    Two-Electron Energy =                 274.5600988901775850
    DFT Exchange-Correlation Energy =       0.0000000000000000
    Empirical Dispersion Energy =           0.0000000000000000
    PCM Polarization Energy =               0.0000000000000000
    EFP Energy =                            0.0000000000000000
    Total Energy =                       -266.9508113401709011
    Molecular point group: c1
  Basis Set: CC-PVTZ
  Basis Set:

  -Total Gradient:
     Atom            X                  Y                   Z
    ------   -----------------  -----------------  -----------------
       1        0.000003820529    -0.000023317091     0.000001505543
       2       -0.000192263694     0.000300240707     0.000529161118
       3        0.000179808163    -0.000389824415    -0.000714219779
       4       -0.000359803449     0.000726709166    -0.000282421480
       5        0.000114231485    -0.000086610462     0.000063307021
       6       -0.000009484724    -0.000021903958     0.000014856517
       7        0.000290483511    -0.000505310065     0.000392019923
       8       -0.000020964503     0.000003730743     0.000002228435
       9        0.000013028217    -0.000003788395     0.000004311497
      10       -0.000021948956     0.000002462030    -0.000002924948
      11        0.000003093426    -0.000002388257    -0.000007823848

  **** Optimization is complete! (in 6 steps) ****
    Final optimized geometry and variables:
    Molecular point group: c1

    Geometry (in Angstrom), charge = 0, multiplicity = 1:

    H            1.340246088541     1.543257460883    -0.503353010695
    O            0.475311894905     1.161323414082    -0.490242612066
    C            0.569239471627    -0.060201465357     0.021692251025
    C           -0.741424246470    -0.805261044139     0.068262884959
    O            1.601479481267    -0.511701299321     0.382765823296
    C           -2.002864514633     0.049203663923     0.065440173049
    H           -0.730927153478    -1.473110347311    -0.787740186207
    H           -0.694940142927    -1.438930920709     0.943112704729
    H           -2.078755532404     0.642045953873    -0.835205707177
    H           -2.875561142106    -0.588921605751     0.127003822520
    H           -2.022309079459     0.724739314380     0.911651685692

  Mulliken Charges: (a.u.)
   Center  Symbol    Alpha    Beta     Spin     Total
       1     H     0.38205  0.38205  0.00000  0.23590
       2     O     4.15548  4.15548  0.00000 -0.31096
       3     C     2.80630  2.80630  0.00000  0.38741
       4     C     3.09485  3.09485  0.00000 -0.18970
       5     O     4.19647  4.19647  0.00000 -0.39293
       6     C     3.14253  3.14253  0.00000 -0.28507
       7     H     0.44230  0.44230  0.00000  0.11539
       8     H     0.43443  0.43443  0.00000  0.13113
       9     H     0.44682  0.44682  0.00000  0.10636
      10     H     0.44888  0.44888  0.00000  0.10224
      11     H     0.44989  0.44989  0.00000  0.10023

   Total alpha = 20.00000, Total beta = 20.00000, Total charge = -0.00000

*** Psi4 exiting successfully. Buy a developer a beer!
