  ==> Input File <==

--------------------------------------------------------------------------
set {
	reference rhf
	basis cc-pvtz
}

set_num_threads( 4 )
memory 2 gb

molecule MOL {
0 1

H	 -2.894835	 0.027319	 0.774470
O	 -2.346257	 -0.289210	 0.080372
C	 -1.183935	 0.486039	 -0.009831
C	 0.062853	 -0.375310	 0.027457
H	 -1.178881	 1.094526	 -0.908634
H	 -1.184406	 1.155156	 0.838676
O	 1.172093	 0.457955	 -0.054438
H	 0.052476	 -1.081302	 -0.804627
H	 0.076323	 -0.955658	 0.947560
C	 2.395478	 -0.199028	 -0.000366
H	 2.505946	 -0.901710	 -0.823354
H	 3.174616	 0.545641	 -0.071768
H	 2.513730	 -0.742241	 0.934223

	symmetry c1
}
set optking {
	frozen_dihedral = ("
		1 2 3 5
	")
}

ee = optimize('scf')
oeprop('DIPOLE', 'QUADRUPOLE', 'MULLIKEN_CHARGES')
f=open( 'psi4out.xyz', 'w' )
f.write( "13  " )
f.write( str(ee) + "\n" )
f.write( MOL.save_string_xyz() )
f.close()
--------------------------------------------------------------------------

    Molecular point group: c1
  Charge       = 0
  Multiplicity = 1
  Basis Set: CC-PVTZ
  Basis Set:
  @DF-RHF Final Energy:  -268.06024628411149
    Total Energy =                       -268.0602462841113720
    Molecular point group: c1
  Basis Set: CC-PVTZ
  Basis Set:
  Basis Set: CC-PVTZ
  Basis Set:
  @DF-RHF Final Energy:  -268.06131537124600
    Total Energy =                       -268.0613153712461667
  Basis Set: CC-PVTZ
  Basis Set:
  Basis Set: CC-PVTZ
  Basis Set:
  @DF-RHF Final Energy:  -268.06156296660777
    Total Energy =                       -268.0615629666076529
  Basis Set: CC-PVTZ
  Basis Set:
  Basis Set: CC-PVTZ
  Basis Set:
  @DF-RHF Final Energy:  -268.06156799026849
    Total Energy =                       -268.0615679902685429
  Basis Set: CC-PVTZ
  Basis Set:
  Charge       = 0
  Multiplicity = 1
  Basis Set: CC-PVTZ
  Basis Set:

    Orbital Energies (a.u.)
    -----------------------

    Doubly Occupied:

       1A    -20.552793     2A    -20.551318     3A    -11.267807
       4A    -11.265127     5A    -11.264873     6A     -1.388819
       7A     -1.367508     8A     -1.019327     9A     -0.912207
      10A     -0.833966    11A     -0.715476    12A     -0.680804
      13A     -0.646662    14A     -0.643296    15A     -0.608745
      16A     -0.553657    17A     -0.546221    18A     -0.493935
      19A     -0.477647    20A     -0.441447    21A     -0.421309

  @DF-RHF Final Energy:  -268.06156863163676

   => Energetics <=

    Nuclear Repulsion Energy =            190.5217621405511466
    One-Electron Energy =                -743.8607743530149037
    Two-Electron Energy =                 285.2774435808268549
    DFT Exchange-Correlation Energy =       0.0000000000000000
    Empirical Dispersion Energy =           0.0000000000000000
    PCM Polarization Energy =               0.0000000000000000
    EFP Energy =                            0.0000000000000000
    Total Energy =                       -268.0615686316369306
    Molecular point group: c1
  Basis Set: CC-PVTZ
  Basis Set:

  -Total Gradient:
     Atom            X                  Y                   Z
    ------   -----------------  -----------------  -----------------
       1        0.000288332398    -0.000388952795     0.000441329258
       2       -0.000257731351     0.000413092164    -0.000616206701
       3       -0.000352029780     0.000366049448     0.000444134296
       4       -0.000012923193     0.000010824894    -0.000004399610
       5        0.000303517022    -0.000422715810    -0.000255987709
       6        0.000009915673    -0.000004965975     0.000002329218
       7        0.000036462042     0.000012387162    -0.000014268327
       8        0.000006532359     0.000005878045     0.000000207397
       9       -0.000022256167     0.000002372950     0.000002708713
      10        0.000002948261     0.000006084653     0.000001695546
      11       -0.000002684926     0.000001479458     0.000000280097
      12        0.000001514431    -0.000000407949    -0.000001599580
      13       -0.000001596765    -0.000001126245    -0.000000222599

  **** Optimization is complete! (in 5 steps) ****
    Final optimized geometry and variables:
    Molecular point group: c1

    Geometry (in Angstrom), charge = 0, multiplicity = 1:

    H           -2.922979839928    -0.035523805212     0.666911383277
    O           -2.314078353440    -0.329537385169     0.017750464066
    C           -1.180271752039     0.497404946345    -0.008217176605
    C            0.058052049973    -0.370776590613     0.041974491953
    H           -1.169250489793     1.081156139583    -0.921427593475
    H           -1.169850493718     1.187691662983     0.827787863239
    O            1.173045832652     0.455433699342    -0.052114852334
    H            0.031587597057    -1.084390288495    -0.778984134437
    H            0.071870478484    -0.938173674414     0.970775891657
    C            2.389919446509    -0.214910663175    -0.042067831150
    H            2.471193108059    -0.903264465473    -0.880107567436
    H            3.175372332643     0.522647725835    -0.119640377427
    H            2.526787759555    -0.777046850920     0.879024201964

  Mulliken Charges: (a.u.)
   Center  Symbol    Alpha    Beta     Spin     Total
       1     H     0.38880  0.38880  0.00000  0.22240
       2     O     4.20617  4.20617  0.00000 -0.41235
       3     C     2.96944  2.96944  0.00000  0.06112
       4     C     2.95949  2.95949  0.00000  0.08102
       5     H     0.46456  0.46456  0.00000  0.07087
       6     H     0.46994  0.46994  0.00000  0.06012
       7     O     4.17658  4.17658  0.00000 -0.35315
       8     H     0.47068  0.47068  0.00000  0.05865
       9     H     0.47527  0.47527  0.00000  0.04946
      10     C     3.03087  3.03087  0.00000 -0.06175
      11     H     0.47016  0.47016  0.00000  0.05968
      12     H     0.44698  0.44698  0.00000  0.10605
      13     H     0.47105  0.47105  0.00000  0.05789

   Total alpha = 21.00000, Total beta = 21.00000, Total charge = -0.00000
