  ==> Input File <==

--------------------------------------------------------------------------
set {
	reference rhf
	basis cc-pvtz
}

set_num_threads( 4 )
memory 2 gb

molecule MOL {
0 1

O	 1.691890	 -0.465864	 -0.431208
C	 0.860843	 0.273204	 -0.013120
C	 -0.623368	 -0.117453	 -0.005652
C	 1.264502	 1.633926	 0.519343
C	 -0.892588	 -1.253841	 -1.002900
C	 -1.473463	 1.100646	 -0.372896
C	 -0.981836	 -0.579025	 1.418506
H	 -0.609333	 -0.970024	 -2.010649
H	 -1.950451	 -1.487353	 -1.013175
H	 -0.360848	 -2.161259	 -0.746463
H	 -1.232203	 1.461623	 -1.364827
H	 -2.524364	 0.834451	 -0.354500
H	 -1.312381	 1.914833	 0.318657
H	 -2.035706	 -0.826342	 1.468082
H	 -0.425078	 -1.458934	 1.716857
H	 -0.788494	 0.205047	 2.140903
H	 1.274137	 1.603608	 1.603203
H	 2.259832	 1.861792	 0.170252
H	 0.580043	 2.416136	 0.221187

	symmetry c1
}
set optking {
	frozen_dihedral = ("
		1 2 3 5
	")
}

ee = optimize('scf')
oeprop('DIPOLE', 'QUADRUPOLE', 'MULLIKEN_CHARGES')
f=open( 'psi4out.xyz', 'w' )
f.write( "19  " )
f.write( str(ee) + "\n" )
f.write( MOL.save_string_xyz() )
f.close()
--------------------------------------------------------------------------

    Molecular point group: c1
  Charge       = 0
  Multiplicity = 1
  Basis Set: CC-PVTZ
  Basis Set:
  @DF-RHF Final Energy:  -309.17093943784823
    Total Energy =                       -309.1709394378484603
    Molecular point group: c1
  Basis Set: CC-PVTZ
  Basis Set:
  Basis Set: CC-PVTZ
  Basis Set:
  @DF-RHF Final Energy:  -309.17117091029667
    Total Energy =                       -309.1711709102967234
  Basis Set: CC-PVTZ
  Basis Set:
  Basis Set: CC-PVTZ
  Basis Set:
  @DF-RHF Final Energy:  -309.17275910893073
    Total Energy =                       -309.1727591089300518
  Basis Set: CC-PVTZ
  Basis Set:
  Basis Set: CC-PVTZ
  Basis Set:
  @DF-RHF Final Energy:  -309.17314201608508
    Total Energy =                       -309.1731420160850803
  Basis Set: CC-PVTZ
  Basis Set:
  @DF-RHF Final Energy:  -309.17332687143528
    Total Energy =                       -309.1733268714351652
  @DF-RHF Final Energy:  -309.17338439033216
    Total Energy =                       -309.1733843903325578
  @DF-RHF Final Energy:  -309.17342402735886
    Total Energy =                       -309.1734240273587488
  @DF-RHF Final Energy:  -309.17353494658511
    Total Energy =                       -309.1735349465852778
  @DF-RHF Final Energy:  -309.17364169295786
    Total Energy =                       -309.1736416929580855
  @DF-RHF Final Energy:  -309.17393091063479
    Total Energy =                       -309.1739309106343399
  @DF-RHF Final Energy:  -309.17414812291679
    Total Energy =                       -309.1741481229171313
  @DF-RHF Final Energy:  -309.17422364207169
    Total Energy =                       -309.1742236420714676
  Basis Set: CC-PVTZ
  Basis Set:
  @DF-RHF Final Energy:  -309.17421848021309
    Total Energy =                       -309.1742184802132556
  Basis Set: CC-PVTZ
  Basis Set:
  Basis Set: CC-PVTZ
  Basis Set:
  @DF-RHF Final Energy:  -309.17424431971750
    Total Energy =                       -309.1742443197171610
  Basis Set: CC-PVTZ
  Basis Set:
  Basis Set: CC-PVTZ
  Basis Set:
  @DF-RHF Final Energy:  -309.17424837782374
    Total Energy =                       -309.1742483778236306
  Basis Set: CC-PVTZ
  Basis Set:
  Charge       = 0
  Multiplicity = 1
  Basis Set: CC-PVTZ
  Basis Set:

    Orbital Energies (a.u.)
    -----------------------

    Doubly Occupied:

       1A    -20.537249     2A    -11.317836     3A    -11.245695
       4A    -11.225323     5A    -11.222211     6A    -11.221588
       7A    -11.206820     8A     -1.398395     9A     -1.110798
      10A     -1.003346    11A     -0.947500    12A     -0.936133
      13A     -0.835616    14A     -0.705486    15A     -0.666748
      16A     -0.634114    17A     -0.622051    18A     -0.597994
      19A     -0.592176    20A     -0.566704    21A     -0.546637
      22A     -0.545966    23A     -0.524962    24A     -0.514484
      25A     -0.502352    26A     -0.472813    27A     -0.467669
      28A     -0.394570

  @DF-RHF Final Energy:  -309.17424859004865

   => Energetics <=

    Nuclear Repulsion Energy =            326.9259651685903805
    One-Electron Energy =               -1067.0739563632403133
    Two-Electron Energy =                 430.9737426046013979
    DFT Exchange-Correlation Energy =       0.0000000000000000
    Empirical Dispersion Energy =           0.0000000000000000
    PCM Polarization Energy =               0.0000000000000000
    EFP Energy =                            0.0000000000000000
    Total Energy =                       -309.1742485900484780
    Molecular point group: c1
  Basis Set: CC-PVTZ
  Basis Set:

  -Total Gradient:
     Atom            X                  Y                   Z
    ------   -----------------  -----------------  -----------------
       1        0.000062614042    -0.000181226950     0.000491441421
       2       -0.000159682253     0.000365619280    -0.000768553044
       3        0.000106396512    -0.000442849798     0.000557284087
       4        0.000013837438    -0.000013665692     0.000017299223
       5       -0.000067161186     0.000267991810    -0.000272741627
       6        0.000007923791     0.000005777330    -0.000013768497
       7        0.000011768397    -0.000006331556     0.000010571585
       8       -0.000002213828    -0.000000877447    -0.000004700253
       9        0.000000518362    -0.000000546239     0.000003743941
      10        0.000004711992     0.000003927996     0.000000600212
      11       -0.000007146942     0.000007431948    -0.000004832113
      12        0.000007990643    -0.000000997734     0.000001482546
      13       -0.000005881667    -0.000004551381    -0.000007825338
      14        0.000000002963     0.000000108224    -0.000002945857
      15        0.000003401656     0.000002971625     0.000005161378
      16       -0.000000395113     0.000002899713     0.000004926109
      17        0.000008465118    -0.000013144529    -0.000011822445
      18        0.000010345383     0.000010757605     0.000006783137
      19        0.000004504691    -0.000003294205    -0.000012104465

  **** Optimization is complete! (in 16 steps) ****
    Final optimized geometry and variables:
    Molecular point group: c1

    Geometry (in Angstrom), charge = 0, multiplicity = 1:

    O            1.691799369092    -0.554002729363    -0.506774284165
    C            0.881314879125     0.191040568979    -0.059769898397
    C           -0.605316445129    -0.189266838054    -0.010167777506
    C            1.316752906118     1.530379164345     0.499593131073
    C           -0.876949854856    -1.314830479783    -1.011067683925
    C           -1.500492297636     1.014323084819    -0.337418023613
    C           -0.903476336655    -0.686359108828     1.415956515239
    H           -0.659727485671    -0.997819007803    -2.023797414491
    H           -1.920475462091    -1.605343200885    -0.963836946934
    H           -0.267798506704    -2.181770716176    -0.801886701189
    H           -1.281163855106     1.414831138211    -1.321214805365
    H           -2.539386508611     0.707184819962    -0.333618685778
    H           -1.395234037153     1.815160963511     0.383213210574
    H           -1.940814075643    -0.991434513123     1.488510970491
    H           -0.284290035986    -1.539242953452     1.665940587751
    H           -0.735650656177     0.083559392398     2.159792221800
    H            0.836957977551     1.754710244876     1.442913870810
    H            2.388497663814     1.522773246869     0.624471463637
    H            1.049718318697     2.317184283603    -0.196809370745

  Mulliken Charges: (a.u.)
   Center  Symbol    Alpha    Beta     Spin     Total
       1     O     4.17643  4.17643  0.00000 -0.35286
       2     C     2.85193  2.85193  0.00000  0.29614
       3     C     3.00823  3.00823  0.00000 -0.01645
       4     C     3.16395  3.16395  0.00000 -0.32789
       5     C     3.15070  3.15070  0.00000 -0.30140
       6     C     3.16460  3.16460  0.00000 -0.32921
       7     C     3.15760  3.15760  0.00000 -0.31520
       8     H     0.44758  0.44758  0.00000  0.10484
       9     H     0.45187  0.45187  0.00000  0.09626
      10     H     0.43803  0.43803  0.00000  0.12394
      11     H     0.44335  0.44335  0.00000  0.11329
      12     H     0.44273  0.44273  0.00000  0.11453
      13     H     0.44574  0.44574  0.00000  0.10852
      14     H     0.44580  0.44580  0.00000  0.10840
      15     H     0.44096  0.44096  0.00000  0.11808
      16     H     0.44645  0.44645  0.00000  0.10709
      17     H     0.44656  0.44656  0.00000  0.10688
      18     H     0.43178  0.43178  0.00000  0.13644
      19     H     0.44571  0.44571  0.00000  0.10859

   Total alpha = 28.00000, Total beta = 28.00000, Total charge = -0.00000
