  ==> Input File <==

--------------------------------------------------------------------------
set {
	reference rhf
	basis 6-31G*
}

set_num_threads( 1 )
memory 2 gb

molecule MOL {
0 1

H	 -2.435671	 -2.106314	 -2.573427
O	 -2.439892	 -1.607273	 -1.769160
C	 -1.133130	 -1.193145	 -1.463443
C	 -1.177863	 -0.397191	 -0.171080
H	 -0.475464	 -2.053752	 -1.348816
H	 -0.728429	 -0.578187	 -2.266178
C	 0.198102	 0.111031	 0.262842
H	 -1.605771	 -1.027323	 0.603876
H	 -1.860248	 0.437294	 -0.306954
C	 1.331804	 -0.827780	 -0.158768
H	 0.361943	 1.100838	 -0.156218
H	 0.217265	 0.229072	 1.345532
C	 2.723619	 -0.410569	 0.329459
H	 1.342964	 -0.912588	 -1.244120
H	 1.116806	 -1.824343	 0.220779
C	 3.243875	 0.895854	 -0.272975
H	 3.424222	 -1.207124	 0.091250
H	 2.714788	 -0.329854	 1.414619
H	 3.251977	 0.848779	 -1.358681
H	 2.637085	 1.747371	 0.016682
H	 4.259473	 1.094070	 0.055697

	symmetry c1
}
set optking {
	frozen_dihedral = ("
		2 3 4 8,
		4 7 10 14,
		16 13 10 14,
		1 2 3 5
	")
}

ee = energy('scf')
oeprop('DIPOLE', 'QUADRUPOLE', 'MULLIKEN_CHARGES')
f=open( 'psi4out.xyz', 'w' )
f.write( "21  " )
f.write( str(ee) + "\n" )
f.write( MOL.save_string_xyz() )
f.close()
--------------------------------------------------------------------------

    Molecular point group: c1

    Geometry (in Angstrom), charge = 0, multiplicity = 1:

       Center              X                  Y                   Z               Mass
    ------------   -----------------  -----------------  -----------------  -----------------
           H         -2.783624333898    -1.595193255725    -2.068706795849     1.007825032070
           O         -2.787845333898    -1.096152255725    -1.264439795849    15.994914619560
           C         -1.481083333898    -0.682024255725    -0.958722795849    12.000000000000
           C         -1.525816333898     0.113929744275     0.333640204151    12.000000000000
           H         -0.823417333898    -1.542631255725    -0.844095795849     1.007825032070
           H         -1.076382333898    -0.067066255725    -1.761457795849     1.007825032070
           C         -0.149851333898     0.622151744275     0.767562204151    12.000000000000
           H         -1.953724333898    -0.516202255725     1.108596204151     1.007825032070
           H         -2.208201333898     0.948414744275     0.197766204151     1.007825032070
           C          0.983850666102    -0.316659255725     0.345952204151    12.000000000000
           H          0.013989666102     1.611958744275     0.348502204151     1.007825032070
           H         -0.130688333898     0.740192744275     1.850252204151     1.007825032070
           C          2.375665666102     0.100551744275     0.834179204151    12.000000000000
           H          0.995010666102    -0.401467255725    -0.739399795849     1.007825032070
           H          0.768852666102    -1.313222255725     0.725499204151     1.007825032070
           C          2.895921666102     1.406974744275     0.231745204151    12.000000000000
           H          3.076268666102    -0.696003255725     0.595970204151     1.007825032070
           H          2.366834666102     0.181266744275     1.919339204151     1.007825032070
           H          2.904023666102     1.359899744275    -0.853960795849     1.007825032070
           H          2.289131666102     2.258491744275     0.521402204151     1.007825032070
           H          3.911519666102     1.605190744275     0.560417204151     1.007825032070

  Charge       = 0
  Multiplicity = 1
  Basis Set: 6-31G*
  Basis Set:

    Orbital Energies (a.u.)
    -----------------------

    Doubly Occupied:

       1A    -20.550502     2A    -11.265244     3A    -11.216525
       4A    -11.215727     5A    -11.214917     6A    -11.209917
       7A    -11.209371     8A     -1.357476     9A     -1.090312
      10A     -1.032364    11A     -0.948156    12A     -0.887665
      13A     -0.817528    14A     -0.762555    15A     -0.695986
      16A     -0.660406    17A     -0.619570    18A     -0.607397
      19A     -0.594606    20A     -0.562869    21A     -0.544036
      22A     -0.520006    23A     -0.515294    24A     -0.494773
      25A     -0.479969    26A     -0.459349    27A     -0.449839
      28A     -0.444501    29A     -0.428019

  @DF-RHF Final Energy:  -310.20455794949083

   => Energetics <=

    Nuclear Repulsion Energy =            319.8952536247076637
    One-Electron Energy =               -1054.4902342540801783
    Two-Electron Energy =                 424.3904226798818513
    DFT Exchange-Correlation Energy =       0.0000000000000000
    Empirical Dispersion Energy =           0.0000000000000000
    PCM Polarization Energy =               0.0000000000000000
    EFP Energy =                            0.0000000000000000
    Total Energy =                       -310.2045579494906065

  Mulliken Charges: (a.u.)
   Center  Symbol    Alpha    Beta     Spin     Total
       1     H     0.28154  0.28154  0.00000  0.43692
       2     O     4.37398  4.37398  0.00000 -0.74797
       3     C     2.99403  2.99403  0.00000  0.01193
       4     C     3.16045  3.16045  0.00000 -0.32090
       5     H     0.42804  0.42804  0.00000  0.14392
       6     H     0.43289  0.43289  0.00000  0.13422
       7     C     3.15981  3.15981  0.00000 -0.31963
       8     H     0.41425  0.41425  0.00000  0.17150
       9     H     0.41247  0.41247  0.00000  0.17505
      10     C     3.16487  3.16487  0.00000 -0.32974
      11     H     0.41942  0.41942  0.00000  0.16115
      12     H     0.41910  0.41910  0.00000  0.16180
      13     C     3.15010  3.15010  0.00000 -0.30020
      14     H     0.42228  0.42228  0.00000  0.15544
      15     H     0.41991  0.41991  0.00000  0.16018
      16     C     3.24135  3.24135  0.00000 -0.48270
      17     H     0.42135  0.42135  0.00000  0.15730
      18     H     0.42288  0.42288  0.00000  0.15423
      19     H     0.42291  0.42291  0.00000  0.15418
      20     H     0.41947  0.41947  0.00000  0.16107
      21     H     0.41889  0.41889  0.00000  0.16221

   Total alpha = 29.00000, Total beta = 29.00000, Total charge =  0.00000
