  ==> Input File <==

--------------------------------------------------------------------------
set {
	reference rhf
	basis 6-31G*
}

set_num_threads( 4 )
memory 2 gb

molecule MOL {
0 1

H	 5.268524	 0.192471	 1.070992
C	 4.673736	 -0.214914	 0.259335
C	 3.185378	 -0.203514	 0.605509
H	 4.871837	 0.380453	 -0.627026
H	 5.025590	 -1.224632	 0.065769
C	 2.317601	 -0.778379	 -0.516234
H	 2.874655	 0.814325	 0.817774
H	 3.023650	 -0.778480	 1.515976
C	 3.120605	 -1.409571	 -1.653796
H	 1.640993	 -1.521015	 -0.108389
H	 1.702354	 0.016294	 -0.932176
C	 3.798867	 -2.721924	 -1.289197
H	 2.461594	 -1.624257	 -2.493669
H	 3.865985	 -0.715242	 -2.035228
C	 4.913093	 -3.212532	 -2.197227
O	 3.460609	 -3.357467	 -0.336268
C	 4.454964	 -3.508993	 -3.632981
H	 5.321756	 -4.106861	 -1.742382
H	 5.698974	 -2.459778	 -2.218136
C	 5.577987	 -4.092905	 -4.492327
H	 3.622084	 -4.208432	 -3.606298
H	 4.084131	 -2.601160	 -4.101802
C	 5.134369	 -4.392257	 -5.923583
H	 5.946627	 -5.004857	 -4.029174
H	 6.414919	 -3.398197	 -4.510252
H	 4.319023	 -5.109674	 -5.939341
H	 4.792189	 -3.491660	 -6.425531
H	 5.950217	 -4.806227	 -6.507448

	symmetry c1
}
set optking {
	frozen_dihedral = ("
		10 6 3 2
	")
}

ee = optimize('scf')
oeprop('DIPOLE', 'QUADRUPOLE', 'MULLIKEN_CHARGES')
f=open( 'psi4out.xyz', 'w' )
f.write( "28  " )
f.write( str(ee) + "\n" )
f.write( MOL.save_string_xyz() )
f.close()
--------------------------------------------------------------------------

    Molecular point group: c1
  Charge       = 0
  Multiplicity = 1
  Basis Set: 6-31G*
  Basis Set:
  @DF-RHF Final Energy:  -426.15490098251883
    Total Energy =                       -426.1549009825181429
    Molecular point group: c1
  Basis Set: 6-31G*
  Basis Set:
  Basis Set: 6-31G*
  Basis Set:
  @DF-RHF Final Energy:  -426.15888655780634
    Total Energy =                       -426.1588865578061132
  Basis Set: 6-31G*
  Basis Set:
  Basis Set: 6-31G*
  Basis Set:
  @DF-RHF Final Energy:  -426.15852098114965
    Total Energy =                       -426.1585209811496497
  Basis Set: 6-31G*
  Basis Set:
  Basis Set: 6-31G*
  Basis Set:
  @DF-RHF Final Energy:  -426.15967416825936
    Total Energy =                       -426.1596741682591301
  Basis Set: 6-31G*
  Basis Set:
  @DF-RHF Final Energy:  -426.16002959390835
    Total Energy =                       -426.1600295939089165
  @DF-RHF Final Energy:  -426.15989610510724
    Total Energy =                       -426.1598961051066681
  @DF-RHF Final Energy:  -426.16004506472257
    Total Energy =                       -426.1600450647227945
  Basis Set: 6-31G*
  Basis Set:
  @DF-RHF Final Energy:  -426.16006797776629
    Total Energy =                       -426.1600679777657206
  Basis Set: 6-31G*
  Basis Set:
  Basis Set: 6-31G*
  Basis Set:
  @DF-RHF Final Energy:  -426.16007040041393
    Total Energy =                       -426.1600704004135878
  Basis Set: 6-31G*
  Basis Set:
  Basis Set: 6-31G*
  Basis Set:
  @DF-RHF Final Energy:  -426.16007266747442
    Total Energy =                       -426.1600726674746511
  Basis Set: 6-31G*
  Basis Set:
  Charge       = 0
  Multiplicity = 1
  Basis Set: 6-31G*
  Basis Set:

    Orbital Energies (a.u.)
    -----------------------

    Doubly Occupied:

       1A    -20.547661     2A    -11.321428     3A    -11.232294
       4A    -11.228964     5A    -11.228601     6A    -11.225919
       7A    -11.216631     8A    -11.216183     9A    -11.213232
      10A    -11.208495    11A     -1.392825    12A     -1.094563
      13A     -1.073939    14A     -1.020429    15A     -0.988504
      16A     -0.912866    17A     -0.880940    18A     -0.808763
      19A     -0.790217    20A     -0.718788    21A     -0.668723
      22A     -0.651602    23A     -0.636483    24A     -0.621199
      25A     -0.608071    26A     -0.595018    27A     -0.577509
      28A     -0.552184    29A     -0.546054    30A     -0.533111
      31A     -0.531323    32A     -0.507313    33A     -0.505894
      34A     -0.484465    35A     -0.477658    36A     -0.473119
      37A     -0.468675    38A     -0.456640    39A     -0.455025
      40A     -0.391859

  @DF-RHF Final Energy:  -426.16007317622359

   => Energetics <=

    Nuclear Repulsion Energy =            541.7119066453169580
    One-Electron Energy =               -1651.6176189508410062
    Two-Electron Energy =                 683.7456391293001161
    DFT Exchange-Correlation Energy =       0.0000000000000000
    Empirical Dispersion Energy =           0.0000000000000000
    PCM Polarization Energy =               0.0000000000000000
    EFP Energy =                            0.0000000000000000
    Total Energy =                       -426.1600731762239320
    Molecular point group: c1
  Basis Set: 6-31G*
  Basis Set:

  -Total Gradient:
     Atom            X                  Y                   Z
    ------   -----------------  -----------------  -----------------
       1       -0.000000938810    -0.000002292096    -0.000009113171
       2        0.000323140898    -0.002611970451     0.001070814452
       3        0.000170016065     0.003256678117    -0.001622497309
       4       -0.000003159301     0.000001512765    -0.000006796723
       5       -0.000007947977     0.000005735517     0.000002358409
       6       -0.003212587328     0.001852892644     0.001076359699
       7       -0.000000770721    -0.000001197848    -0.000000685110
       8        0.000002558148     0.000002117448     0.000000653913
       9       -0.000022742106    -0.000004259139     0.000019457041
      10        0.002752419853    -0.002500285171    -0.000514160226
      11        0.000000337066    -0.000006080950    -0.000010177263
      12       -0.000022578201    -0.000005354716     0.000019494019
      13       -0.000000646193     0.000005004056     0.000003548438
      14        0.000012301178     0.000010404006    -0.000003820478
      15       -0.000012074334    -0.000005984176    -0.000052704673
      16        0.000010033244    -0.000003010463     0.000002443989
      17        0.000009161406     0.000003852741     0.000017652300
      18       -0.000004060758    -0.000001413218     0.000005109545
      19        0.000004090811     0.000001057945     0.000001646553
      20        0.000006359784     0.000000435438     0.000000228811
      21        0.000000648851    -0.000000312251    -0.000000604608
      22       -0.000002672710     0.000000920261    -0.000000917640
      23       -0.000000551175     0.000001163628     0.000001327291
      24       -0.000000759303     0.000000655764     0.000000542831
      25        0.000000236558    -0.000000061005    -0.000000671571
      26       -0.000000136148     0.000000108830     0.000000042970
      27        0.000000021653    -0.000000091523    -0.000000284374
      28        0.000000299552    -0.000000226148     0.000000752882

  **** Optimization is complete! (in 11 steps) ****
    Final optimized geometry and variables:
    Molecular point group: c1

    Geometry (in Angstrom), charge = 0, multiplicity = 1:

    H            0.943289191208     2.755867744184     3.408221505505
    C            0.551380540467     2.325232059305     2.492027424295
    C           -0.969713537278     2.186458515673     2.595437924861
    H            0.851232279214     2.977799735942     1.676765951240
    H            1.036636485176     1.365403110827     2.356601782530
    C           -1.720726977644     1.607300971193     1.365168872409
    H           -1.388161443111     3.161034964299     2.828930038332
    H           -1.181440311896     1.557673973128     3.453467498783
    C           -0.866678434524     1.017563886198     0.238463710326
    H           -2.375490305853     0.812663797471     1.699327405230
    H           -2.346353068118     2.379592341528     0.929161089935
    C           -0.201955781280    -0.304773591973     0.586338899674
    H           -1.509291150017     0.823649162268    -0.619075582996
    H           -0.114170344504     1.714894582303    -0.116859129102
    C            0.880764586607    -0.815572776191    -0.348793700665
    O           -0.526545716123    -0.933244920838     1.549028042690
    C            0.365816577859    -1.160223517584    -1.754489498168
    H            1.311683675055    -1.694239432694     0.115979787383
    H            1.661055432859    -0.061022372781    -0.425727212095
    C            1.454860095777    -1.771340394552    -2.638282614712
    H           -0.463639208178    -1.859105566513    -1.670756094211
    H           -0.025347527581    -0.268770880070    -2.237969811648
    C            0.955064321715    -2.117887518928    -4.040076537436
    H            1.843335379111    -2.667333284699    -2.160451653494
    H            2.289069900291    -1.077072665581    -2.712410578197
    H            0.140952248606    -2.835731083654    -3.999649084054
    H            0.591650285130    -1.234464910339    -4.557377741781
    H            1.747730750037    -2.550582599240    -4.642059886055

  Mulliken Charges: (a.u.)
   Center  Symbol    Alpha    Beta     Spin     Total
       1     H     0.41708  0.41708  0.00000  0.16585
       2     C     3.24777  3.24777  0.00000 -0.49554
       3     C     3.15299  3.15299  0.00000 -0.30598
       4     H     0.42533  0.42533  0.00000  0.14934
       5     H     0.41719  0.41719  0.00000  0.16562
       6     C     3.15419  3.15419  0.00000 -0.30838
       7     H     0.42186  0.42186  0.00000  0.15628
       8     H     0.41199  0.41199  0.00000  0.17601
       9     C     3.21458  3.21458  0.00000 -0.42916
      10     H     0.40437  0.40437  0.00000  0.19127
      11     H     0.41994  0.41994  0.00000  0.16012
      12     C     2.73079  2.73079  0.00000  0.53841
      13     H     0.40337  0.40337  0.00000  0.19325
      14     H     0.41042  0.41042  0.00000  0.17917
      15     C     3.20144  3.20144  0.00000 -0.40288
      16     O     4.26809  4.26809  0.00000 -0.53618
      17     C     3.16377  3.16377  0.00000 -0.32755
      18     H     0.39990  0.39990  0.00000  0.20021
      19     H     0.41303  0.41303  0.00000  0.17394
      20     C     3.15178  3.15178  0.00000 -0.30356
      21     H     0.41347  0.41347  0.00000  0.17306
      22     H     0.41881  0.41881  0.00000  0.16238
      23     C     3.24034  3.24034  0.00000 -0.48068
      24     H     0.41837  0.41837  0.00000  0.16325
      25     H     0.42142  0.42142  0.00000  0.15715
      26     H     0.41958  0.41958  0.00000  0.16084
      27     H     0.42122  0.42122  0.00000  0.15756
      28     H     0.41690  0.41690  0.00000  0.16619

   Total alpha = 40.00000, Total beta = 40.00000, Total charge = -0.00000
