  ==> Input File <==

--------------------------------------------------------------------------
set {
	reference rhf
	basis 6-31G*
}

set_num_threads( 4 )
memory 2 gb

molecule MOL {
0 1

H	 -0.821032	 -1.655889	 0.000000
O	 -1.037828	 -0.728600	 0.000000
C	 0.100509	 -0.036935	 0.000000
C	 1.132803	 -0.659283	 0.896078
O	 0.244826	 0.949489	 -0.644486
H	 0.752193	 -0.710956	 1.909577
H	 2.037535	 -0.071189	 0.868563
H	 1.336335	 -1.672333	 0.568938

	symmetry c1
}
set optking {
	frozen_dihedral = ("
		4 3 2 1
	")
}

ee = optimize('scf')
oeprop('DIPOLE', 'QUADRUPOLE', 'MULLIKEN_CHARGES')
f=open( 'psi4out.xyz', 'w' )
f.write( "8  " )
f.write( str(ee) + "\n" )
f.write( MOL.save_string_xyz() )
f.close()
--------------------------------------------------------------------------

    Molecular point group: c1
  Charge       = 0
  Multiplicity = 1
  Basis Set: 6-31G*
  Basis Set:
  @DF-RHF Final Energy:  -227.79240617171865
    Total Energy =                       -227.7924061717186532
    Molecular point group: c1
  Basis Set: 6-31G*
  Basis Set:
  Basis Set: 6-31G*
  Basis Set:
  @DF-RHF Final Energy:  -227.79206821320099
    Total Energy =                       -227.7920682132010484
  Basis Set: 6-31G*
  Basis Set:
  Basis Set: 6-31G*
  Basis Set:
  @DF-RHF Final Energy:  -227.79351155375682
    Total Energy =                       -227.7935115537567867
  Basis Set: 6-31G*
  Basis Set:
  Basis Set: 6-31G*
  Basis Set:
  @DF-RHF Final Energy:  -227.79456997541848
    Total Energy =                       -227.7945699754184261
  Basis Set: 6-31G*
  Basis Set:
  @DF-RHF Final Energy:  -227.79459494445132
    Total Energy =                       -227.7945949444513190
  @DF-RHF Final Energy:  -227.79461376755165
    Total Energy =                       -227.7946137675517377
  Basis Set: 6-31G*
  Basis Set:
  @DF-RHF Final Energy:  -227.79422744009133
    Total Energy =                       -227.7942274400912481
  Basis Set: 6-31G*
  Basis Set:
  Basis Set: 6-31G*
  Basis Set:
  @DF-RHF Final Energy:  -227.79461838073325
    Total Energy =                       -227.7946183807332261
  Basis Set: 6-31G*
  Basis Set:
  Basis Set: 6-31G*
  Basis Set:
  @DF-RHF Final Energy:  -227.79462060702787
    Total Energy =                       -227.7946206070278947
  Basis Set: 6-31G*
  Basis Set:
  Charge       = 0
  Multiplicity = 1
  Basis Set: 6-31G*
  Basis Set:

    Orbital Energies (a.u.)
    -----------------------

    Doubly Occupied:

       1A    -20.609847     2A    -20.554171     3A    -11.385636
       4A    -11.250082     5A     -1.467714     6A     -1.372613
       7A     -1.025742     8A     -0.836657     9A     -0.718012
      10A     -0.667343    11A     -0.658303    12A     -0.600234
      13A     -0.575729    14A     -0.538936    15A     -0.482462
      16A     -0.447388

  @DF-RHF Final Energy:  -227.79462064654183

   => Energetics <=

    Nuclear Repulsion Energy =            122.0462597492031733
    One-Electron Energy =                -553.3000250551087902
    Two-Electron Energy =                 203.4591446593636590
    DFT Exchange-Correlation Energy =       0.0000000000000000
    Empirical Dispersion Energy =           0.0000000000000000
    PCM Polarization Energy =               0.0000000000000000
    EFP Energy =                            0.0000000000000000
    Total Energy =                       -227.7946206465419721
    Molecular point group: c1
  Basis Set: 6-31G*
  Basis Set:

  -Total Gradient:
     Atom            X                  Y                   Z
    ------   -----------------  -----------------  -----------------
       1        0.000191599254     0.000117085694    -0.006375354940
       2       -0.000968229274     0.000885321569     0.009595263190
       3        0.002237230362    -0.003248502497    -0.006439676695
       4       -0.001453748028     0.002237159626     0.003167214951
       5       -0.000007110118     0.000011833854     0.000058276720
       6       -0.000002298281    -0.000000781286    -0.000004182503
       7        0.000000175616    -0.000001015775     0.000002613973
       8        0.000002380470    -0.000001101189    -0.000004154694

  **** Optimization is complete! (in 10 steps) ****
    Final optimized geometry and variables:
    Molecular point group: c1

    Geometry (in Angstrom), charge = 0, multiplicity = 1:

    H           -0.998324822196    -1.532349912648    -0.140170808776
    O           -1.137190211706    -0.594388570482    -0.126947856781
    C            0.021088205772     0.088495644839    -0.078750047763
    C            1.074471785812    -0.508906157664     0.823304925578
    O            0.127758885889     1.130043214611    -0.622196267418
    H            0.711309711698    -0.479465806458     1.845111506786
    H            1.986562636877     0.062857758682     0.745174023055
    H            1.276215008104    -1.546514003874     0.574058794706

  Mulliken Charges: (a.u.)
   Center  Symbol    Alpha    Beta     Spin     Total
       1     H     0.26981  0.26981  0.00000  0.46038
       2     O     4.34943  4.34943  0.00000 -0.69887
       3     C     2.63235  2.63235  0.00000  0.73530
       4     C     3.29926  3.29926  0.00000 -0.59853
       5     O     4.25212  4.25212  0.00000 -0.50425
       6     H     0.39468  0.39468  0.00000  0.21064
       7     H     0.38987  0.38987  0.00000  0.22026
       8     H     0.41246  0.41246  0.00000  0.17507

   Total alpha = 16.00000, Total beta = 16.00000, Total charge =  0.00000
