  ==> Input File <==

--------------------------------------------------------------------------
set {
	reference rhf
	basis cc-pvtz
}

set_num_threads( 4 )
memory 2 gb

molecule MOL {
0 1

H	 -0.490026	 -1.644034	 -0.002752
N	 -0.625934	 -0.663929	 -0.000707
C	 -1.978635	 -0.158664	 0.001017
C	 0.468496	 0.129037	 0.002276
H	 -2.519057	 -0.493535	 -0.876362
H	 -1.938890	 0.917202	 -0.004137
H	 -2.514266	 -0.485137	 0.884506
C	 1.785711	 -0.615116	 0.004108
O	 0.413286	 1.323180	 0.009301
H	 1.868201	 -1.240082	 -0.877487
H	 2.591494	 0.100208	 0.013679
H	 1.859146	 -1.253609	 0.876778

	symmetry c1
}
set optking {
	frozen_dihedral = ("
		4 2 3 5
	")
}

ee = optimize('scf')
oeprop('DIPOLE', 'QUADRUPOLE', 'MULLIKEN_CHARGES')
f=open( 'psi4out.xyz', 'w' )
f.write( "12  " )
f.write( str(ee) + "\n" )
f.write( MOL.save_string_xyz() )
f.close()
--------------------------------------------------------------------------

    Molecular point group: c1
  Charge       = 0
  Multiplicity = 1
  Basis Set: CC-PVTZ
  Basis Set:
  @DF-RHF Final Energy:  -247.10098506418964
    Total Energy =                       -247.1009850641895582
    Molecular point group: c1
  Basis Set: CC-PVTZ
  Basis Set:
  Basis Set: CC-PVTZ
  Basis Set:
  @DF-RHF Final Energy:  -247.10093580259107
    Total Energy =                       -247.1009358025908682
  Basis Set: CC-PVTZ
  Basis Set:
  Charge       = 0
  Multiplicity = 1
  Basis Set: CC-PVTZ
  Basis Set:

    Orbital Energies (a.u.)
    -----------------------

    Doubly Occupied:

       1A    -20.506605     2A    -15.574915     3A    -11.336926
       4A    -11.252389     5A    -11.228083     6A     -1.388445
       7A     -1.231038     8A     -1.016704     9A     -0.932878
      10A     -0.788214    11A     -0.690990    12A     -0.651708
      13A     -0.635346    14A     -0.586897    15A     -0.582942
      16A     -0.555558    17A     -0.544809    18A     -0.511436
      19A     -0.417222    20A     -0.389315

  @DF-RHF Final Energy:  -247.10098777051914

   => Energetics <=

    Nuclear Repulsion Energy =            181.6361329870972270
    One-Electron Energy =                -695.8294019334846325
    Two-Electron Energy =                 267.0922811758684929
    DFT Exchange-Correlation Energy =       0.0000000000000000
    Empirical Dispersion Energy =           0.0000000000000000
    PCM Polarization Energy =               0.0000000000000000
    EFP Energy =                            0.0000000000000000
    Total Energy =                       -247.1009877705189410
    Molecular point group: c1
  Basis Set: CC-PVTZ
  Basis Set:

  -Total Gradient:
     Atom            X                  Y                   Z
    ------   -----------------  -----------------  -----------------
       1        0.000005035474    -0.000004199618    -0.000005755673
       2        0.000037546849     0.000047753837     0.000004855483
       3       -0.000033004874     0.000007977189     0.000010289064
       4       -0.000007613284    -0.000102110593     0.000001468009
       5        0.000009759338     0.000001192428    -0.000000391125
       6       -0.000001199570     0.000006607162    -0.000001271315
       7       -0.000004682711     0.000000513788    -0.000003293487
       8        0.000012520245     0.000011465558    -0.000004225355
       9       -0.000034613317     0.000047258341    -0.000003313188
      10        0.000007095297    -0.000007334515     0.000000946531
      11        0.000003163385    -0.000003884814    -0.000000283124
      12        0.000005993168    -0.000005238764     0.000000974179

  **** Optimization is complete! (in 3 steps) ****
    Final optimized geometry and variables:
    Molecular point group: c1

    Geometry (in Angstrom), charge = 0, multiplicity = 1:

    H           -0.489934610890    -1.644138267378    -0.005577385326
    N           -0.625944124951    -0.663955915530    -0.003421573835
    C           -1.978559217747    -0.158552537710    -0.003212317371
    C            0.468574789855     0.129058141846     0.001265413713
    H           -2.517828999897    -0.493076606241    -0.881464043552
    H           -1.938972022359     0.917431268366    -0.008044286405
    H           -2.515714475007    -0.485062021021     0.879418277850
    C            1.786104833722    -0.615108772613     0.000108753418
    O            0.412813563246     1.323106767317     0.005430734472
    H            1.866800526944    -1.240074181750    -0.881707261210
    H            2.591932300959     0.100284750890     0.007974192413
    H            1.861435012310    -1.253613945985     0.872637894526

  Mulliken Charges: (a.u.)
   Center  Symbol    Alpha    Beta     Spin     Total
       1     H     0.41027  0.41027  0.00000  0.17945
       2     N     3.62195  3.62195  0.00000 -0.24390
       3     C     3.08603  3.08603  0.00000 -0.17205
       4     C     2.83655  2.83655  0.00000  0.32690
       5     H     0.45567  0.45567  0.00000  0.08866
       6     H     0.43101  0.43101  0.00000  0.13799
       7     H     0.45572  0.45572  0.00000  0.08856
       8     C     3.15348  3.15348  0.00000 -0.30696
       9     O     4.21564  4.21564  0.00000 -0.43129
      10     H     0.44999  0.44999  0.00000  0.10003
      11     H     0.43353  0.43353  0.00000  0.13295
      12     H     0.45017  0.45017  0.00000  0.09967

   Total alpha = 20.00000, Total beta = 20.00000, Total charge =  0.00000
