                              Psi4 1.0.54 Driver

  ==> Input File <==

--------------------------------------------------------------------------
set {
	reference rhf
	basis cc-pvtz
}

set_num_threads( 4 )
memory 2 gb

molecule MOL {
0 1

H	 3.889604	 0.356866	 -0.089510
N	 3.091268	 -0.241216	 -0.065538
C	 1.860978	 0.530248	 0.016256
H	 3.192566	 -0.835836	 0.730398
C	 0.644130	 -0.381765	 -0.031064
H	 1.835721	 1.204666	 -0.833114
H	 1.808789	 1.151975	 0.911067
C	 -0.678115	 0.376691	 0.025731
H	 0.693998	 -0.977147	 -0.936845
H	 0.693309	 -1.082142	 0.800523
C	 -0.525496	 1.876235	 -0.213599
H	 -1.143122	 0.216406	 0.995799
H	 -1.364640	 -0.033685	 -0.711254
C	 -1.848667	 2.631750	 -0.149651
H	 0.160408	 2.288084	 0.521389
H	 -0.064512	 2.039261	 -1.184005
H	 -2.318330	 2.517004	 0.821683
H	 -1.704791	 3.691979	 -0.323493
H	 -2.545122	 2.265861	 -0.896921

	symmetry c1
}
set optking {
	frozen_dihedral = ("
		12 8 5 9
	")
}

ee,wfn = optimize('scf', return_wfn=True)
oeprop( wfn, 'DIPOLE', 'QUADRUPOLE', 'MULLIKEN_CHARGES')
f=open( 'psi4out.xyz', 'w' )
f.write( "19  " )
f.write( str(ee) + "\n" )
f.write( MOL.save_string_xyz() )
f.close()
--------------------------------------------------------------------------

    Molecular point group: c1
  Charge       = 0
  Multiplicity = 1
  Basis Set: CC-PVTZ
  Basis Set:
  @DF-RHF Final Energy:  -251.43497971234174
    Total Energy =                       -251.4349797123414874
    Molecular point group: c1
  Basis Set: CC-PVTZ
  Basis Set:
  Basis Set: CC-PVTZ
  Basis Set:
  @DF-RHF Final Energy:  -251.43400990405797
    Total Energy =                       -251.4340099040576888
  Basis Set: CC-PVTZ
  Basis Set:
  Basis Set: CC-PVTZ
  Basis Set:
  @DF-RHF Final Energy:  -251.43905751421030
    Total Energy =                       -251.4390575142103899
  Basis Set: CC-PVTZ
  Basis Set:
  Basis Set: CC-PVTZ
  Basis Set:
  @DF-RHF Final Energy:  -251.43950147783099
    Total Energy =                       -251.4395014778311861
  Basis Set: CC-PVTZ
  Basis Set:
  Basis Set: CC-PVTZ
  Basis Set:
  @DF-RHF Final Energy:  -251.43956366106261
    Total Energy =                       -251.4395636610624933
  Basis Set: CC-PVTZ
  Basis Set:
  Basis Set: CC-PVTZ
  Basis Set:
  @DF-RHF Final Energy:  -251.43956860413624
    Total Energy =                       -251.4395686041360705
  Basis Set: CC-PVTZ
  Basis Set:
  Basis Set: CC-PVTZ
  Basis Set:
  @DF-RHF Final Energy:  -251.43956979063054
    Total Energy =                       -251.4395697906305713
  Basis Set: CC-PVTZ
  Basis Set:
  Charge       = 0
  Multiplicity = 1
  Basis Set: CC-PVTZ
  Basis Set:

    Orbital Energies (a.u.)
    -----------------------

    Doubly Occupied:

       1A    -15.526160     2A    -11.237710     3A    -11.212666
       4A    -11.210958     5A    -11.208178     6A    -11.205871
       7A     -1.178098     8A     -1.071224     9A     -0.995931
      10A     -0.900557    11A     -0.836554    12A     -0.768701
      13A     -0.664349    14A     -0.641329    15A     -0.615557
      16A     -0.589975    17A     -0.572905    18A     -0.550057
      19A     -0.525059    20A     -0.503204    21A     -0.491156
      22A     -0.459482    23A     -0.453401    24A     -0.446453
      25A     -0.383256

  @DF-RHF Final Energy:  -251.43957045990371

   => Energetics <=

    Nuclear Repulsion Energy =            249.6624502503960059
    One-Electron Energy =                -833.7064615022724183
    Two-Electron Energy =                 332.6044407919726495
    DFT Exchange-Correlation Energy =       0.0000000000000000
    Empirical Dispersion Energy =           0.0000000000000000
    PCM Polarization Energy =               0.0000000000000000
    EFP Energy =                            0.0000000000000000
    Total Energy =                       -251.4395704599037913
    Molecular point group: c1
  Basis Set: CC-PVTZ
  Basis Set:

  -Total Gradient:
     Atom            X                  Y                   Z
    ------   -----------------  -----------------  -----------------
       1        0.000008011372     0.000000920995    -0.000000350889
       2        0.000000414278     0.000010250154    -0.000014241432
       3       -0.000005014673     0.000009708683     0.000013388602
       4       -0.000002825817    -0.000002838820     0.000006312401
       5        0.002119939860     0.004248190873    -0.003740553839
       6        0.000012559968    -0.000006414449     0.000003477236
       7        0.000008545970     0.000003992769    -0.000000635512
       8        0.002814541493     0.004266469046     0.003026328057
       9       -0.002244300250    -0.004245887567     0.002645629283
      10       -0.000004715075    -0.000000220579     0.000000810694
      11        0.000005312031    -0.000002321981     0.000014803825
      12       -0.002703805401    -0.004305587893    -0.001944093178
      13        0.000004147288    -0.000007821351     0.000000516103
      14       -0.000004969238     0.000018843790    -0.000008279140
      15        0.000000475540     0.000008616616    -0.000001738791
      16       -0.000004969000     0.000004124760    -0.000000597132
      17        0.000004548744    -0.000001670421    -0.000001330675
      18       -0.000006931826     0.000002740674    -0.000000035686
      19       -0.000000965271    -0.000001095300     0.000000590071

  **** Optimization is complete! (in 8 steps) ****
    Final optimized geometry and variables:
    Molecular point group: c1

    Geometry (in Angstrom), charge = 0, multiplicity = 1:

    H            3.521079284295    -0.678037428747    -0.019574217098
    N            2.666985003094    -1.193501567287    -0.041242105243
    C            1.519115120804    -0.309767483833     0.092870200159
    H            2.700569266065    -1.851653493919     0.709141844337
    C            0.230331104880    -1.114368688488    -0.004118956595
    H            1.569729016179     0.415661464116    -0.709615249806
    H            1.528507836763     0.252478549154     1.026828546905
    C           -1.098363050573    -0.334623652302     0.126075499201
    H            0.237611999524    -1.690604333636    -0.921798068347
    H            0.254683807101    -1.864131899822     0.783578862111
    C           -1.065737881907     1.164051975902    -0.168095367332
    H           -1.526555764825    -0.508276287688     1.108809627019
    H           -1.811952752742    -0.787494259055    -0.556720676261
    C           -2.446080687859     1.803718785832    -0.056057505033
    H           -0.387085710661     1.667430090838     0.512085646277
    H           -0.677466254020     1.330938389665    -1.168516372982
    H           -2.853202612988     1.682584293312     0.942373749756
    H           -2.404991863591     2.865723170828    -0.269551520898
    H           -3.144663790960     1.352824461744    -0.752965287521

  Mulliken Charges: (a.u.)
   Center  Symbol    Alpha    Beta     Spin     Total
       1     H     0.43033  0.43033  0.00000  0.13934
       2     N     3.69000  3.69000  0.00000 -0.38000
       3     C     3.02882  3.02882  0.00000 -0.05764
       4     H     0.43107  0.43107  0.00000  0.13785
       5     C     3.08958  3.08958  0.00000 -0.17916
       6     H     0.45350  0.45350  0.00000  0.09300
       7     H     0.46587  0.46587  0.00000  0.06827
       8     C     3.09721  3.09721  0.00000 -0.19441
       9     H     0.44634  0.44634  0.00000  0.10731
      10     H     0.45844  0.45844  0.00000  0.08311
      11     C     3.09103  3.09103  0.00000 -0.18206
      12     H     0.45292  0.45292  0.00000  0.09415
      13     H     0.45197  0.45197  0.00000  0.09606
      14     C     3.15017  3.15017  0.00000 -0.30033
      15     H     0.45238  0.45238  0.00000  0.09524
      16     H     0.45203  0.45203  0.00000  0.09595
      17     H     0.45534  0.45534  0.00000  0.08931
      18     H     0.44839  0.44839  0.00000  0.10322
      19     H     0.45461  0.45461  0.00000  0.09078

   Total alpha = 25.00000, Total beta = 25.00000, Total charge =  0.00000

*** Psi4 exiting successfully. Buy a developer a beer!
