                              Psi4 1.0.54 Driver

  ==> Input File <==

--------------------------------------------------------------------------
set {
	reference rhf
	basis cc-pvtz
}

set_num_threads( 4 )
memory 2 gb

molecule MOL {
0 1

H	 -4.340537	 -0.784487	 0.000000
O	 -3.958786	 0.074640	 0.000000
C	 -2.613554	 0.009900	 0.000000
C	 -1.917975	 1.131507	 -0.419930
C	 -1.922518	 -1.118325	 0.398075
H	 -2.464291	 2.001210	 -0.726551
C	 -0.540961	 1.120100	 -0.439875
H	 -2.455165	 -1.992330	 0.725138
C	 -0.539696	 -1.128107	 0.377437
H	 -0.004689	 1.988692	 -0.765033
C	 0.145456	 -0.010883	 -0.040716
H	 -0.008059	 -2.005171	 0.686992
Br	 2.043587	 -0.021516	 -0.070060

	symmetry c1
}
set optking {
	frozen_dihedral = ("
		4 3 2 1
	")
}

ee,wfn = optimize('scf', return_wfn=True)
oeprop( wfn, 'DIPOLE', 'QUADRUPOLE', 'MULLIKEN_CHARGES')
f=open( 'psi4out.xyz', 'w' )
f.write( "13  " )
f.write( str(ee) + "\n" )
f.write( MOL.save_string_xyz() )
f.close()
--------------------------------------------------------------------------

    Molecular point group: c1
  Charge       = 0
  Multiplicity = 1
  Basis Set: CC-PVTZ
  Basis Set:
  @DF-RHF Final Energy: -2877.54645631962512
    Total Energy =                      -2877.5464563196246672
    Molecular point group: c1
  Basis Set: CC-PVTZ
  Basis Set:
  Basis Set: CC-PVTZ
  Basis Set:
  @DF-RHF Final Energy: -2877.54647139989311
    Total Energy =                      -2877.5464713998953812
  Basis Set: CC-PVTZ
  Basis Set:
  Charge       = 0
  Multiplicity = 1
  Basis Set: CC-PVTZ
  Basis Set:

    Orbital Energies (a.u.)
    -----------------------

    Doubly Occupied:

       1A   -490.018674     2A    -65.158996     3A    -58.514222
       4A    -58.512854     5A    -58.512849     6A    -20.595249
       7A    -11.311091     8A    -11.288335     9A    -11.253895
      10A    -11.252227    11A    -11.242803    12A    -11.237751
      13A     -9.832791    14A     -7.444411    15A     -7.437659
      16A     -7.437591    17A     -3.188100    18A     -3.184545
      19A     -3.184446    20A     -3.175794    21A     -3.175790
      22A     -1.426479    23A     -1.179966    24A     -1.066830
      25A     -1.042158    26A     -0.970531    27A     -0.869043
      28A     -0.828038    29A     -0.757986    30A     -0.689024
      31A     -0.654234    32A     -0.631706    33A     -0.610254
      34A     -0.607170    35A     -0.576173    36A     -0.524013
      37A     -0.511228    38A     -0.501471    39A     -0.428318
      40A     -0.413811    41A     -0.360260    42A     -0.318483

  @DF-RHF Final Energy: -2877.54647464906293

   => Energetics <=

    Nuclear Repulsion Energy =            525.4748693354586067
    One-Electron Energy =               -5042.1881810402646806
    Two-Electron Energy =                1639.1668370557404160
    DFT Exchange-Correlation Energy =       0.0000000000000000
    Empirical Dispersion Energy =           0.0000000000000000
    PCM Polarization Energy =               0.0000000000000000
    EFP Energy =                            0.0000000000000000
    Total Energy =                      -2877.5464746490656580
    Molecular point group: c1
  Basis Set: CC-PVTZ
  Basis Set:

  -Total Gradient:
     Atom            X                  Y                   Z
    ------   -----------------  -----------------  -----------------
       1       -0.000032658336     0.000000427702    -0.001863543722
       2        0.000087946455    -0.000246942203     0.001743390956
       3       -0.000140871241     0.000516401041     0.001497755053
       4        0.000232537916    -0.000362238640    -0.001260825779
       5       -0.000150796480     0.000056001396    -0.000139403987
       6       -0.000018824465    -0.000015740685    -0.000019731204
       7       -0.000156242445     0.000107794040    -0.000069376278
       8        0.000011086819     0.000013345779     0.000023551038
       9        0.000163524130     0.000120634548     0.000007015217
      10        0.000010641275     0.000005393071     0.000005650501
      11       -0.000012316774    -0.000185862654     0.000085804685
      12       -0.000011510686    -0.000017705668    -0.000002484639
      13        0.000017483735     0.000008492273    -0.000007801837

  **** Optimization is complete! (in 3 steps) ****
    Final optimized geometry and variables:
    Molecular point group: c1

    Geometry (in Angstrom), charge = 0, multiplicity = 1:

    H           -4.340258778076    -0.779052852693     0.045636302324
    O           -3.960002036775     0.080840982206     0.044660061038
    C           -2.612747747339     0.017230083355     0.037400161988
    C           -1.917037714211     1.137480962439    -0.384025356648
    C           -1.922215566152    -1.111771624964     0.434156815646
    H           -2.463266976870     2.005395363525    -0.695958660139
    C           -0.539350397522     1.128752490339    -0.397192814223
    H           -2.456241649077    -1.982587097219     0.766797571769
    C           -0.539598160272    -1.122580758593     0.412887939520
    H           -0.002750645168     1.997421154233    -0.721607202262
    C            0.145948486965    -0.003099842533     0.000130170218
    H           -0.008180633049    -2.000314625168     0.720937534359
    BR           2.043924844397    -0.013686324770    -0.026246480423

  Mulliken Charges: (a.u.)
   Center  Symbol    Alpha    Beta     Spin     Total
       1     H     0.38563  0.38563  0.00000  0.22875
       2     O     4.17316  4.17316  0.00000 -0.34632
       3     C     2.86238  2.86238  0.00000  0.27525
       4     C     3.09307  3.09307  0.00000 -0.18613
       5     C     3.11641  3.11641  0.00000 -0.23282
       6     H     0.41546  0.41546  0.00000  0.16908
       7     C     3.07778  3.07778  0.00000 -0.15556
       8     H     0.42861  0.42861  0.00000  0.14278
       9     C     3.08474  3.08474  0.00000 -0.16949
      10     H     0.41060  0.41060  0.00000  0.17881
      11     C     2.97493  2.97493  0.00000  0.05014
      12     H     0.41057  0.41057  0.00000  0.17885
      13    BR    17.56667 17.56667  0.00000 -0.13334

   Total alpha = 42.00000, Total beta = 42.00000, Total charge = -0.00000

*** Psi4 exiting successfully. Buy a developer a beer!
