  ==> Input File <==

--------------------------------------------------------------------------
set {
	reference rhf
	basis 6-31G*
}

set_num_threads( 1 )
memory 2 gb

molecule MOL {
0 1

H	 -3.261111	 -0.295142	 1.469456
C	 -3.306842	 -0.277400	 0.373456
C	 -2.660244	 0.921717	 -0.272021
O	 -3.838538	 -1.161155	 -0.216482
C	 -1.220012	 1.144545	 0.209990
H	 -2.705793	 0.797307	 -1.347733
H	 -3.263782	 1.790044	 -0.010477
C	 -0.252658	 0.041456	 -0.226725
H	 -0.873521	 2.100229	 -0.171974
H	 -1.211708	 1.231594	 1.295398
C	 1.180775	 0.282413	 0.250794
H	 -0.266029	 -0.034465	 -1.312038
H	 -0.597733	 -0.921000	 0.146291
C	 2.148627	 -0.814315	 -0.201312
H	 1.516199	 1.249228	 -0.115937
H	 1.192670	 0.346017	 1.338083
C	 3.580890	 -0.659131	 0.322722
H	 2.166869	 -0.852443	 -1.289387
H	 1.762857	 -1.776509	 0.128956
C	 4.049448	 -1.792222	 1.237149
H	 3.646463	 0.278484	 0.869097
H	 4.264430	 -0.567523	 -0.518885
H	 3.374837	 -1.917692	 2.080016
H	 4.104705	 -2.740747	 0.713488
H	 5.037966	 -1.582477	 1.634433

	symmetry c1
}
set optking {
	frozen_dihedral = ("
		6 3 5 8,
		6 3 2 4,
		3 5 8 12,
		12 8 11 14,
		8 11 14 18
	")
}

ee = energy('scf')
oeprop('DIPOLE', 'QUADRUPOLE', 'MULLIKEN_CHARGES')
f=open( 'psi4out.xyz', 'w' )
f.write( "25  " )
f.write( str(ee) + "\n" )
f.write( MOL.save_string_xyz() )
f.close()
--------------------------------------------------------------------------

    Molecular point group: c1

    Geometry (in Angstrom), charge = 0, multiplicity = 1:

       Center              X                  Y                   Z               Mass
    ------------   -----------------  -----------------  -----------------  -----------------
           H         -3.228692461966    -0.019419735313     1.299199961076     1.007825032070
           C         -3.274423461966    -0.001677735313     0.203199961076    12.000000000000
           C         -2.627825461966     1.197439264687    -0.442277038924    12.000000000000
           O         -3.806119461966    -0.885432735313    -0.386738038924    15.994914619560
           C         -1.187593461966     1.420267264687     0.039733961076    12.000000000000
           H         -2.673374461966     1.073029264687    -1.517989038924     1.007825032070
           H         -3.231363461966     2.065766264687    -0.180733038924     1.007825032070
           C         -0.220239461966     0.317178264687    -0.396981038924    12.000000000000
           H         -0.841102461966     2.375951264687    -0.342230038924     1.007825032070
           H         -1.179289461966     1.507316264687     1.125141961076     1.007825032070
           C          1.213193538034     0.558135264687     0.080537961076    12.000000000000
           H         -0.233610461966     0.241257264687    -1.482294038924     1.007825032070
           H         -0.565314461966    -0.645277735313    -0.023965038924     1.007825032070
           C          2.181045538034    -0.538592735313    -0.371568038924    12.000000000000
           H          1.548617538034     1.524950264687    -0.286193038924     1.007825032070
           H          1.225088538034     0.621739264687     1.167826961076     1.007825032070
           C          3.613308538034    -0.383408735313     0.152465961076    12.000000000000
           H          2.199287538034    -0.576720735313    -1.459643038924     1.007825032070
           H          1.795275538034    -1.500786735313    -0.041300038924     1.007825032070
           C          4.081866538034    -1.516499735313     1.066892961076    12.000000000000
           H          3.678881538034     0.554206264687     0.698840961076     1.007825032070
           H          4.296848538034    -0.291800735313    -0.689141038924     1.007825032070
           H          3.407255538034    -1.641969735313     1.909759961076     1.007825032070
           H          4.137123538034    -2.465024735313     0.543231961076     1.007825032070
           H          5.070384538034    -1.306754735313     1.464176961076     1.007825032070

  Charge       = 0
  Multiplicity = 1
  Basis Set: 6-31G*
  Basis Set:

    Orbital Energies (a.u.)
    -----------------------

    Doubly Occupied:

       1A    -20.562018     2A    -11.326159     3A    -11.235413
       4A    -11.234687     5A    -11.223745     6A    -11.220992
       7A    -11.216354     8A    -11.215405     9A    -11.210879
      10A     -1.402000    11A     -1.103833    12A     -1.069136
      13A     -1.014678    14A     -0.943235    15A     -0.870508
      16A     -0.816592    17A     -0.791629    18A     -0.786677
      19A     -0.664113    20A     -0.662991    21A     -0.633903
      22A     -0.620900    23A     -0.602089    24A     -0.597374
      25A     -0.567729    26A     -0.554191    27A     -0.536446
      28A     -0.521867    29A     -0.511230    30A     -0.497299
      31A     -0.486676    32A     -0.480374    33A     -0.464276
      34A     -0.457496    35A     -0.440717    36A     -0.409571

  @DF-RHF Final Energy:  -387.11757034493883

   => Energetics <=

    Nuclear Repulsion Energy =            436.8948116778309441
    One-Electron Energy =               -1390.1182365459746961
    Two-Electron Energy =                 566.1058545232049255
    DFT Exchange-Correlation Energy =       0.0000000000000000
    Empirical Dispersion Energy =           0.0000000000000000
    PCM Polarization Energy =               0.0000000000000000
    EFP Energy =                            0.0000000000000000
    Total Energy =                       -387.1175703449388266

  Mulliken Charges: (a.u.)
   Center  Symbol    Alpha    Beta     Spin     Total
       1     H     0.43261  0.43261  0.00000  0.13478
       2     C     2.83085  2.83085  0.00000  0.33831
       3     C     3.20805  3.20805  0.00000 -0.41610
       4     O     4.23774  4.23774  0.00000 -0.47547
       5     C     3.16663  3.16663  0.00000 -0.33325
       6     H     0.39968  0.39968  0.00000  0.20064
       7     H     0.40669  0.40669  0.00000  0.18663
       8     C     3.15583  3.15583  0.00000 -0.31165
       9     H     0.41284  0.41284  0.00000  0.17432
      10     H     0.41965  0.41965  0.00000  0.16071
      11     C     3.15469  3.15469  0.00000 -0.30937
      12     H     0.41789  0.41789  0.00000  0.16421
      13     H     0.41815  0.41815  0.00000  0.16371
      14     C     3.15523  3.15523  0.00000 -0.31046
      15     H     0.42197  0.42197  0.00000  0.15607
      16     H     0.42322  0.42322  0.00000  0.15355
      17     C     3.15519  3.15519  0.00000 -0.31038
      18     H     0.42004  0.42004  0.00000  0.15992
      19     H     0.41970  0.41970  0.00000  0.16060
      20     C     3.24025  3.24025  0.00000 -0.48049
      21     H     0.42085  0.42085  0.00000  0.15831
      22     H     0.41979  0.41979  0.00000  0.16043
      23     H     0.42234  0.42234  0.00000  0.15533
      24     H     0.42011  0.42011  0.00000  0.15978
      25     H     0.42005  0.42005  0.00000  0.15990

   Total alpha = 36.00000, Total beta = 36.00000, Total charge =  0.00000
