  ==> Input File <==

--------------------------------------------------------------------------
set {
	reference rhf
	basis cc-pvtz
}

set_num_threads( 4 )
memory 2 gb

molecule MOL {
0 1

H	 1.442530	 -1.411439	 0.577143
O	 1.583947	 -0.677544	 -0.001533
C	 0.489979	 0.078084	 0.002623
C	 -0.763662	 -0.754014	 0.000816
O	 0.539051	 1.259395	 -0.000088
C	 -2.038001	 0.074705	 -0.000833
H	 -0.712945	 -1.405886	 -0.864342
H	 -0.715137	 -1.405770	 0.866182
H	 -2.087267	 0.710831	 -0.874232
H	 -2.903419	 -0.576199	 -0.001922
H	 -2.089467	 0.710909	 0.872389

	symmetry c1
}
set optking {
	frozen_dihedral = ("
		1 2 3 5
	")
}

ee = optimize('scf')
oeprop('DIPOLE', 'QUADRUPOLE', 'MULLIKEN_CHARGES')
f=open( 'psi4out.xyz', 'w' )
f.write( "11  " )
f.write( str(ee) + "\n" )
f.write( MOL.save_string_xyz() )
f.close()
--------------------------------------------------------------------------

    Molecular point group: c1
  Charge       = 0
  Multiplicity = 1
  Basis Set: CC-PVTZ
  Basis Set:
  @DF-RHF Final Energy:  -266.93775804965634
    Total Energy =                       -266.9377580496563951
    Molecular point group: c1
  Basis Set: CC-PVTZ
  Basis Set:
  Basis Set: CC-PVTZ
  Basis Set:
  @DF-RHF Final Energy:  -266.93896139443729
    Total Energy =                       -266.9389613944372854
  Basis Set: CC-PVTZ
  Basis Set:
  Basis Set: CC-PVTZ
  Basis Set:
  @DF-RHF Final Energy:  -266.93909340129426
    Total Energy =                       -266.9390934012944854
  Basis Set: CC-PVTZ
  Basis Set:
  Basis Set: CC-PVTZ
  Basis Set:
  @DF-RHF Final Energy:  -266.93917465984543
    Total Energy =                       -266.9391746598456052
  Basis Set: CC-PVTZ
  Basis Set:
  Basis Set: CC-PVTZ
  Basis Set:
  @DF-RHF Final Energy:  -266.93919696670469
    Total Energy =                       -266.9391969667046851
  Basis Set: CC-PVTZ
  Basis Set:
  Charge       = 0
  Multiplicity = 1
  Basis Set: CC-PVTZ
  Basis Set:

    Orbital Energies (a.u.)
    -----------------------

    Doubly Occupied:

       1A    -20.598271     2A    -20.543269     3A    -11.374190
       4A    -11.251673     5A    -11.223451     6A     -1.468825
       7A     -1.374501     8A     -1.068601     9A     -0.909456
      10A     -0.825887    11A     -0.719026    12A     -0.671653
      13A     -0.662000    14A     -0.617489    15A     -0.585511
      16A     -0.534165    17A     -0.525954    18A     -0.511581
      19A     -0.487416    20A     -0.447299

  @DF-RHF Final Energy:  -266.93919749883241

   => Energetics <=

    Nuclear Repulsion Energy =            179.8177218166719911
    One-Electron Energy =                -720.7134009869503188
    Two-Electron Energy =                 273.9564816714457720
    DFT Exchange-Correlation Energy =       0.0000000000000000
    Empirical Dispersion Energy =           0.0000000000000000
    PCM Polarization Energy =               0.0000000000000000
    EFP Energy =                            0.0000000000000000
    Total Energy =                       -266.9391974988325273
    Molecular point group: c1
  Basis Set: CC-PVTZ
  Basis Set:

  -Total Gradient:
     Atom            X                  Y                   Z
    ------   -----------------  -----------------  -----------------
       1        0.002338442956     0.003782996348     0.005243746118
       2       -0.003001618069    -0.004756298028    -0.003978768870
       3        0.000729409295     0.000866391033    -0.007221110426
       4        0.000006286290    -0.000002030331    -0.000080891041
       5       -0.000076014551     0.000106706624     0.005967405106
       6        0.000001598375     0.000003850706     0.000024610446
       7       -0.000007714901    -0.000006196983     0.000026544186
       8        0.000002853002     0.000007862908     0.000036854199
       9       -0.000001335703     0.000000319799    -0.000005817832
      10        0.000003949473    -0.000002085331    -0.000006896866
      11        0.000004143830    -0.000001516741    -0.000005675019

  **** Optimization is complete! (in 6 steps) ****
    Final optimized geometry and variables:
    Molecular point group: c1

    Geometry (in Angstrom), charge = 0, multiplicity = 1:

    H            1.565068160150    -1.386047943081     0.581199374192
    O            1.632683034712    -0.639641564534     0.011039263156
    C            0.498712829791     0.082625319086    -0.008311243255
    C           -0.770577327188    -0.737365637537    -0.012315383042
    O            0.539068553011     1.256436452588    -0.022591114588
    C           -2.036976823173     0.103414797388    -0.008293749844
    H           -0.730499003724    -1.384722318391    -0.882135235569
    H           -0.744674837841    -1.396476163487     0.852285576954
    H           -2.076011543250     0.744352902353    -0.878220493050
    H           -2.910059765992    -0.537338868845    -0.013489296025
    H           -2.080118645924     0.735788449257     0.868046302863

  Mulliken Charges: (a.u.)
   Center  Symbol    Alpha    Beta     Spin     Total
       1     H     0.38813  0.38813  0.00000  0.22374
       2     O     4.15531  4.15531  0.00000 -0.31062
       3     C     2.80639  2.80639  0.00000  0.38721
       4     C     3.11023  3.11023  0.00000 -0.22046
       5     O     4.16786  4.16786  0.00000 -0.33571
       6     C     3.14000  3.14000  0.00000 -0.28001
       7     H     0.43703  0.43703  0.00000  0.12595
       8     H     0.45332  0.45332  0.00000  0.09336
       9     H     0.44449  0.44449  0.00000  0.11102
      10     H     0.45033  0.45033  0.00000  0.09935
      11     H     0.44692  0.44692  0.00000  0.10617

   Total alpha = 20.00000, Total beta = 20.00000, Total charge =  0.00000
