                              Psi4 1.0.54 Driver

  ==> Input File <==

--------------------------------------------------------------------------
set {
	reference rhf
	basis cc-pvtz
}

set_num_threads( 4 )
memory 2 gb

molecule MOL {
0 1

H	 -3.294565	 0.569785	 0.000000
C	 -2.246225	 0.343737	 0.000000
C	 -1.809462	 -0.973484	 0.000000
C	 -1.312577	 1.353775	 0.000000
H	 -2.523539	 -1.775124	 0.000000
C	 -0.467257	 -1.267606	 0.000000
H	 -1.631287	 2.379013	 0.000000
C	 0.046966	 1.074396	 0.000000
H	 -0.119372	 -2.281828	 0.000000
C	 0.471772	 -0.241514	 0.000000
H	 0.748162	 1.882966	 0.000000
O	 1.760432	 -0.625184	 0.000000
C	 2.129679	 -1.827784	 -0.604622
H	 1.645650	 -2.675429	 -0.132477
H	 3.197107	 -1.917163	 -0.478224
H	 1.897941	 -1.828039	 -1.663869

	symmetry c1
}
set optking {
	frozen_dihedral = ("
		13 12 10 8
	")
}

ee,wfn = optimize('scf', return_wfn=True)
oeprop( wfn, 'DIPOLE', 'QUADRUPOLE', 'MULLIKEN_CHARGES')
f=open( 'psi4out.xyz', 'w' )
f.write( "16  " )
f.write( str(ee) + "\n" )
f.write( MOL.save_string_xyz() )
f.close()
--------------------------------------------------------------------------

    Molecular point group: c1
  Charge       = 0
  Multiplicity = 1
  Basis Set: CC-PVTZ
  Basis Set:
  @DF-RHF Final Energy:  -344.69446855432784
    Total Energy =                       -344.6944685543277274
    Molecular point group: c1
  Basis Set: CC-PVTZ
  Basis Set:
  Basis Set: CC-PVTZ
  Basis Set:
  @DF-RHF Final Energy:  -344.20525905592268
    Total Energy =                       -344.2052590559227383
  Basis Set: CC-PVTZ
  Basis Set:
  Basis Set: CC-PVTZ
  Basis Set:
  @DF-RHF Final Energy:  -344.41778734642389
    Total Energy =                       -344.4177873464241202
  Basis Set: CC-PVTZ
  Basis Set:
  Basis Set: CC-PVTZ
  Basis Set:
  @DF-RHF Final Energy:  -344.62640257186490
    Total Energy =                       -344.6264025718649577
  Basis Set: CC-PVTZ
  Basis Set:
  @DF-RHF Final Energy:  -344.69646728175712
    Total Energy =                       -344.6964672817574069
  Basis Set: CC-PVTZ
  Basis Set:
  @DF-RHF Final Energy:  -344.70135223060822
    Total Energy =                       -344.7013522306082223
  Basis Set: CC-PVTZ
  Basis Set:
  Basis Set: CC-PVTZ
  Basis Set:
  @DF-RHF Final Energy:  -344.70234546318949
    Total Energy =                       -344.7023454631897721
  Basis Set: CC-PVTZ
  Basis Set:
  Basis Set: CC-PVTZ
  Basis Set:
  @DF-RHF Final Energy:  -344.70241251672445
    Total Energy =                       -344.7024125167243938
  Basis Set: CC-PVTZ
  Basis Set:
  Charge       = 0
  Multiplicity = 1
  Basis Set: CC-PVTZ
  Basis Set:

    Orbital Energies (a.u.)
    -----------------------

    Doubly Occupied:

       1A    -20.576265     2A    -11.291626     3A    -11.277563
       4A    -11.231635     5A    -11.230309     6A    -11.222843
       7A    -11.218944     8A    -11.218687     9A     -1.415312
      10A     -1.151481    11A     -1.024496    12A     -1.017202
      13A     -0.942117    14A     -0.835605    15A     -0.808877
      16A     -0.723859    17A     -0.668109    18A     -0.666994
      19A     -0.655865    20A     -0.618303    21A     -0.592182
      22A     -0.582180    23A     -0.530239    24A     -0.519347
      25A     -0.510655    26A     -0.483544    27A     -0.458895
      28A     -0.339848    29A     -0.313391

  @DF-RHF Final Energy:  -344.70241816898982

   => Energetics <=

    Nuclear Repulsion Energy =            348.8000444933696258
    One-Electron Energy =               -1158.7521786659283407
    Two-Electron Energy =                 465.2497160035689490
    DFT Exchange-Correlation Energy =       0.0000000000000000
    Empirical Dispersion Energy =           0.0000000000000000
    PCM Polarization Energy =               0.0000000000000000
    EFP Energy =                            0.0000000000000000
    Total Energy =                       -344.7024181689898228
    Molecular point group: c1
  Basis Set: CC-PVTZ
  Basis Set:

  -Total Gradient:
     Atom            X                  Y                   Z
    ------   -----------------  -----------------  -----------------
       1       -0.000066826452    -0.000006120090     0.000059886572
       2        0.000179417806     0.000283079941    -0.000043652103
       3        0.000102175866    -0.000116942215    -0.000267699140
       4       -0.000237320639    -0.000137265373     0.000155030440
       5        0.000018931738    -0.000050505601     0.000011012496
       6       -0.000202676346    -0.000109035151     0.000227724270
       7        0.000040852895     0.000027466471    -0.000031651106
       8       -0.001161529362    -0.000271258465    -0.001413111023
       9        0.000025447852    -0.000029492737    -0.000017037946
      10        0.001365718437     0.000881309063     0.001291620427
      11       -0.000005085513     0.000060581753     0.000028038917
      12        0.001075991166    -0.001413511376     0.001224699369
      13       -0.001164745327     0.000978017565    -0.001167272936
      14        0.000009389266    -0.000048058502     0.000105095154
      15        0.000074491788    -0.000011746581    -0.000142379837
      16       -0.000054233173    -0.000036518703    -0.000020303555

  **** Optimization is complete! (in 9 steps) ****
    Final optimized geometry and variables:
    Molecular point group: c1

    Geometry (in Angstrom), charge = 0, multiplicity = 1:

    H           -2.241754409005     0.377196728458     2.446359792205
    C           -1.500158136712     0.296117253737     1.675600763217
    C           -1.066850998302    -0.941061137708     1.249862389560
    C           -0.966622560380     1.433057444808     1.091589621297
    H           -1.470550025111    -1.832382139692     1.691760232447
    C           -0.108828666607    -1.057089167921     0.256357920072
    H           -1.296913509476     2.404453338249     1.407465639134
    C           -0.018247958992     1.332603189338     0.097972836752
    H            0.217102645915    -2.029053361136    -0.054318984492
    C            0.421300996959     0.084495322568    -0.318517336277
    H            0.398303919165     2.206230297166    -0.363587860248
    O            1.369107255013     0.066264738078    -1.277519708448
    C            1.419326315501    -1.008470960928    -2.171438393889
    H            1.823174236445    -1.900330743103    -1.705991294168
    H            2.076021639949    -0.710847086178    -2.974514715962
    H            0.437282587431    -1.229748285489    -2.573846466690

  Mulliken Charges: (a.u.)
   Center  Symbol    Alpha    Beta     Spin     Total
       1     H     0.42423  0.42423  0.00000  0.15154
       2     C     3.09765  3.09765  0.00000 -0.19529
       3     C     3.06167  3.06167  0.00000 -0.12333
       4     C     3.06038  3.06038  0.00000 -0.12075
       5     H     0.42306  0.42306  0.00000  0.15388
       6     C     3.13148  3.13148  0.00000 -0.26295
       7     H     0.42273  0.42273  0.00000  0.15454
       8     C     3.11062  3.11062  0.00000 -0.22125
       9     H     0.42289  0.42289  0.00000  0.15423
      10     C     2.85823  2.85823  0.00000  0.28353
      11     H     0.41964  0.41964  0.00000  0.16072
      12     O     4.15875  4.15875  0.00000 -0.31750
      13     C     3.04535  3.04535  0.00000 -0.09070
      14     H     0.46179  0.46179  0.00000  0.07641
      15     H     0.44065  0.44065  0.00000  0.11871
      16     H     0.46089  0.46089  0.00000  0.07821

   Total alpha = 29.00000, Total beta = 29.00000, Total charge =  0.00000

*** Psi4 exiting successfully. Buy a developer a beer!
