  ==> Input File <==

--------------------------------------------------------------------------
set {
	reference rhf
	basis 6-31G*
}

set_num_threads( 1 )
memory 2 gb

molecule MOL {
0 1

H	 -3.191253	 1.184170	 -1.102837
O	 -3.452007	 0.283848	 -0.965577
C	 -3.181085	 -0.079926	 0.364119
C	 -1.765924	 0.277073	 0.805136
H	 -3.327791	 -1.152017	 0.410903
H	 -3.905698	 0.375695	 1.036898
C	 -0.677594	 -0.417312	 -0.014550
H	 -1.637766	 1.358238	 0.744969
H	 -1.659588	 0.017670	 1.857098
C	 0.738335	 -0.034840	 0.421385
H	 -0.814977	 -0.178223	 -1.064632
H	 -0.802730	 -1.495410	 0.071702
C	 1.822265	 -0.738362	 -0.399735
H	 0.853533	 1.043532	 0.342250
H	 0.871597	 -0.279636	 1.474438
C	 3.258060	 -0.455774	 0.057203
H	 1.718003	 -0.459167	 -1.447053
H	 1.651028	 -1.811884	 -0.354513
C	 3.709143	 0.994797	 -0.123830
H	 3.930637	 -1.101717	 -0.501982
H	 3.365259	 -0.739518	 1.102287
H	 3.601178	 1.310569	 -1.158127
H	 4.753787	 1.110486	 0.148516
H	 3.135362	 1.678896	 0.492569

	symmetry c1
}
set optking {
	frozen_dihedral = ("
		20 16 13 17,
		17 13 10 7,
		13 10 7 11,
		11 7 4 3,
		7 4 3 2
	")
}

ee = energy('scf')
oeprop('DIPOLE', 'QUADRUPOLE', 'MULLIKEN_CHARGES')
f=open( 'psi4out.xyz', 'w' )
f.write( "24  " )
f.write( str(ee) + "\n" )
f.write( MOL.save_string_xyz() )
f.close()
--------------------------------------------------------------------------

    Molecular point group: c1

    Geometry (in Angstrom), charge = 0, multiplicity = 1:

       Center              X                  Y                   Z               Mass
    ------------   -----------------  -----------------  -----------------  -----------------
           H         -3.193244507577     1.184545273225    -1.102328570390     1.007825032070
           O         -3.453998507577     0.284223273225    -0.965068570390    15.994914619560
           C         -3.183076507577    -0.079550726775     0.364627429610    12.000000000000
           C         -1.767915507577     0.277448273225     0.805644429610    12.000000000000
           H         -3.329782507577    -1.151641726775     0.411411429610     1.007825032070
           H         -3.907689507577     0.376070273225     1.037406429610     1.007825032070
           C         -0.679585507577    -0.416936726775    -0.014041570390    12.000000000000
           H         -1.639757507577     1.358613273225     0.745477429610     1.007825032070
           H         -1.661579507577     0.018045273225     1.857606429610     1.007825032070
           C          0.736343492423    -0.034464726775     0.421893429610    12.000000000000
           H         -0.816968507577    -0.177847726775    -1.064123570390     1.007825032070
           H         -0.804721507577    -1.495034726775     0.072210429610     1.007825032070
           C          1.820273492423    -0.737986726775    -0.399226570390    12.000000000000
           H          0.851541492423     1.043907273225     0.342758429610     1.007825032070
           H          0.869605492423    -0.279260726775     1.474946429610     1.007825032070
           C          3.256068492423    -0.455398726775     0.057711429610    12.000000000000
           H          1.716011492423    -0.458791726775    -1.446544570390     1.007825032070
           H          1.649036492423    -1.811508726775    -0.354004570390     1.007825032070
           C          3.707151492423     0.995172273225    -0.123321570390    12.000000000000
           H          3.928645492423    -1.101341726775    -0.501473570390     1.007825032070
           H          3.363267492423    -0.739142726775     1.102795429610     1.007825032070
           H          3.599186492423     1.310944273225    -1.157618570390     1.007825032070
           H          4.751795492423     1.110861273225     0.149024429610     1.007825032070
           H          3.133370492423     1.679271273225     0.493077429610     1.007825032070

  Charge       = 0
  Multiplicity = 1
  Basis Set: 6-31G*
  Basis Set:

    Orbital Energies (a.u.)
    -----------------------

    Doubly Occupied:

       1A    -20.552939     2A    -11.267378     3A    -11.220159
       4A    -11.215183     5A    -11.214376     6A    -11.213732
       7A    -11.213025     8A    -11.208383     9A     -1.359818
      10A     -1.090362    11A     -1.049751    12A     -0.986732
      13A     -0.916313    14A     -0.852432    15A     -0.802962
      16A     -0.777743    17A     -0.672005    18A     -0.655626
      19A     -0.628771    20A     -0.622484    21A     -0.600612
      22A     -0.586012    23A     -0.558567    24A     -0.541454
      25A     -0.515252    26A     -0.512216    27A     -0.499455
      28A     -0.474112    29A     -0.467299    30A     -0.462646
      31A     -0.454732    32A     -0.453126    33A     -0.420047

  @DF-RHF Final Energy:  -349.24723860978412

   => Energetics <=

    Nuclear Repulsion Energy =            384.7167887116892757
    One-Electron Energy =               -1235.7964474860773407
    Two-Electron Energy =                 501.8324201646041729
    DFT Exchange-Correlation Energy =       0.0000000000000000
    Empirical Dispersion Energy =           0.0000000000000000
    PCM Polarization Energy =               0.0000000000000000
    EFP Energy =                            0.0000000000000000
    Total Energy =                       -349.2472386097838353

  Mulliken Charges: (a.u.)
   Center  Symbol    Alpha    Beta     Spin     Total
       1     H     0.28350  0.28350  0.00000  0.43300
       2     O     4.36955  4.36955  0.00000 -0.73910
       3     C     2.99018  2.99018  0.00000  0.01964
       4     C     3.17615  3.17615  0.00000 -0.35229
       5     H     0.41715  0.41715  0.00000  0.16571
       6     H     0.42778  0.42778  0.00000  0.14443
       7     C     3.15105  3.15105  0.00000 -0.30211
       8     H     0.42789  0.42789  0.00000  0.14423
       9     H     0.42036  0.42036  0.00000  0.15929
      10     C     3.15360  3.15360  0.00000 -0.30721
      11     H     0.41458  0.41458  0.00000  0.17084
      12     H     0.42237  0.42237  0.00000  0.15526
      13     C     3.15230  3.15230  0.00000 -0.30460
      14     H     0.42301  0.42301  0.00000  0.15399
      15     H     0.42491  0.42491  0.00000  0.15018
      16     C     3.15238  3.15238  0.00000 -0.30477
      17     H     0.42370  0.42370  0.00000  0.15259
      18     H     0.42181  0.42181  0.00000  0.15637
      19     C     3.24112  3.24112  0.00000 -0.48224
      20     H     0.42082  0.42082  0.00000  0.15835
      21     H     0.42360  0.42360  0.00000  0.15279
      22     H     0.42230  0.42230  0.00000  0.15540
      23     H     0.41928  0.41928  0.00000  0.16144
      24     H     0.42060  0.42060  0.00000  0.15881

   Total alpha = 33.00000, Total beta = 33.00000, Total charge = -0.00000
