                              Psi4 1.0.54 Driver

  ==> Input File <==

--------------------------------------------------------------------------
set {
	reference rhf
	basis cc-pvtz
}

set_num_threads( 4 )
memory 2 gb

molecule MOL {
0 1

H	 -3.144994	 -1.202467	 -0.018751
O	 -2.321472	 -0.864941	 -0.318626
C	 -2.021813	 0.336996	 0.342658
C	 -0.669613	 0.837286	 -0.127252
H	 -2.780861	 1.084746	 0.127159
H	 -2.006390	 0.184138	 1.420053
C	 0.490865	 -0.082543	 0.241244
H	 -0.708709	 0.967192	 -1.204587
H	 -0.507562	 1.822272	 0.303070
C	 1.839800	 0.429565	 -0.255472
H	 0.305636	 -1.070211	 -0.165276
H	 0.527397	 -0.195943	 1.322876
C	 2.803416	 0.770226	 0.876421
H	 2.292185	 -0.320136	 -0.898899
H	 1.687211	 1.309724	 -0.874929
H	 3.003704	 -0.099346	 1.493385
H	 3.751528	 1.128604	 0.491773
H	 2.394483	 1.542623	 1.519556

	symmetry c1
}
set optking {
	frozen_dihedral = ("
		14 10 7 11
	")
}

ee,wfn = optimize('scf', return_wfn=True)
oeprop( wfn, 'DIPOLE', 'QUADRUPOLE', 'MULLIKEN_CHARGES')
f=open( 'psi4out.xyz', 'w' )
f.write( "18  " )
f.write( str(ee) + "\n" )
f.write( MOL.save_string_xyz() )
f.close()
--------------------------------------------------------------------------

    Molecular point group: c1
  Charge       = 0
  Multiplicity = 1
  Basis Set: CC-PVTZ
  Basis Set:
  @DF-RHF Final Energy:  -271.28094695400455
    Total Energy =                       -271.2809469540044915
    Molecular point group: c1
  Basis Set: CC-PVTZ
  Basis Set:
  Basis Set: CC-PVTZ
  Basis Set:
  @DF-RHF Final Energy:  -271.28120408830114
    Total Energy =                       -271.2812040883013651
  Basis Set: CC-PVTZ
  Basis Set:
  Basis Set: CC-PVTZ
  Basis Set:
  @DF-RHF Final Energy:  -271.28127649869111
    Total Energy =                       -271.2812764986911134
  Basis Set: CC-PVTZ
  Basis Set:
  Charge       = 0
  Multiplicity = 1
  Basis Set: CC-PVTZ
  Basis Set:

    Orbital Energies (a.u.)
    -----------------------

    Doubly Occupied:

       1A    -20.546229     2A    -11.265785     3A    -11.211059
       4A    -11.208959     5A    -11.204748     6A    -11.204347
       7A     -1.364116     8A     -1.074506     9A     -1.009458
      10A     -0.914387    11A     -0.821914    12A     -0.783587
      13A     -0.708345    14A     -0.639076    15A     -0.618679
      16A     -0.598943    17A     -0.573473    18A     -0.551828
      19A     -0.521603    20A     -0.506559    21A     -0.494785
      22A     -0.465647    23A     -0.453075    24A     -0.449038
      25A     -0.430770

  @DF-RHF Final Energy:  -271.28127688769439

   => Energetics <=

    Nuclear Repulsion Energy =            249.5630406974400159
    One-Electron Energy =                -862.4467920258202867
    Two-Electron Energy =                 341.6024744406859668
    DFT Exchange-Correlation Energy =       0.0000000000000000
    Empirical Dispersion Energy =           0.0000000000000000
    PCM Polarization Energy =               0.0000000000000000
    EFP Energy =                            0.0000000000000000
    Total Energy =                       -271.2812768876943323
    Molecular point group: c1
  Basis Set: CC-PVTZ
  Basis Set:

  -Total Gradient:
     Atom            X                  Y                   Z
    ------   -----------------  -----------------  -----------------
       1        0.000000366669    -0.000001000215     0.000000615661
       2       -0.000032296778     0.000028011196     0.000002185965
       3        0.000016597296    -0.000011700486     0.000041338908
       4        0.000011495260    -0.000003592418    -0.000024410187
       5       -0.000020026640    -0.000025304004    -0.000007666690
       6       -0.000020232344    -0.000006956412    -0.000003339015
       7       -0.000485573210     0.000506344930    -0.000966638573
       8        0.000017961510     0.000005969741    -0.000007666808
       9        0.000008497013    -0.000012087145    -0.000004581401
      10        0.000495666723    -0.000515822156     0.000963539171
      11        0.000341805161    -0.000319216685     0.000654525355
      12       -0.000002153414     0.000005056218    -0.000006112270
      13        0.000015366528     0.000007237429     0.000002605659
      14       -0.000342641064     0.000348517681    -0.000635788457
      15        0.000006305366    -0.000001613198     0.000013950441
      16       -0.000013398846     0.000000836459    -0.000008153184
      17        0.000005593497     0.000000611034    -0.000004907501
      18       -0.000003332730    -0.000005291967    -0.000009497073

  **** Optimization is complete! (in 4 steps) ****
    Final optimized geometry and variables:
    Molecular point group: c1

    Geometry (in Angstrom), charge = 0, multiplicity = 1:

    H           -3.129137986851    -1.397044841434    -0.145020948322
    O           -2.302947042279    -1.068955010768    -0.447742462615
    C           -1.990585058266     0.133028523258     0.207512775204
    C           -0.635984379564     0.619712532952    -0.269117572625
    H           -2.744002850968     0.886382348678    -0.008472555429
    H           -1.972640228713    -0.015483574862     1.285471350199
    C            0.519475160004    -0.309342638175     0.096527883795
    H           -0.676780165159     0.747545441268    -1.346519538473
    H           -0.462315269311     1.604293921796     0.158279416261
    C            1.893622392545     0.209644158711    -0.374720033629
    H            0.326157523962    -1.290324965214    -0.316594685947
    H            0.533396152253    -0.438302646956     1.175723119215
    C            2.842379043981     0.554197285512     0.769666459320
    H            2.364268689043    -0.525503335586    -1.018157855453
    H            1.755933859469     1.092226704570    -0.991931140772
    H            3.050586289865    -0.318283649883     1.379866374409
    H            3.788182707432     0.932384162394     0.397931082968
    H            2.413844883457     1.312803957616     1.417040545238

  Mulliken Charges: (a.u.)
   Center  Symbol    Alpha    Beta     Spin     Total
       1     H     0.39575  0.39575  0.00000  0.20850
       2     O     4.19865  4.19865  0.00000 -0.39731
       3     C     2.97435  2.97435  0.00000  0.05131
       4     C     3.09071  3.09071  0.00000 -0.18142
       5     H     0.46558  0.46558  0.00000  0.06884
       6     H     0.47357  0.47357  0.00000  0.05286
       7     C     3.09523  3.09523  0.00000 -0.19047
       8     H     0.45134  0.45134  0.00000  0.09731
       9     H     0.45381  0.45381  0.00000  0.09239
      10     C     3.08882  3.08882  0.00000 -0.17765
      11     H     0.43950  0.43950  0.00000  0.12099
      12     H     0.45935  0.45935  0.00000  0.08130
      13     C     3.14725  3.14725  0.00000 -0.29450
      14     H     0.44897  0.44897  0.00000  0.10206
      15     H     0.45589  0.45589  0.00000  0.08821
      16     H     0.45464  0.45464  0.00000  0.09073
      17     H     0.45001  0.45001  0.00000  0.09999
      18     H     0.45657  0.45657  0.00000  0.08686

   Total alpha = 25.00000, Total beta = 25.00000, Total charge = -0.00000

*** Psi4 exiting successfully. Buy a developer a beer!
