  ==> Input File <==

--------------------------------------------------------------------------
set {
	reference rhf
	basis cc-pvtz
}

set_num_threads( 4 )
memory 2 gb

molecule MOL {
0 1

O	 0.126704	 0.793882	 0.941105
C	 0.485107	 0.171416	 -0.000134
C	 1.606966	 -0.836201	 0.000174
O	 -0.063172	 0.281308	 -1.197589
C	 2.988788	 -0.202529	 -0.000115
H	 1.465110	 -1.474645	 -0.864821
H	 1.465209	 -1.474077	 0.865596
H	 3.131767	 0.419673	 -0.873407
H	 3.750876	 -0.972315	 0.000098
H	 3.131883	 0.420264	 0.872742
C	 -1.138238	 1.196939	 -1.352960
C	 -1.586729	 1.142073	 -2.794603
H	 -0.801093	 2.186869	 -1.079613
H	 -1.936588	 0.921929	 -0.678178
H	 -0.779059	 1.418327	 -3.460730
H	 -2.408717	 1.831257	 -2.948209
H	 -1.921082	 0.146221	 -3.057008

	symmetry c1
}
set optking {
	frozen_dihedral = ("
		4 2 3 6
	")
}

ee = optimize('scf')
oeprop('DIPOLE', 'QUADRUPOLE', 'MULLIKEN_CHARGES')
f=open( 'psi4out.xyz', 'w' )
f.write( "17  " )
f.write( str(ee) + "\n" )
f.write( MOL.save_string_xyz() )
f.close()
--------------------------------------------------------------------------

    Molecular point group: c1
  Charge       = 0
  Multiplicity = 1
  Basis Set: CC-PVTZ
  Basis Set:
  @DF-RHF Final Energy:  -345.03811907209183
    Total Energy =                       -345.0381190720916038
    Molecular point group: c1
  Basis Set: CC-PVTZ
  Basis Set:
  Basis Set: CC-PVTZ
  Basis Set:
  @DF-RHF Final Energy:  -345.03855350302928
    Total Energy =                       -345.0385535030300161
  Basis Set: CC-PVTZ
  Basis Set:
  Basis Set: CC-PVTZ
  Basis Set:
  @DF-RHF Final Energy:  -345.03749441632766
    Total Energy =                       -345.0374944163283430
  Basis Set: CC-PVTZ
  Basis Set:
  Basis Set: CC-PVTZ
  Basis Set:
  @DF-RHF Final Energy:  -345.03889136742276
    Total Energy =                       -345.0388913674227069
  Basis Set: CC-PVTZ
  Basis Set:
  Basis Set: CC-PVTZ
  Basis Set:
  @DF-RHF Final Energy:  -345.03889882793425
    Total Energy =                       -345.0388988279343039
  Basis Set: CC-PVTZ
  Basis Set:
  Charge       = 0
  Multiplicity = 1
  Basis Set: CC-PVTZ
  Basis Set:

    Orbital Energies (a.u.)
    -----------------------

    Doubly Occupied:

       1A    -20.595528     2A    -20.530107     3A    -11.362726
       4A    -11.282618     5A    -11.234314     6A    -11.223600
       7A    -11.220619     8A     -1.470534     9A     -1.363510
      10A     -1.072330    11A     -1.032858    12A     -0.909684
      13A     -0.853298    14A     -0.778987    15A     -0.696757
      16A     -0.686892    17A     -0.669836    18A     -0.617325
      19A     -0.601162    20A     -0.576032    21A     -0.554982
      22A     -0.537627    23A     -0.527029    24A     -0.510199
      25A     -0.502534    26A     -0.496675    27A     -0.454937
      28A     -0.435253

  @DF-RHF Final Energy:  -345.03889905856840

   => Energetics <=

    Nuclear Repulsion Energy =            316.3845047806639741
    One-Electron Energy =               -1097.2509070728149254
    Two-Electron Energy =                 435.8275032335824335
    DFT Exchange-Correlation Energy =       0.0000000000000000
    Empirical Dispersion Energy =           0.0000000000000000
    PCM Polarization Energy =               0.0000000000000000
    EFP Energy =                            0.0000000000000000
    Total Energy =                       -345.0388990585685178
    Molecular point group: c1
  Basis Set: CC-PVTZ
  Basis Set:

  -Total Gradient:
     Atom            X                  Y                   Z
    ------   -----------------  -----------------  -----------------
       1        0.000006266500    -0.000030677367    -0.000048810440
       2        0.000242573006     0.000264106817     0.000006147440
       3       -0.000207844774    -0.000244479068     0.000188963288
       4       -0.000194731553    -0.000132850413    -0.000000221834
       5       -0.000023486317    -0.000013594320    -0.000005239970
       6        0.000151053394     0.000168909960    -0.000127384986
       7        0.000001971415    -0.000004976743    -0.000000690882
       8        0.000004541681     0.000005208326    -0.000002162197
       9        0.000008362565    -0.000004642653     0.000001630374
      10       -0.000002911570    -0.000003133188    -0.000003073167
      11        0.000039736348    -0.000005350315    -0.000004761780
      12       -0.000009258219     0.000003916963    -0.000002103543
      13       -0.000010225421    -0.000000690313    -0.000004680783
      14       -0.000008437661     0.000000586371     0.000005487417
      15        0.000001561511     0.000000291050    -0.000001662709
      16        0.000001184936    -0.000001680636    -0.000000018553
      17       -0.000000355843    -0.000000944472    -0.000001417675

  **** Optimization is complete! (in 6 steps) ****
    Final optimized geometry and variables:
    Molecular point group: c1

    Geometry (in Angstrom), charge = 0, multiplicity = 1:

    O           -0.198932398800     0.389027880354     1.577091894569
    C            0.141843671870    -0.236781935944     0.630402597410
    C            1.266221722150    -1.241554380181     0.644827282738
    O           -0.408926120854    -0.108797195340    -0.563018749332
    C            2.624650537843    -0.536301938245     0.631145155589
    H            1.174688212291    -1.900565961396    -0.206520343192
    H            1.163937439522    -1.823478817822     1.550843623921
    H            2.750335502831     0.050740422425    -0.271065904747
    H            3.423897296391    -1.265444942903     0.669237514094
    H            2.722411150100     0.122455013685     1.483810239918
    C           -1.456083911813     0.840697124380    -0.709742083061
    C           -1.916381893512     0.802067615464    -2.148189757462
    H           -1.085828668235     1.818816376112    -0.436922198247
    H           -2.257105040468     0.589273872127    -0.029176817891
    H           -1.105391695334     1.053849981236    -2.820000392213
    H           -2.717316477708     1.517034615687    -2.294826624703
    H           -2.283957045500    -0.182310659274    -2.409431949222

  Mulliken Charges: (a.u.)
   Center  Symbol    Alpha    Beta     Spin     Total
       1     O     4.20496  4.20496  0.00000 -0.40991
       2     C     2.80543  2.80543  0.00000  0.38914
       3     C     3.08384  3.08384  0.00000 -0.16767
       4     O     4.15184  4.15184  0.00000 -0.30368
       5     C     3.14887  3.14887  0.00000 -0.29774
       6     H     0.44301  0.44301  0.00000  0.11397
       7     H     0.44213  0.44213  0.00000  0.11573
       8     H     0.45186  0.45186  0.00000  0.09628
       9     H     0.44837  0.44837  0.00000  0.10325
      10     H     0.44344  0.44344  0.00000  0.11313
      11     C     2.97851  2.97851  0.00000  0.04298
      12     C     3.13319  3.13319  0.00000 -0.26638
      13     H     0.45407  0.45407  0.00000  0.09186
      14     H     0.45331  0.45331  0.00000  0.09338
      15     H     0.45162  0.45162  0.00000  0.09675
      16     H     0.45427  0.45427  0.00000  0.09147
      17     H     0.45127  0.45127  0.00000  0.09745

   Total alpha = 28.00000, Total beta = 28.00000, Total charge =  0.00000
