  ==> Input File <==

--------------------------------------------------------------------------
set {
	reference rhf
	basis 6-31G*
}

set_num_threads( 1 )
memory 2 gb

molecule MOL {
0 1

H	 -2.422168	 1.238814	 -1.276178
N	 -1.432904	 1.218955	 -1.121462
C	 -0.803668	 0.200390	 -1.943467
H	 -1.286164	 1.005315	 -0.154025
C	 0.684734	 0.160003	 -1.667489
H	 -1.209227	 -0.800477	 -1.789227
H	 -0.954484	 0.455473	 -2.987961
O	 0.874168	 -0.245412	 -0.342030
H	 1.174780	 -0.537855	 -2.346081
H	 1.112769	 1.147560	 -1.824818
C	 2.202317	 -0.244239	 0.074611
H	 2.711377	 -1.041390	 -0.449894
H	 2.692099	 0.699270	 -0.159667
H	 2.283185	 -0.418429	 1.145558

	symmetry c1
}
set optking {
	frozen_dihedral = ("
		8 5 3 6,
		6 3 2 4,
		11 8 5 3
	")
}

ee = energy('scf')
oeprop('DIPOLE', 'QUADRUPOLE', 'MULLIKEN_CHARGES')
f=open( 'psi4out.xyz', 'w' )
f.write( "14  " )
f.write( str(ee) + "\n" )
f.write( MOL.save_string_xyz() )
f.close()
--------------------------------------------------------------------------

    Molecular point group: c1

    Geometry (in Angstrom), charge = 0, multiplicity = 1:

       Center              X                  Y                   Z               Mass
    ------------   -----------------  -----------------  -----------------  -----------------
           H         -2.729248477076     1.021684296678    -0.296670089116     1.007825032070
           N         -1.739984477076     1.001825296678    -0.141954089116    14.003074004780
           C         -1.110748477076    -0.016739703322    -0.963959089116    12.000000000000
           H         -1.593244477076     0.788185296678     0.825482910884     1.007825032070
           C          0.377653522924    -0.057126703322    -0.687981089116    12.000000000000
           H         -1.516307477076    -1.017606703322    -0.809719089116     1.007825032070
           H         -1.261564477076     0.238343296678    -2.008453089116     1.007825032070
           O          0.567087522924    -0.462541703322     0.637477910884    15.994914619560
           H          0.867699522924    -0.754984703322    -1.366573089116     1.007825032070
           H          0.805688522924     0.930430296678    -0.845310089116     1.007825032070
           C          1.895236522924    -0.461368703322     1.054118910884    12.000000000000
           H          2.404296522924    -1.258519703322     0.529613910884     1.007825032070
           H          2.385018522924     0.482140296678     0.819840910884     1.007825032070
           H          1.976104522924    -0.635558703322     2.125065910884     1.007825032070

  Charge       = 0
  Multiplicity = 1
  Basis Set: 6-31G*
  Basis Set:

    Orbital Energies (a.u.)
    -----------------------

    Doubly Occupied:

       1A    -20.556337     2A    -15.528388     3A    -11.266445
       4A    -11.266189     5A    -11.240968     6A     -1.381090
       7A     -1.173604     8A     -0.998643     9A     -0.907284
      10A     -0.815439    11A     -0.684587    12A     -0.673890
      13A     -0.643380    14A     -0.612621    15A     -0.605390
      16A     -0.539770    17A     -0.530119    18A     -0.498300
      19A     -0.471438    20A     -0.416571    21A     -0.380064

  @DF-RHF Final Energy:  -248.12396883778601

   => Energetics <=

    Nuclear Repulsion Energy =            194.7097688716766868
    One-Electron Energy =                -723.2863909672602176
    Two-Electron Energy =                 280.4526532577973512
    DFT Exchange-Correlation Energy =       0.0000000000000000
    Empirical Dispersion Energy =           0.0000000000000000
    PCM Polarization Energy =               0.0000000000000000
    EFP Energy =                            0.0000000000000000
    Total Energy =                       -248.1239688377861512

  Mulliken Charges: (a.u.)
   Center  Symbol    Alpha    Beta     Spin     Total
       1     H     0.33286  0.33286  0.00000  0.33429
       2     N     3.92526  3.92526  0.00000 -0.85052
       3     C     3.06882  3.06882  0.00000 -0.13763
       4     H     0.32362  0.32362  0.00000  0.35276
       5     C     2.99004  2.99004  0.00000  0.01991
       6     H     0.42652  0.42652  0.00000  0.14696
       7     H     0.42041  0.42041  0.00000  0.15918
       8     O     4.31066  4.31066  0.00000 -0.62131
       9     H     0.43140  0.43140  0.00000  0.13721
      10     H     0.42205  0.42205  0.00000  0.15591
      11     C     3.07876  3.07876  0.00000 -0.15753
      12     H     0.42851  0.42851  0.00000  0.14299
      13     H     0.42846  0.42846  0.00000  0.14308
      14     H     0.41265  0.41265  0.00000  0.17471

   Total alpha = 21.00000, Total beta = 21.00000, Total charge =  0.00000
