  ==> Input File <==

--------------------------------------------------------------------------
set {
	reference rhf
	basis 6-31G*
}

set_num_threads( 4 )
memory 2 gb

molecule MOL {
0 1

H	 -2.172150	 0.880146	 0.502514
C	 -2.018062	 -0.000025	 -0.114509
O	 -0.774054	 0.001095	 -0.743181
H	 -2.760490	 0.003458	 -0.901350
H	 -2.173624	 -0.884374	 0.496163
C	 0.115306	 -1.082565	 -0.540072
C	 1.333206	 -0.713210	 -1.384055
C	 0.516957	 -1.198975	 0.933805
C	 -0.490303	 -2.396638	 -1.043625
H	 1.748464	 0.230007	 -1.047404
H	 1.047172	 -0.602941	 -2.423959
H	 2.102548	 -1.475432	 -1.314822
H	 0.877680	 -0.244011	 1.301163
H	 1.309385	 -1.931064	 1.050868
H	 -0.310687	 -1.514731	 1.559790
H	 -0.836781	 -2.283205	 -2.065456
H	 0.253661	 -3.186290	 -1.021293
H	 -1.326392	 -2.722047	 -0.433957

	symmetry c1
}
set optking {
	frozen_dihedral = ("
		6 3 2 5
	")
}

ee = optimize('scf')
oeprop('DIPOLE', 'QUADRUPOLE', 'MULLIKEN_CHARGES')
f=open( 'psi4out.xyz', 'w' )
f.write( "18  " )
f.write( str(ee) + "\n" )
f.write( MOL.save_string_xyz() )
f.close()
--------------------------------------------------------------------------

    Molecular point group: c1
  Charge       = 0
  Multiplicity = 1
  Basis Set: 6-31G*
  Basis Set:
  @DF-RHF Final Energy:  -271.17227392380755
    Total Energy =                       -271.1722739238077793
    Molecular point group: c1
  Basis Set: 6-31G*
  Basis Set:
  Basis Set: 6-31G*
  Basis Set:
  @DF-RHF Final Energy:  -271.17288755493990
    Total Energy =                       -271.1728875549400755
  Basis Set: 6-31G*
  Basis Set:
  Basis Set: 6-31G*
  Basis Set:
  @DF-RHF Final Energy:  -271.17311440615958
    Total Energy =                       -271.1731144061596979
  Basis Set: 6-31G*
  Basis Set:
  Basis Set: 6-31G*
  Basis Set:
  @DF-RHF Final Energy:  -271.17309639511456
    Total Energy =                       -271.1730963951145554
  Basis Set: 6-31G*
  Basis Set:
  @DF-RHF Final Energy:  -271.17311644071771
    Total Energy =                       -271.1731164407175925
  Basis Set: 6-31G*
  Basis Set:
  @DF-RHF Final Energy:  -271.17313260925550
    Total Energy =                       -271.1731326092552763
  Basis Set: 6-31G*
  Basis Set:
  Basis Set: 6-31G*
  Basis Set:
  @DF-RHF Final Energy:  -271.17313871471890
    Total Energy =                       -271.1731387147187888
  Basis Set: 6-31G*
  Basis Set:
  Basis Set: 6-31G*
  Basis Set:
  @DF-RHF Final Energy:  -271.17314105056869
    Total Energy =                       -271.1731410505686881
  Basis Set: 6-31G*
  Basis Set:
  Charge       = 0
  Multiplicity = 1
  Basis Set: 6-31G*
  Basis Set:

    Orbital Energies (a.u.)
    -----------------------

    Doubly Occupied:

       1A    -20.544195     2A    -11.282025     3A    -11.260941
       4A    -11.208638     5A    -11.208619     6A    -11.203183
       7A     -1.367542     8A     -1.072529     9A     -0.945553
      10A     -0.939967    11A     -0.912855    12A     -0.752652
      13A     -0.654949    14A     -0.643120    15A     -0.638571
      16A     -0.590011    17A     -0.570866    18A     -0.551720
      19A     -0.539025    20A     -0.523663    21A     -0.514924
      22A     -0.490086    23A     -0.487181    24A     -0.437545
      25A     -0.400815

  @DF-RHF Final Energy:  -271.17314113446565

   => Energetics <=

    Nuclear Repulsion Energy =            272.1100666541586293
    One-Electron Energy =                -907.0840660833166567
    Two-Electron Energy =                 363.8008582946923184
    DFT Exchange-Correlation Energy =       0.0000000000000000
    Empirical Dispersion Energy =           0.0000000000000000
    PCM Polarization Energy =               0.0000000000000000
    EFP Energy =                            0.0000000000000000
    Total Energy =                       -271.1731411344657658
    Molecular point group: c1
  Basis Set: 6-31G*
  Basis Set:

  -Total Gradient:
     Atom            X                  Y                   Z
    ------   -----------------  -----------------  -----------------
       1       -0.000003519717    -0.000005363788     0.000001693713
       2       -0.000003377601     0.000013666759    -0.000007301972
       3        0.000009575409    -0.000004702219    -0.000004648401
       4        0.000000368337    -0.000002209305     0.000005730103
       5        0.000012953056     0.000003793832    -0.000007502886
       6       -0.000009953482    -0.000011986482     0.000011573716
       7       -0.000009430840     0.000011275153     0.000001711903
       8        0.000007979792    -0.000006833045    -0.000000620934
       9       -0.000001343785    -0.000003194047     0.000000229804
      10        0.000004709649     0.000004653367    -0.000003799766
      11       -0.000000923448    -0.000001649487    -0.000000661302
      12       -0.000008331981     0.000002564513     0.000005665380
      13       -0.000004756874    -0.000005485958    -0.000005548208
      14        0.000002112701    -0.000000154494     0.000005912635
      15        0.000001545507     0.000002571293    -0.000004626974
      16        0.000001942799     0.000001778357     0.000005677351
      17        0.000000238262     0.000000023145    -0.000000056193
      18        0.000000212218     0.000001252406    -0.000003427970

  **** Optimization is complete! (in 9 steps) ****
    Final optimized geometry and variables:
    Molecular point group: c1

    Geometry (in Angstrom), charge = 0, multiplicity = 1:

    H           -1.875619497282     1.764705703160     0.990149477755
    C           -1.790403262874     0.884851379040     0.361282176162
    O           -0.540943061104     0.882229388530    -0.265571411983
    H           -2.570580717406     0.922660093479    -0.391558335406
    H           -1.961078687902     0.012221626987     0.978939064867
    C            0.358648937935    -0.192186994560    -0.063266428432
    C            1.574501083687     0.186675646690    -0.905629846655
    C            0.760048405892    -0.299438593471     1.411284435298
    C           -0.237646167731    -1.508276098844    -0.572448414197
    H            1.981970214392     1.133218296250    -0.569120916034
    H            1.289568022789     0.293505716819    -1.946113144770
    H            2.349507124727    -0.569719083123    -0.834066535922
    H            1.146470023211     0.651458058486     1.762176061766
    H            1.531758541691    -1.051296335558     1.541911401101
    H           -0.076242525060    -0.578963801637     2.043179530017
    H           -0.547620616696    -1.401319232244    -1.606436789987
    H            0.496563397682    -2.305567816323    -0.516317306302
    H           -1.099351503054    -1.818525795816     0.008948706246

  Mulliken Charges: (a.u.)
   Center  Symbol    Alpha    Beta     Spin     Total
       1     H     0.42077  0.42077  0.00000  0.15846
       2     C     3.07636  3.07636  0.00000 -0.15272
       3     O     4.32229  4.32229  0.00000 -0.64457
       4     H     0.42077  0.42077  0.00000  0.15846
       5     H     0.42969  0.42969  0.00000  0.14062
       6     C     2.84403  2.84403  0.00000  0.31194
       7     C     3.23299  3.23299  0.00000 -0.46598
       8     C     3.24503  3.24503  0.00000 -0.49006
       9     C     3.24502  3.24502  0.00000 -0.49005
      10     H     0.41409  0.41409  0.00000  0.17183
      11     H     0.41410  0.41410  0.00000  0.17181
      12     H     0.42510  0.42510  0.00000  0.14980
      13     H     0.41356  0.41356  0.00000  0.17288
      14     H     0.42030  0.42030  0.00000  0.15940
      15     H     0.42102  0.42102  0.00000  0.15795
      16     H     0.41356  0.41356  0.00000  0.17288
      17     H     0.42030  0.42030  0.00000  0.15940
      18     H     0.42102  0.42102  0.00000  0.15795

   Total alpha = 25.00000, Total beta = 25.00000, Total charge =  0.00000
