  ==> Input File <==

--------------------------------------------------------------------------
set {
	reference rhf
	basis 6-31G*
}

set_num_threads( 4 )
memory 2 gb

molecule MOL {
0 1

H	 -3.269016	 -0.876744	 0.468090
C	 -2.809304	 0.000122	 0.025886
N	 -1.391456	 0.000019	 0.300661
H	 -3.037557	 -0.000063	 -1.044252
H	 -3.269223	 0.876956	 0.468000
C	 -0.895446	 1.320935	 0.633743
C	 -0.621133	 -0.580703	 -0.781547
H	 -1.024573	 2.020372	 -0.197894
H	 -1.461285	 1.703845	 1.476814
C	 0.577892	 1.257164	 1.004925
H	 -0.986942	 -1.584682	 -0.970670
H	 -0.732100	 -0.007148	 -1.706874
C	 0.852205	 -0.644474	 -0.410364
H	 0.943701	 2.261143	 1.194049
H	 0.688859	 0.683608	 1.930251
N	 1.348215	 0.676442	 -0.077283
H	 1.418044	 -1.027383	 -1.253435
H	 0.981332	 -1.343911	 0.421273
C	 2.766063	 0.676340	 0.197492
H	 3.104842	 1.690207	 0.379358
H	 3.306641	 0.292657	 -0.660640
H	 3.033167	 0.068039	 1.066929

	symmetry c1
}
set optking {
	frozen_dihedral = ("
		6 3 2 4
	")
}

ee = optimize('scf')
oeprop('DIPOLE', 'QUADRUPOLE', 'MULLIKEN_CHARGES')
f=open( 'psi4out.xyz', 'w' )
f.write( "22  " )
f.write( str(ee) + "\n" )
f.write( MOL.save_string_xyz() )
f.close()
--------------------------------------------------------------------------

    Molecular point group: c1
  Charge       = 0
  Multiplicity = 1
  Basis Set: 6-31G*
  Basis Set:
  @DF-RHF Final Energy:  -344.22588430080140
    Total Energy =                       -344.2258843008015674
    Molecular point group: c1
  Basis Set: 6-31G*
  Basis Set:
  Basis Set: 6-31G*
  Basis Set:
  @DF-RHF Final Energy:  -344.22643666418230
    Total Energy =                       -344.2264366641825291
  Basis Set: 6-31G*
  Basis Set:
  Basis Set: 6-31G*
  Basis Set:
  @DF-RHF Final Energy:  -344.22655514530999
    Total Energy =                       -344.2265551453100443
  Basis Set: 6-31G*
  Basis Set:
  Charge       = 0
  Multiplicity = 1
  Basis Set: 6-31G*
  Basis Set:

    Orbital Energies (a.u.)
    -----------------------

    Doubly Occupied:

       1A    -15.541536     2A    -15.538267     3A    -11.238629
       4A    -11.238496     5A    -11.237699     6A    -11.237618
       7A    -11.235869     8A    -11.235574     9A     -1.253269
      10A     -1.201566    11A     -1.024643    12A     -0.990870
      13A     -0.911807    14A     -0.866957    15A     -0.835242
      16A     -0.753218    17A     -0.664550    18A     -0.635503
      19A     -0.630147    20A     -0.625522    21A     -0.618729
      22A     -0.578930    23A     -0.551015    24A     -0.548173
      25A     -0.542834    26A     -0.518152    27A     -0.497198
      28A     -0.488955    29A     -0.465747    30A     -0.455370
      31A     -0.348569    32A     -0.337844

  @DF-RHF Final Energy:  -344.22656140617562

   => Energetics <=

    Nuclear Repulsion Energy =            420.9402935739739178
    One-Electron Energy =               -1300.6367114919344203
    Two-Electron Energy =                 535.4698565117851103
    DFT Exchange-Correlation Energy =       0.0000000000000000
    Empirical Dispersion Energy =           0.0000000000000000
    PCM Polarization Energy =               0.0000000000000000
    EFP Energy =                            0.0000000000000000
    Total Energy =                       -344.2265614061753922
    Molecular point group: c1
  Basis Set: 6-31G*
  Basis Set:

  -Total Gradient:
     Atom            X                  Y                   Z
    ------   -----------------  -----------------  -----------------
       1        0.000056774286    -0.000011504904     0.000011297203
       2       -0.000781133140     0.005861679382     0.001457563094
       3        0.000794517550    -0.000388002578    -0.004885254118
       4        0.000228633662    -0.004786303008    -0.000085048784
       5        0.000066217116     0.000000386283     0.000031469783
       6       -0.000484053127    -0.000646636009     0.003511891230
       7        0.000066346039     0.000036772227    -0.000095712257
       8        0.000010080941    -0.000064867270     0.000043962346
       9       -0.000003037505    -0.000057677531    -0.000026241030
      10        0.000045617984     0.000007914091    -0.000036835436
      11       -0.000006436294     0.000038429082     0.000045440638
      12       -0.000017827492    -0.000012820131     0.000044301975
      13        0.000033461325    -0.000008915131     0.000007712083
      14        0.000086857897     0.000034342323     0.000017781798
      15       -0.000038338171     0.000010837393    -0.000028326505
      16       -0.000047160570    -0.000000068794     0.000008660684
      17        0.000081417829    -0.000002543296    -0.000011133867
      18       -0.000009658187     0.000013718524    -0.000014072964
      19       -0.000041282822    -0.000021122271     0.000010073684
      20       -0.000023498304     0.000000656744    -0.000002559236
      21       -0.000014298392    -0.000004634237    -0.000006201470
      22       -0.000003200628     0.000000359111     0.000001231148

  **** Optimization is complete! (in 4 steps) ****
    Final optimized geometry and variables:
    Molecular point group: c1

    Geometry (in Angstrom), charge = 0, multiplicity = 1:

    H           -3.206996180884    -1.282151941798     0.331419790700
    C           -2.800531474315    -0.358331254374    -0.071824744970
    N           -1.370568878980    -0.301853186400     0.157402697580
    H           -3.056018061596    -0.340818952634    -1.132329002769
    H           -3.300949271855     0.466230953417     0.419808009508
    C           -0.866373341515     1.008206956433     0.513644564579
    C           -0.598444480114    -0.916674268466    -0.899471313577
    H           -0.977368851570     1.728801256917    -0.302667436364
    H           -1.430606228565     1.380247954746     1.361702252521
    C            0.603379526347     0.918241736083     0.894397322868
    H           -0.974990239604    -1.920913844055    -1.067147827757
    H           -0.695503596111    -0.366299902872    -1.840444593810
    C            0.870548176834    -0.989964886509    -0.513689218697
    H            0.984846815524     1.914958241316     1.091494360553
    H            0.697837355944     0.337693036349     1.817273238477
    N            1.373121976908     0.329585852834    -0.184284684015
    H            1.442305620808    -1.382786873123    -1.348291061721
    H            0.986653289093    -1.684086675181     0.324320847155
    C            2.789744476377     0.320672407126     0.096384131295
    H            3.135090125028     1.332780751938     0.275697525577
    H            3.331055413400    -0.070236585160    -0.758004864079
    H            3.049139311007    -0.286216128368     0.969198918922

  Mulliken Charges: (a.u.)
   Center  Symbol    Alpha    Beta     Spin     Total
       1     H     0.41684  0.41684  0.00000  0.16632
       2     C     3.13814  3.13814  0.00000 -0.27629
       3     N     3.79344  3.79344  0.00000 -0.58687
       4     H     0.42916  0.42916  0.00000  0.14169
       5     H     0.41900  0.41900  0.00000  0.16200
       6     C     3.05270  3.05270  0.00000 -0.10539
       7     C     3.05370  3.05370  0.00000 -0.10740
       8     H     0.42948  0.42948  0.00000  0.14105
       9     H     0.41828  0.41828  0.00000  0.16343
      10     C     3.05708  3.05708  0.00000 -0.11415
      11     H     0.41803  0.41803  0.00000  0.16395
      12     H     0.42879  0.42879  0.00000  0.14242
      13     C     3.05653  3.05653  0.00000 -0.11305
      14     H     0.41828  0.41828  0.00000  0.16344
      15     H     0.42893  0.42893  0.00000  0.14215
      16     N     3.78716  3.78716  0.00000 -0.57432
      17     H     0.41821  0.41821  0.00000  0.16358
      18     H     0.42892  0.42892  0.00000  0.14215
      19     C     3.14014  3.14014  0.00000 -0.28027
      20     H     0.41682  0.41682  0.00000  0.16636
      21     H     0.41683  0.41683  0.00000  0.16633
      22     H     0.43357  0.43357  0.00000  0.13287

   Total alpha = 32.00000, Total beta = 32.00000, Total charge =  0.00000
