  ==> Input File <==

--------------------------------------------------------------------------
set {
	reference rhf
	basis 6-31G*
}

set_num_threads( 4 )
memory 2 gb

molecule MOL {
0 1

H	 3.089270	 -1.380733	 0.000000
O	 2.178328	 -1.639175	 0.000000
C	 1.368216	 -0.558384	 0.000000
C	 -0.016576	 -0.666338	 0.000000
C	 1.964833	 0.690407	 -0.000000
H	 -0.478870	 -1.639128	 0.000000
C	 -0.803133	 0.473398	 0.000000
H	 3.034359	 0.775202	 -0.000000
C	 1.170124	 1.826407	 -0.000000
H	 -1.873710	 0.377252	 0.000000
C	 -0.215365	 1.725460	 -0.000000
C	 1.804592	 3.171145	 -0.000000
H	 -0.824401	 2.612072	 -0.000000
O	 2.978374	 3.362934	 -0.000000
H	 1.103723	 4.011402	 -0.000000

	symmetry c1
}
set optking {
	frozen_dihedral = ("
		4 3 2 1
	")
}

ee = optimize('scf')
oeprop('DIPOLE', 'QUADRUPOLE', 'MULLIKEN_CHARGES')
f=open( 'psi4out.xyz', 'w' )
f.write( "15  " )
f.write( str(ee) + "\n" )
f.write( MOL.save_string_xyz() )
f.close()
--------------------------------------------------------------------------

    Molecular point group: c1
  Charge       = 0
  Multiplicity = 1
  Basis Set: 6-31G*
  Basis Set:
  @DF-RHF Final Energy:  -418.28535657750189
    Total Energy =                       -418.2853565775017159
    Molecular point group: c1
  Basis Set: 6-31G*
  Basis Set:
  Basis Set: 6-31G*
  Basis Set:
  @DF-RHF Final Energy:  -418.28746701097185
    Total Energy =                       -418.2874670109722501
  Basis Set: 6-31G*
  Basis Set:
  Basis Set: 6-31G*
  Basis Set:
  @DF-RHF Final Energy:  -418.28765930600065
    Total Energy =                       -418.2876593060008190
  Basis Set: 6-31G*
  Basis Set:
  Basis Set: 6-31G*
  Basis Set:
  @DF-RHF Final Energy:  -418.28768873389993
    Total Energy =                       -418.2876887338999268
  Basis Set: 6-31G*
  Basis Set:
  Charge       = 0
  Multiplicity = 1
  Basis Set: 6-31G*
  Basis Set:

    Orbital Energies (a.u.)
    -----------------------

    Doubly Occupied:

       1A    -20.601507     2A    -20.566976     3A    -11.335248
       4A    -11.312614     5A    -11.253469     6A    -11.251273
       7A    -11.247532     8A    -11.244652     9A    -11.243961
      10A     -1.421157    11A     -1.407475    12A     -1.169849
      13A     -1.049677    14A     -1.026068    15A     -0.901394
      16A     -0.853486    17A     -0.796814    18A     -0.754222
      19A     -0.700617    20A     -0.666784    21A     -0.661660
      22A     -0.628462    23A     -0.613632    24A     -0.601707
      25A     -0.575092    26A     -0.553285    27A     -0.536078
      28A     -0.518313    29A     -0.486091    30A     -0.426267
      31A     -0.353417    32A     -0.326538

  @DF-RHF Final Energy:  -418.28769249277894

   => Energetics <=

    Nuclear Repulsion Energy =            403.3333628202712475
    One-Electron Energy =               -1369.0714727305378347
    Two-Electron Energy =                 547.4504174174874152
    DFT Exchange-Correlation Energy =       0.0000000000000000
    Empirical Dispersion Energy =           0.0000000000000000
    PCM Polarization Energy =               0.0000000000000000
    EFP Energy =                            0.0000000000000000
    Total Energy =                       -418.2876924927791151
    Molecular point group: c1
  Basis Set: 6-31G*
  Basis Set:

  -Total Gradient:
     Atom            X                  Y                   Z
    ------   -----------------  -----------------  -----------------
       1       -0.000043644139    -0.000017182268    -0.000000000019
       2       -0.000004442129    -0.000059137101     0.000000000004
       3       -0.000055551066     0.000103182626    -0.000000000259
       4        0.000001717269     0.000050749444     0.000000000049
       5        0.000031051338    -0.000053632678     0.000000000295
       6       -0.000017686077    -0.000047394319     0.000000000018
       7        0.000105777631    -0.000006777108    -0.000000000378
       8        0.000023386316     0.000022474161     0.000000000000
       9        0.000006953510    -0.000045456075     0.000000005632
      10       -0.000016946098    -0.000008205759    -0.000000000028
      11       -0.000075688984     0.000062564039     0.000000000191
      12        0.000008924977     0.000094315452    -0.000000019034
      13        0.000031092883    -0.000048595203     0.000000000178
      14       -0.000007156098    -0.000041916527     0.000000006748
      15        0.000012210669    -0.000004988687     0.000000006603

  **** Optimization is complete! (in 5 steps) ****
    Final optimized geometry and variables:
    Molecular point group: c1

    Geometry (in Angstrom), charge = 0, multiplicity = 1:

    H           -2.421447535026    -1.816304331004     0.000000002027
    O           -2.607741761477    -0.887470151954     0.000000006629
    C           -1.464424053103    -0.168459733143     0.000000001090
    C           -1.587283347505     1.219788557461     0.000000006867
    C           -0.214396641285    -0.750849294874    -0.000000009860
    H           -2.571478827601     1.649975460221     0.000000015395
    C           -0.458916073924     2.011904636585     0.000000001581
    H           -0.095758774322    -1.819648792544    -0.000000014820
    C            0.920414599513     0.056410550467    -0.000000015316
    H           -0.562395352656     3.081725433522     0.000000006072
    C            0.805280535453     1.434490437430    -0.000000009341
    C            2.266593257568    -0.570432827121    -0.000000028912
    H            1.685384711641     2.052960173072    -0.000000013467
    O            2.461479161803    -1.744680138626     0.000000031966
    H            3.104671791491     0.132408457661     0.000000033939

  Mulliken Charges: (a.u.)
   Center  Symbol    Alpha    Beta     Spin     Total
       1     H     0.26897  0.26897  0.00000  0.46206
       2     O     4.37777  4.37777  0.00000 -0.75555
       3     C     2.79308  2.79308  0.00000  0.41385
       4     C     3.11305  3.11305  0.00000 -0.22610
       5     C     3.13614  3.13614  0.00000 -0.27229
       6     H     0.38564  0.38564  0.00000  0.22872
       7     C     3.09632  3.09632  0.00000 -0.19263
       8     H     0.38157  0.38157  0.00000  0.23686
       9     C     3.04580  3.04580  0.00000 -0.09160
      10     H     0.39260  0.39260  0.00000  0.21480
      11     C     3.11515  3.11515  0.00000 -0.23029
      12     C     2.83233  2.83233  0.00000  0.33535
      13     H     0.39298  0.39298  0.00000  0.21404
      14     O     4.24820  4.24820  0.00000 -0.49640
      15     H     0.42041  0.42041  0.00000  0.15918

   Total alpha = 32.00000, Total beta = 32.00000, Total charge =  0.00000
