                              Psi4 1.0.54 Driver

  ==> Input File <==

--------------------------------------------------------------------------
set {
	reference rhf
	basis cc-pvtz
}

set_num_threads( 4 )
memory 2 gb

molecule MOL {
0 1

H	 -2.498963	 -0.741158	 -0.729149
O	 -2.346257	 -0.289210	 0.080372
C	 -1.183935	 0.486039	 -0.009831
C	 0.062853	 -0.375310	 0.027457
H	 -1.178881	 1.094526	 -0.908634
H	 -1.184406	 1.155156	 0.838676
O	 1.087116	 0.310721	 -0.614181
H	 -0.128351	 -1.328487	 -0.468316
H	 0.324269	 -0.591846	 1.061066
C	 2.308186	 -0.352595	 -0.629012
H	 2.236120	 -1.306298	 -1.147214
H	 3.018571	 0.273130	 -1.149115
H	 2.673329	 -0.535266	 0.378868

	symmetry c1
}
set optking {
	frozen_dihedral = ("
		8 4 3 5
	")
}

ee,wfn = optimize('scf', return_wfn=True)
oeprop( wfn, 'DIPOLE', 'QUADRUPOLE', 'MULLIKEN_CHARGES')
f=open( 'psi4out.xyz', 'w' )
f.write( "13  " )
f.write( str(ee) + "\n" )
f.write( MOL.save_string_xyz() )
f.close()
--------------------------------------------------------------------------

    Molecular point group: c1
  Charge       = 0
  Multiplicity = 1
  Basis Set: CC-PVTZ
  Basis Set:
  @DF-RHF Final Energy:  -268.05982412030335
    Total Energy =                       -268.0598241203032899
    Molecular point group: c1
  Basis Set: CC-PVTZ
  Basis Set:
  Basis Set: CC-PVTZ
  Basis Set:
  @DF-RHF Final Energy:  -268.06013049933250
    Total Energy =                       -268.0601304993325584
  Basis Set: CC-PVTZ
  Basis Set:
  Basis Set: CC-PVTZ
  Basis Set:
  @DF-RHF Final Energy:  -268.06022115005794
    Total Energy =                       -268.0602211500580552
  Basis Set: CC-PVTZ
  Basis Set:
  Basis Set: CC-PVTZ
  Basis Set:
  @DF-RHF Final Energy:  -268.06022415349844
    Total Energy =                       -268.0602241534984387
  Basis Set: CC-PVTZ
  Basis Set:
  Charge       = 0
  Multiplicity = 1
  Basis Set: CC-PVTZ
  Basis Set:

    Orbital Energies (a.u.)
    -----------------------

    Doubly Occupied:

       1A    -20.557183     2A    -20.552778     3A    -11.269917
       4A    -11.268358     5A    -11.267396     6A     -1.392970
       7A     -1.369608     8A     -1.018765     9A     -0.915126
      10A     -0.843867    11A     -0.710485    12A     -0.679119
      13A     -0.662493    14A     -0.634456    15A     -0.607081
      16A     -0.569103    17A     -0.543204    18A     -0.492936
      19A     -0.484088    20A     -0.441170    21A     -0.423929

  @DF-RHF Final Energy:  -268.06022445692417

   => Energetics <=

    Nuclear Repulsion Energy =            190.4056063760014865
    One-Electron Energy =                -743.5235979900526218
    Two-Electron Energy =                 285.0577671571268183
    DFT Exchange-Correlation Energy =       0.0000000000000000
    Empirical Dispersion Energy =           0.0000000000000000
    PCM Polarization Energy =               0.0000000000000000
    EFP Energy =                            0.0000000000000000
    Total Energy =                       -268.0602244569242885
    Molecular point group: c1
  Basis Set: CC-PVTZ
  Basis Set:

  -Total Gradient:
     Atom            X                  Y                   Z
    ------   -----------------  -----------------  -----------------
       1       -0.000008498609     0.000006643231     0.000012744581
       2        0.000003477959    -0.000007677275    -0.000036463462
       3       -0.002929352034    -0.004074226343    -0.001377486408
       4        0.001911187158     0.002566135493    -0.004167354125
       5        0.002165967237     0.002981755971     0.001874792750
       6        0.000011959604     0.000009898253     0.000003373391
       7        0.000014891897    -0.000019389872     0.000014798282
       8       -0.001183040542    -0.001485815585     0.003681684637
       9        0.000008084214     0.000018558354    -0.000007080136
      10        0.000006244824    -0.000003866979     0.000009006443
      11        0.000000653173     0.000003242752    -0.000004542384
      12       -0.000004836004     0.000001379555    -0.000002197711
      13        0.000003261121     0.000003362442    -0.000001275859

  **** Optimization is complete! (in 5 steps) ****
    Final optimized geometry and variables:
    Molecular point group: c1

    Geometry (in Angstrom), charge = 0, multiplicity = 1:

    H           -2.514488490035    -0.646643291252    -0.375405187565
    O           -2.326409006902    -0.130514419233     0.387196052044
    C           -1.136752491063     0.580002521153     0.204255798643
    C            0.088075268971    -0.323159904290     0.233952489096
    H           -1.126818449903     1.152628475630    -0.717488764739
    H           -1.083405092486     1.296294565826     1.012468820935
    O            1.132355463322     0.313941540870    -0.423643799782
    H           -0.153252432709    -1.282344880343    -0.225656785800
    H            0.363217539440    -0.542727769097     1.264210061253
    C            2.344907428035    -0.363795885342    -0.376682988477
    H            2.268234548867    -1.347258299612    -0.835067044793
    H            3.071043635544     0.219527609498    -0.923569891050
    H            2.691973984410    -0.487123695886     0.646389799804

  Mulliken Charges: (a.u.)
   Center  Symbol    Alpha    Beta     Spin     Total
       1     H     0.39346  0.39346  0.00000  0.21308
       2     O     4.20263  4.20263  0.00000 -0.40526
       3     C     2.97102  2.97102  0.00000  0.05795
       4     C     2.96336  2.96336  0.00000  0.07327
       5     H     0.46678  0.46678  0.00000  0.06643
       6     H     0.45609  0.45609  0.00000  0.08782
       7     O     4.17465  4.17465  0.00000 -0.34930
       8     H     0.48131  0.48131  0.00000  0.03738
       9     H     0.47334  0.47334  0.00000  0.05333
      10     C     3.03048  3.03048  0.00000 -0.06096
      11     H     0.47113  0.47113  0.00000  0.05773
      12     H     0.44601  0.44601  0.00000  0.10797
      13     H     0.46972  0.46972  0.00000  0.06055

   Total alpha = 21.00000, Total beta = 21.00000, Total charge = -0.00000

*** Psi4 exiting successfully. Buy a developer a beer!
