  ==> Input File <==

--------------------------------------------------------------------------
set {
	reference rhf
	basis cc-pvtz
}

set_num_threads( 4 )
memory 2 gb

molecule MOL {
0 1

H	 -2.540000	 -0.711000	 -0.739000
O	 -2.389000	 -0.272000	 0.086000
C	 -1.225000	 0.506000	 0.001000
C	 0.022000	 -0.359000	 0.039000
H	 -1.217000	 1.118000	 -0.897000
H	 -1.229000	 1.172000	 0.852000
O	 1.131000	 0.478000	 -0.051000
H	 0.010000	 -1.071000	 -0.789000
H	 0.038000	 -0.935000	 0.963000
C	 2.357000	 -0.179000	 0.005000
H	 2.466000	 -0.886000	 -0.816000
H	 3.133000	 0.570000	 -0.072000
H	 2.477000	 -0.718000	 0.943000

	symmetry c1
}
ee = optimize('scf')
oeprop('DIPOLE', 'QUADRUPOLE', 'MULLIKEN_CHARGES')
f=open( 'psi4out.xyz', 'w' )
f.write( "13  " )
f.write( str(ee) + "\n" )
f.write( MOL.save_string_xyz() )
f.close()
--------------------------------------------------------------------------

    Molecular point group: c1
  Charge       = 0
  Multiplicity = 1
  Basis Set: CC-PVTZ
  Basis Set:
  @DF-RHF Final Energy:  -268.06222045804623
    Total Energy =                       -268.0622204580462267
    Molecular point group: c1
  Basis Set: CC-PVTZ
  Basis Set:
  Basis Set: CC-PVTZ
  Basis Set:
  @DF-RHF Final Energy:  -268.06230966997276
    Total Energy =                       -268.0623096699726489
  Basis Set: CC-PVTZ
  Basis Set:
  Basis Set: CC-PVTZ
  Basis Set:
  @DF-RHF Final Energy:  -268.06231149976509
    Total Energy =                       -268.0623114997650873
  Basis Set: CC-PVTZ
  Basis Set:
  Charge       = 0
  Multiplicity = 1
  Basis Set: CC-PVTZ
  Basis Set:

    Orbital Energies (a.u.)
    -----------------------

    Doubly Occupied:

       1A    -20.556104     2A    -20.552927     3A    -11.269333
       4A    -11.267840     5A    -11.267543     6A     -1.392081
       7A     -1.369298     8A     -1.019781     9A     -0.914050
      10A     -0.842869    11A     -0.712094    12A     -0.676570
      13A     -0.663178    14A     -0.639381    15A     -0.597860
      16A     -0.571111    17A     -0.546987    18A     -0.491377
      19A     -0.483512    20A     -0.441768    21A     -0.424827

  @DF-RHF Final Energy:  -268.06231179485883

   => Energetics <=

    Nuclear Repulsion Energy =            190.4964262079030277
    One-Electron Energy =                -743.7164933795183970
    Two-Electron Energy =                 285.1577553767563131
    DFT Exchange-Correlation Energy =       0.0000000000000000
    Empirical Dispersion Energy =           0.0000000000000000
    PCM Polarization Energy =               0.0000000000000000
    EFP Energy =                            0.0000000000000000
    Total Energy =                       -268.0623117948590561
    Molecular point group: c1
  Basis Set: CC-PVTZ
  Basis Set:

  -Total Gradient:
     Atom            X                  Y                   Z
    ------   -----------------  -----------------  -----------------
       1       -0.000010843948     0.000004894792     0.000014768132
       2        0.000005185841    -0.000011774368    -0.000022760310
       3        0.000016863199     0.000003821285     0.000015087547
       4       -0.000017908356    -0.000017410243     0.000002055477
       5       -0.000007460793     0.000001481051     0.000004130839
       6       -0.000009774264     0.000003189956    -0.000003696719
       7        0.000029577833     0.000018056937    -0.000006161882
       8       -0.000001206902    -0.000009692516    -0.000000620351
       9       -0.000015504366     0.000003791232    -0.000004709230
      10        0.000002045381    -0.000004671932     0.000002420040
      11       -0.000002197039     0.000004981553    -0.000002218592
      12        0.000009043705     0.000002629791    -0.000001616794
      13        0.000002179715     0.000000702465     0.000003321843

  **** Optimization is complete! (in 4 steps) ****
    Final optimized geometry and variables:
    Molecular point group: c1

    Geometry (in Angstrom), charge = 0, multiplicity = 1:

    H           -2.498962830419    -0.741158383956    -0.729149032196
    O           -2.346257455271    -0.289209676878     0.080371102351
    C           -1.183935195720     0.486038945178    -0.009831205793
    C            0.062852473669    -0.375309980327     0.027457067309
    H           -1.178881384857     1.094525531848    -0.908634393635
    H           -1.184406369855     1.155155801565     0.838675817874
    O            1.172092486059     0.457954784684    -0.054438138940
    H            0.052476227154    -1.081302239369    -0.804627683289
    H            0.076322952319    -0.955658049708     0.947559249182
    C            2.395478272324    -0.199027805614    -0.000366734699
    H            2.505946288619    -0.901710537794    -0.823354240454
    H            3.174615809074     0.545640446794    -0.071768396068
    H            2.513729947532    -0.742240715638     0.934222263942

  Mulliken Charges: (a.u.)
   Center  Symbol    Alpha    Beta     Spin     Total
       1     H     0.39407  0.39407  0.00000  0.21187
       2     O     4.20213  4.20213  0.00000 -0.40426
       3     C     2.97335  2.97335  0.00000  0.05330
       4     C     2.96509  2.96509  0.00000  0.06982
       5     H     0.46684  0.46684  0.00000  0.06632
       6     H     0.45268  0.45268  0.00000  0.09463
       7     O     4.17542  4.17542  0.00000 -0.35084
       8     H     0.48209  0.48209  0.00000  0.03581
       9     H     0.46957  0.46957  0.00000  0.06086
      10     C     3.03178  3.03178  0.00000 -0.06355
      11     H     0.47124  0.47124  0.00000  0.05751
      12     H     0.44592  0.44592  0.00000  0.10816
      13     H     0.46982  0.46982  0.00000  0.06035

   Total alpha = 21.00000, Total beta = 21.00000, Total charge =  0.00000
