  ==> Input File <==

--------------------------------------------------------------------------
set {
	reference rhf
	basis cc-pvtz
}

set_num_threads( 4 )
memory 2 gb

molecule MOL {
0 1

H	 -2.219417	 0.064300	 2.562781
C	 -1.884240	 -0.946872	 2.782035
O	 -0.693083	 -1.239803	 2.131745
H	 -1.710601	 -1.032715	 3.844752
H	 -2.674879	 -1.639884	 2.500062
C	 -0.766439	 -1.178856	 0.745188
C	 0.600300	 -1.410113	 0.151141
H	 -1.448221	 -1.941743	 0.369493
H	 -1.137469	 -0.208772	 0.421609
O	 1.401606	 -0.295166	 0.366636
H	 1.042034	 -2.294998	 0.604221
H	 0.493641	 -1.597327	 -0.917291
C	 2.714315	 -0.441627	 -0.061017
H	 2.765292	 -0.641548	 -1.128869
H	 3.305661	 0.447341	 0.150952
H	 3.143725	 -1.278506	 0.470147

	symmetry c1
}
set optking {
	frozen_dihedral = ("
		7 10 13 14
	")
}

ee = optimize('scf')
oeprop('DIPOLE', 'QUADRUPOLE', 'MULLIKEN_CHARGES')
f=open( 'psi4out.xyz', 'w' )
f.write( "16  " )
f.write( str(ee) + "\n" )
f.write( MOL.save_string_xyz() )
f.close()
--------------------------------------------------------------------------

    Molecular point group: c1
  Charge       = 0
  Multiplicity = 1
  Basis Set: CC-PVTZ
  Basis Set:
  @DF-RHF Final Energy:  -307.09688195388230
    Total Energy =                       -307.0968819538823027
    Molecular point group: c1
  Basis Set: CC-PVTZ
  Basis Set:
  Basis Set: CC-PVTZ
  Basis Set:
  @DF-RHF Final Energy:  -307.09774180881607
    Total Energy =                       -307.0977418088158402
  Basis Set: CC-PVTZ
  Basis Set:
  Basis Set: CC-PVTZ
  Basis Set:
  @DF-RHF Final Energy:  -307.09795395882026
    Total Energy =                       -307.0979539588202556
  Basis Set: CC-PVTZ
  Basis Set:
  Charge       = 0
  Multiplicity = 1
  Basis Set: CC-PVTZ
  Basis Set:

    Orbital Energies (a.u.)
    -----------------------

    Doubly Occupied:

       1A    -20.547858     2A    -20.547844     3A    -11.267583
       4A    -11.266905     5A    -11.261638     6A    -11.261615
       7A     -1.391869     8A     -1.374657     9A     -1.032129
      10A     -0.937221    11A     -0.892226    12A     -0.824459
      13A     -0.686536    14A     -0.682900    15A     -0.659567
      16A     -0.638203    17A     -0.632356    18A     -0.598655
      19A     -0.550667    20A     -0.536176    21A     -0.509928
      22A     -0.479856    23A     -0.464858    24A     -0.423342
      25A     -0.413776

  @DF-RHF Final Energy:  -307.09795503621092

   => Energetics <=

    Nuclear Repulsion Energy =            258.9311919636379571
    One-Electron Energy =                -932.2926434625410366
    Two-Electron Energy =                 366.2634964626922738
    DFT Exchange-Correlation Energy =       0.0000000000000000
    Empirical Dispersion Energy =           0.0000000000000000
    PCM Polarization Energy =               0.0000000000000000
    EFP Energy =                            0.0000000000000000
    Total Energy =                       -307.0979550362108057
    Molecular point group: c1
  Basis Set: CC-PVTZ
  Basis Set:

  -Total Gradient:
     Atom            X                  Y                   Z
    ------   -----------------  -----------------  -----------------
       1        0.000002178033    -0.000000147713    -0.000001880992
       2        0.000003513980    -0.000002684861     0.000007799655
       3       -0.000011757274    -0.000017663991     0.000027162060
       4       -0.000001974295    -0.000000543653     0.000000027507
       5       -0.000002427165    -0.000000758726     0.000000706413
       6        0.000071107183     0.000115426543     0.000025140139
       7        0.000040013666    -0.000077863261    -0.000125254280
       8        0.000064790970    -0.000000292585    -0.000015548096
       9       -0.000027450014     0.000016356532    -0.000017108148
      10        0.000003219277    -0.000000365564     0.000057946845
      11        0.000021442437     0.000018915611     0.000013682693
      12       -0.000008542074    -0.000010742582    -0.000007632001
      13       -0.000002253946    -0.000033609419    -0.000015660789
      14       -0.000066488269    -0.000023756415     0.000016739023
      15       -0.000053205831     0.000021766684     0.000016252117
      16       -0.000032166678    -0.000004036599     0.000017627855

  **** Optimization is complete! (in 4 steps) ****
    Final optimized geometry and variables:
    Molecular point group: c1

    Geometry (in Angstrom), charge = 0, multiplicity = 1:

    H           -2.445715684673     0.988077333858     1.541138857763
    C           -2.116638992011    -0.025942431370     1.756380456342
    O           -0.927041381724    -0.323288434876     1.105210774649
    H           -1.943843764093    -0.117180123717     2.818778714385
    H           -2.911287481405    -0.713099507129     1.471335009268
    C           -0.999519347193    -0.256025328831    -0.281096122279
    C            0.365775150314    -0.493736213378    -0.875747551867
    H           -1.685767544497    -1.013154947297    -0.660253739313
    H           -1.364388647377     0.717659077069    -0.600858217218
    O            1.173647780245     0.615383874164    -0.655353641084
    H            0.801892771002    -1.382984283541    -0.425836415832
    H            0.258350355961    -0.676103986961    -1.944961461291
    C            2.485553672008     0.462031974491    -1.082788525921
    H            2.537062205866     0.265599342344    -2.152181028676
    H            3.011104440193     1.382203864814    -0.873178217162
    H            2.982050534538    -0.351944603374    -0.559546941242

  Mulliken Charges: (a.u.)
   Center  Symbol    Alpha    Beta     Spin     Total
       1     H     0.47018  0.47018  0.00000  0.05964
       2     C     3.03198  3.03198  0.00000 -0.06396
       3     O     4.17049  4.17049  0.00000 -0.34098
       4     H     0.44634  0.44634  0.00000  0.10732
       5     H     0.47368  0.47368  0.00000  0.05264
       6     C     2.96050  2.96050  0.00000  0.07900
       7     C     2.96054  2.96054  0.00000  0.07891
       8     H     0.47612  0.47612  0.00000  0.04776
       9     H     0.47071  0.47071  0.00000  0.05858
      10     O     4.17044  4.17044  0.00000 -0.34088
      11     H     0.47073  0.47073  0.00000  0.05853
      12     H     0.47606  0.47606  0.00000  0.04788
      13     C     3.03201  3.03201  0.00000 -0.06403
      14     H     0.47373  0.47373  0.00000  0.05254
      15     H     0.44634  0.44634  0.00000  0.10731
      16     H     0.47013  0.47013  0.00000  0.05974

   Total alpha = 25.00000, Total beta = 25.00000, Total charge =  0.00000
