  ==> Input File <==

--------------------------------------------------------------------------
set {
	reference rhf
	basis 6-31G*
}

set_num_threads( 4 )
memory 2 gb

molecule MOL {
0 1

H	 3.116701	 0.420863	 2.139340
O	 3.835054	 0.222761	 1.556420
C	 3.750502	 -1.116024	 1.138617
C	 2.625440	 -1.364158	 0.139921
H	 4.703987	 -1.341517	 0.678516
H	 3.641845	 -1.777145	 1.997623
C	 1.224847	 -1.119470	 0.706785
H	 2.785526	 -0.726202	 -0.725383
H	 2.700585	 -2.393554	 -0.206582
C	 0.115918	 -1.429151	 -0.302766
H	 1.145119	 -0.084407	 1.027183
H	 1.081163	 -1.734795	 1.595081
C	 -1.309753	 -1.282496	 0.241564
H	 0.236038	 -0.788196	 -1.174313
H	 0.245745	 -2.449523	 -0.657290
C	 -2.037799	 -0.007733	 -0.193645
H	 -1.890610	 -2.142323	 -0.085726
H	 -1.285946	 -1.330893	 1.329189
C	 -3.489788	 0.042957	 0.286558
H	 -2.017067	 0.064384	 -1.280144
H	 -1.513726	 0.868678	 0.179924
C	 -4.216917	 1.317354	 -0.141063
H	 -4.025645	 -0.823308	 -0.095450
H	 -3.513059	 -0.038752	 1.371301
H	 -4.239342	 1.411634	 -1.223113
H	 -5.243387	 1.322503	 0.212445
H	 -3.726170	 2.201406	 0.256408

	symmetry c1
}
set optking {
	frozen_dihedral = ("
		14 10 13 16
	")
}

ee = optimize('scf')
oeprop('DIPOLE', 'QUADRUPOLE', 'MULLIKEN_CHARGES')
f=open( 'psi4out.xyz', 'w' )
f.write( "27  " )
f.write( str(ee) + "\n" )
f.write( MOL.save_string_xyz() )
f.close()
--------------------------------------------------------------------------

    Molecular point group: c1
  Charge       = 0
  Multiplicity = 1
  Basis Set: 6-31G*
  Basis Set:
  @DF-RHF Final Energy:  -388.27834005429168
    Total Energy =                       -388.2783400542917889
    Molecular point group: c1
  Basis Set: 6-31G*
  Basis Set:
  Basis Set: 6-31G*
  Basis Set:
  @DF-RHF Final Energy:  -388.27903518847387
    Total Energy =                       -388.2790351884740403
  Basis Set: 6-31G*
  Basis Set:
  Basis Set: 6-31G*
  Basis Set:
  @DF-RHF Final Energy:  -388.27908796434468
    Total Energy =                       -388.2790879643445123
  Basis Set: 6-31G*
  Basis Set:
  Basis Set: 6-31G*
  Basis Set:
  @DF-RHF Final Energy:  -388.27908899402831
    Total Energy =                       -388.2790889940281431
  Basis Set: 6-31G*
  Basis Set:
  Basis Set: 6-31G*
  Basis Set:
  @DF-RHF Final Energy:  -388.27910480332241
    Total Energy =                       -388.2791048033230936
  Basis Set: 6-31G*
  Basis Set:
  Charge       = 0
  Multiplicity = 1
  Basis Set: 6-31G*
  Basis Set:

    Orbital Energies (a.u.)
    -----------------------

    Doubly Occupied:

       1A    -20.552227     2A    -11.267072     3A    -11.220453
       4A    -11.216907     5A    -11.215721     6A    -11.215246
       7A    -11.215133     8A    -11.214384     9A    -11.209036
      10A     -1.359006    11A     -1.094207    12A     -1.061958
      13A     -1.010778    14A     -0.949535    15A     -0.883928
      16A     -0.820650    17A     -0.794946    18A     -0.787475
      19A     -0.693985    20A     -0.646565    21A     -0.642835
      22A     -0.613623    23A     -0.600263    24A     -0.584662
      25A     -0.577298    26A     -0.551945    27A     -0.543704
      28A     -0.524853    29A     -0.507364    30A     -0.489871
      31A     -0.485077    32A     -0.475715    33A     -0.470313
      34A     -0.463533    35A     -0.451172    36A     -0.441846
      37A     -0.421494

  @DF-RHF Final Energy:  -388.27910416195226

   => Energetics <=

    Nuclear Repulsion Energy =            456.6295562506803094
    One-Electron Energy =               -1431.2677572838679225
    Two-Electron Energy =                 586.3590968712361473
    DFT Exchange-Correlation Energy =       0.0000000000000000
    Empirical Dispersion Energy =           0.0000000000000000
    PCM Polarization Energy =               0.0000000000000000
    EFP Energy =                            0.0000000000000000
    Total Energy =                       -388.2791041619515227
    Molecular point group: c1
  Basis Set: 6-31G*
  Basis Set:

  -Total Gradient:
     Atom            X                  Y                   Z
    ------   -----------------  -----------------  -----------------
       1        0.000009273828    -0.000003376785    -0.000002427125
       2        0.000031454864     0.000023652370     0.000007952613
       3       -0.000027940171     0.000004771476     0.000001643237
       4        0.000044926338     0.000061916347    -0.000023927377
       5        0.000001007496     0.000005561445     0.000010580856
       6        0.000004075901    -0.000005905006     0.000006318995
       7        0.000069876781     0.000000663436    -0.000074224607
       8        0.000011427211    -0.000004527923    -0.000022752172
       9       -0.000016965874     0.000010820978     0.000010361627
      10       -0.001415879587    -0.003178361290    -0.002765528084
      11        0.000020008774    -0.000045208355    -0.000020992455
      12       -0.000047867852    -0.000054594926    -0.000055667497
      13        0.001279357793     0.002026078815     0.002773142751
      14        0.000994975466     0.002146404348     0.001852523545
      15        0.000049618648    -0.000026575483    -0.000019292078
      16       -0.000906545491    -0.001041077581    -0.001691111069
      17       -0.000044209058     0.000016850205     0.000021882910
      18       -0.000017263014     0.000046892957    -0.000054484773
      19       -0.000007619378     0.000086572440     0.000018314754
      20        0.000043905131    -0.000001901483    -0.000015636717
      21       -0.000048812267    -0.000061688070     0.000051922332
      22       -0.000040702562    -0.000033343102    -0.000025193832
      23        0.000015977254     0.000000456782     0.000018791197
      24        0.000002715933     0.000018964082     0.000009736183
      25        0.000008344379     0.000015273472    -0.000010672750
      26       -0.000009423438    -0.000002524802    -0.000018184031
      27       -0.000003717116    -0.000005794347     0.000016923570

  **** Optimization is complete! (in 6 steps) ****
    Final optimized geometry and variables:
    Molecular point group: c1

    Geometry (in Angstrom), charge = 0, multiplicity = 1:

    H            2.830172730084     0.899471728069     1.823202769835
    O            3.568834020707     0.804801555459     1.239604157750
    C            3.606001145149    -0.504855863487     0.732374227925
    C            2.510109677986    -0.784326685418    -0.290279926685
    H            4.577145343918    -0.612195909663     0.266606699411
    H            3.555023646431    -1.229614149079     1.544113321907
    C            1.092335964931    -0.703409230292     0.279043684864
    H            2.615429423112    -0.079277572408    -1.110747042293
    H            2.676647299143    -1.778145248993    -0.702931800012
    C            0.010305898192    -1.054866946542    -0.747343299067
    H            0.907514272192     0.301806092453     0.653418377016
    H            1.004864619698    -1.374691278160     1.132891263001
    C           -1.422961625645    -0.888058567122    -0.203008144176
    H            0.146703245229    -0.408863111911    -1.611489160558
    H            0.168621436427    -2.073646432653    -1.089894213267
    C           -2.098322204225     0.412524104265    -0.646077445163
    H           -2.038771901104    -1.720955117927    -0.533827146413
    H           -1.411682669116    -0.940498674097     0.883548086749
    C           -3.501010355548     0.596197253642    -0.064953627449
    H           -2.153845487878     0.429461707698    -1.732947320795
    H           -1.478684821201     1.261808575669    -0.360847782076
    C           -4.179031839537     1.883162016874    -0.533878159171
    H           -4.118141679549    -0.256969306681    -0.339123934198
    H           -3.444028037116     0.593752470608     1.021599310182
    H           -4.280387671092     1.901276705831    -1.615360154894
    H           -5.172316634371     1.983033026129    -0.107228963921
    H           -3.604430398345     2.757832050951    -0.242273536001

  Mulliken Charges: (a.u.)
   Center  Symbol    Alpha    Beta     Spin     Total
       1     H     0.27993  0.27993  0.00000  0.44014
       2     O     4.37098  4.37098  0.00000 -0.74195
       3     C     2.99726  2.99726  0.00000  0.00547
       4     C     3.16176  3.16176  0.00000 -0.32353
       5     H     0.41444  0.41444  0.00000  0.17112
       6     H     0.43201  0.43201  0.00000  0.13599
       7     C     3.16328  3.16328  0.00000 -0.32656
       8     H     0.41493  0.41493  0.00000  0.17013
       9     H     0.42425  0.42425  0.00000  0.15150
      10     C     3.15376  3.15376  0.00000 -0.30751
      11     H     0.42501  0.42501  0.00000  0.14999
      12     H     0.42453  0.42453  0.00000  0.15093
      13     C     3.15557  3.15557  0.00000 -0.31114
      14     H     0.41950  0.41950  0.00000  0.16101
      15     H     0.42002  0.42002  0.00000  0.15996
      16     C     3.15238  3.15238  0.00000 -0.30476
      17     H     0.42077  0.42077  0.00000  0.15846
      18     H     0.42255  0.42255  0.00000  0.15490
      19     C     3.15188  3.15188  0.00000 -0.30376
      20     H     0.42275  0.42275  0.00000  0.15450
      21     H     0.42412  0.42412  0.00000  0.15177
      22     C     3.23923  3.23923  0.00000 -0.47846
      23     H     0.42307  0.42307  0.00000  0.15386
      24     H     0.42342  0.42342  0.00000  0.15316
      25     H     0.42159  0.42159  0.00000  0.15683
      26     H     0.41933  0.41933  0.00000  0.16134
      27     H     0.42169  0.42169  0.00000  0.15662

   Total alpha = 37.00000, Total beta = 37.00000, Total charge =  0.00000
