                              Psi4 1.0.54 Driver

  ==> Input File <==

--------------------------------------------------------------------------
set {
	reference rhf
	basis cc-pvtz
}

set_num_threads( 4 )
memory 2 gb

molecule MOL {
0 1

H	 3.721907	 -0.933076	 -0.066039
O	 2.824271	 -1.154299	 0.131461
C	 2.076458	 -0.067370	 -0.038225
C	 0.626018	 -0.337582	 0.258241
O	 2.538288	 0.965419	 -0.381593
C	 -0.267326	 0.883135	 0.076490
H	 0.325620	 -1.161483	 -0.378003
H	 0.574537	 -0.713685	 1.275261
C	 -1.726822	 0.642622	 0.463839
H	 -0.210803	 1.217591	 -0.953497
H	 0.129920	 1.693110	 0.675679
C	 -2.480891	 -0.340606	 -0.429852
H	 -2.243098	 1.597649	 0.438609
H	 -1.776542	 0.301208	 1.495542
C	 -3.978759	 -0.057843	 -0.483800
H	 -2.069744	 -0.296138	 -1.434846
H	 -2.327756	 -1.357051	 -0.081504
H	 -4.489255	 -0.766951	 -1.125082
H	 -4.175246	 0.937373	 -0.868035
H	 -4.424892	 -0.123835	 0.502995

	symmetry c1
}
set optking {
	frozen_dihedral = ("
		16 12 9 6
	")
}

ee,wfn = optimize('scf', return_wfn=True)
oeprop( wfn, 'DIPOLE', 'QUADRUPOLE', 'MULLIKEN_CHARGES')
f=open( 'psi4out.xyz', 'w' )
f.write( "20  " )
f.write( str(ee) + "\n" )
f.write( MOL.save_string_xyz() )
f.close()
--------------------------------------------------------------------------

    Molecular point group: c1
  Charge       = 0
  Multiplicity = 1
  Basis Set: CC-PVTZ
  Basis Set:
  @DF-RHF Final Energy:  -384.09304083194661
    Total Energy =                       -384.0930408319459275
    Molecular point group: c1
  Basis Set: CC-PVTZ
  Basis Set:
  Basis Set: CC-PVTZ
  Basis Set:
  @DF-RHF Final Energy:  -384.09316773709924
    Total Energy =                       -384.0931677370994066
  Basis Set: CC-PVTZ
  Basis Set:
  Basis Set: CC-PVTZ
  Basis Set:
  @DF-RHF Final Energy:  -384.09328199486748
    Total Energy =                       -384.0932819948669703
  Basis Set: CC-PVTZ
  Basis Set:
  Basis Set: CC-PVTZ
  Basis Set:
  @DF-RHF Final Energy:  -384.09325960156195
    Total Energy =                       -384.0932596015622948
  Basis Set: CC-PVTZ
  Basis Set:
  Basis Set: CC-PVTZ
  Basis Set:
  @DF-RHF Final Energy:  -384.09323091499670
    Total Energy =                       -384.0932309149966386
  Basis Set: CC-PVTZ
  Basis Set:
  Basis Set: CC-PVTZ
  Basis Set:
  @DF-RHF Final Energy:  -384.09331279495035
    Total Energy =                       -384.0933127949502364
  Basis Set: CC-PVTZ
  Basis Set:
  Basis Set: CC-PVTZ
  Basis Set:
  @DF-RHF Final Energy:  -384.09331398049233
    Total Energy =                       -384.0933139804917005
  Basis Set: CC-PVTZ
  Basis Set:
  Charge       = 0
  Multiplicity = 1
  Basis Set: CC-PVTZ
  Basis Set:

    Orbital Energies (a.u.)
    -----------------------

    Doubly Occupied:

       1A    -20.603783     2A    -20.540404     3A    -11.373281
       4A    -11.238474     5A    -11.221119     6A    -11.218854
       7A    -11.218082     8A    -11.210939     9A     -1.477340
      10A     -1.368864    11A     -1.097360    12A     -1.041456
      13A     -0.962642    14A     -0.870450    15A     -0.818899
      16A     -0.777195    17A     -0.703590    18A     -0.692229
      19A     -0.667806    20A     -0.635988    21A     -0.601295
      22A     -0.599074    23A     -0.575491    24A     -0.562638
      25A     -0.536607    26A     -0.514913    27A     -0.497226
      28A     -0.484334    29A     -0.472144    30A     -0.465508
      31A     -0.458303    32A     -0.446050

  @DF-RHF Final Energy:  -384.09331402925142

   => Energetics <=

    Nuclear Repulsion Energy =            376.7768267469345460
    One-Electron Energy =               -1269.8356120573439512
    Two-Electron Energy =                 508.9654712811580453
    DFT Exchange-Correlation Energy =       0.0000000000000000
    Empirical Dispersion Energy =           0.0000000000000000
    PCM Polarization Energy =               0.0000000000000000
    EFP Energy =                            0.0000000000000000
    Total Energy =                       -384.0933140292513031
    Molecular point group: c1
  Basis Set: CC-PVTZ
  Basis Set:

  -Total Gradient:
     Atom            X                  Y                   Z
    ------   -----------------  -----------------  -----------------
       1       -0.000007452638     0.000006220113     0.000001307394
       2       -0.000001105831    -0.000032968922     0.000012595964
       3        0.000006297674     0.000020262494    -0.000034634807
       4        0.000001291594    -0.000007693730    -0.000000571687
       5       -0.000010117392     0.000010891571     0.000014663968
       6       -0.000772246265     0.002111275684    -0.001688044149
       7        0.000001631076    -0.000003392733     0.000003215986
       8        0.000002923207     0.000000686270     0.000007405569
       9        0.001690896574    -0.003631673516     0.002631200305
      10        0.000000811512     0.000003699742    -0.000008682070
      11        0.000001476077     0.000002787827     0.000000766228
      12       -0.003402524455     0.004222017829    -0.001905389924
      13        0.000005528776     0.000001909485    -0.000000970421
      14       -0.000001378158     0.000002374030     0.000008380559
      15        0.000002939335    -0.000000439482     0.000000482075
      16        0.002488827569    -0.002712634272     0.000963194233
      17        0.000002422387     0.000003332515    -0.000001054696
      18       -0.000005959794    -0.000005428267    -0.000008189402
      19       -0.000002959959     0.000012103648    -0.000001188687
      20       -0.000001301282    -0.000003330285     0.000005513566

  **** Optimization is complete! (in 8 steps) ****
    Final optimized geometry and variables:
    Molecular point group: c1

    Geometry (in Angstrom), charge = 0, multiplicity = 1:

    H            3.699736557786    -1.018096626916    -0.045569456187
    O            2.801545858193    -1.225873203936     0.163719171228
    C            2.068654586569    -0.126668751929     0.008483375154
    C            0.618298963026    -0.374639338794     0.323308224317
    O            2.541436657623     0.900381729391    -0.337486865703
    C           -0.258358093421     0.861563580929     0.167209579688
    H            0.291524242106    -1.185695427194    -0.317515909160
    H            0.573653753439    -0.761671671994     1.336518562608
    C           -1.722806684809     0.618013229617     0.530601903532
    H           -0.192901687819     1.220578808996    -0.853505855605
    H            0.140166090745     1.652244658008     0.791150951221
    C           -2.453551254990    -0.379116522375    -0.377532476919
    H           -2.232029778229     1.575630442767     0.475879229379
    H           -1.802055843441     0.296820079851     1.565815097610
    C           -3.958574583284    -0.147279698435    -0.437124472970
    H           -2.027441065093    -0.343477273813    -1.376422514679
    H           -2.269223285322    -1.390754236166    -0.026879139162
    H           -4.447970749821    -0.894262737292    -1.051368118468
    H           -4.187236545883     0.827915597230    -0.853211770364
    H           -4.398853654243    -0.193814141724     0.553601554747

  Mulliken Charges: (a.u.)
   Center  Symbol    Alpha    Beta     Spin     Total
       1     H     0.38235  0.38235  0.00000  0.23530
       2     O     4.16031  4.16031  0.00000 -0.32062
       3     C     2.80395  2.80395  0.00000  0.39211
       4     C     3.10997  3.10997  0.00000 -0.21994
       5     O     4.19125  4.19125  0.00000 -0.38251
       6     C     3.09371  3.09371  0.00000 -0.18743
       7     H     0.43617  0.43617  0.00000  0.12765
       8     H     0.43789  0.43789  0.00000  0.12423
       9     C     3.09968  3.09968  0.00000 -0.19935
      10     H     0.44527  0.44527  0.00000  0.10946
      11     H     0.43999  0.43999  0.00000  0.12002
      12     C     3.09143  3.09143  0.00000 -0.18285
      13     H     0.44709  0.44709  0.00000  0.10581
      14     H     0.45155  0.45155  0.00000  0.09690
      15     C     3.14812  3.14812  0.00000 -0.29624
      16     H     0.45196  0.45196  0.00000  0.09609
      17     H     0.45277  0.45277  0.00000  0.09446
      18     H     0.44837  0.44837  0.00000  0.10327
      19     H     0.45400  0.45400  0.00000  0.09200
      20     H     0.45418  0.45418  0.00000  0.09164

   Total alpha = 32.00000, Total beta = 32.00000, Total charge =  0.00000

*** Psi4 exiting successfully. Buy a developer a beer!
