                              Psi4 1.0.54 Driver

  ==> Input File <==

--------------------------------------------------------------------------
set {
	reference rhf
	basis cc-pvtz
}

set_num_threads( 4 )
memory 2 gb

molecule MOL {
0 1

O	 0.912983	 0.912754	 0.858526
C	 1.121787	 0.124983	 0.000110
C	 0.258803	 -0.093904	 -1.215954
O	 2.167739	 -0.685178	 -0.000678
C	 -0.963489	 0.810986	 -1.271617
H	 0.890831	 0.045223	 -2.086968
H	 -0.026572	 -1.140795	 -1.222519
C	 -1.813660	 0.563654	 -2.514334
H	 -0.643818	 1.846684	 -1.245518
H	 -1.562424	 0.659154	 -0.380680
C	 -3.040243	 1.466922	 -2.581359
H	 -1.207262	 0.714057	 -3.403660
H	 -2.130835	 -0.475676	 -2.535065
H	 -2.754413	 2.513172	 -2.597068
H	 -3.624249	 1.269584	 -3.472802
H	 -3.684750	 1.314740	 -1.722272
C	 3.449556	 -0.089977	 -0.000570
H	 3.585694	 0.522473	 -0.879546
H	 4.155805	 -0.904274	 -0.001389
H	 3.586173	 0.521118	 0.879272

	symmetry c1
}
set optking {
	frozen_dihedral = ("
		1 2 4 17
	")
}

ee,wfn = optimize('scf', return_wfn=True)
oeprop( wfn, 'DIPOLE', 'QUADRUPOLE', 'MULLIKEN_CHARGES')
f=open( 'psi4out.xyz', 'w' )
f.write( "20  " )
f.write( str(ee) + "\n" )
f.write( MOL.save_string_xyz() )
f.close()
--------------------------------------------------------------------------

    Molecular point group: c1
  Charge       = 0
  Multiplicity = 1
  Basis Set: CC-PVTZ
  Basis Set:
  @DF-RHF Final Energy:  -384.06873268195972
    Total Energy =                       -384.0687326819596592
    Molecular point group: c1
  Basis Set: CC-PVTZ
  Basis Set:
  Basis Set: CC-PVTZ
  Basis Set:
  @DF-RHF Final Energy:  -384.06459537570339
    Total Energy =                       -384.0645953757036182
  Basis Set: CC-PVTZ
  Basis Set:
  Basis Set: CC-PVTZ
  Basis Set:
  @DF-RHF Final Energy:  -384.06953054502640
    Total Energy =                       -384.0695305450267369
  Basis Set: CC-PVTZ
  Basis Set:
  Basis Set: CC-PVTZ
  Basis Set:
  @DF-RHF Final Energy:  -384.06962263888522
    Total Energy =                       -384.0696226388855621
  Basis Set: CC-PVTZ
  Basis Set:
  Basis Set: CC-PVTZ
  Basis Set:
  @DF-RHF Final Energy:  -384.06974644684476
    Total Energy =                       -384.0697464468448743
  Basis Set: CC-PVTZ
  Basis Set:
  Basis Set: CC-PVTZ
  Basis Set:
  @DF-RHF Final Energy:  -384.06975120653038
    Total Energy =                       -384.0697512065302135
  Basis Set: CC-PVTZ
  Basis Set:
  Charge       = 0
  Multiplicity = 1
  Basis Set: CC-PVTZ
  Basis Set:

    Orbital Energies (a.u.)
    -----------------------

    Doubly Occupied:

       1A    -20.582186     2A    -20.542434     3A    -11.367160
       4A    -11.284424     5A    -11.236132     6A    -11.219816
       7A    -11.218771     8A    -11.209789     9A     -1.463775
      10A     -1.368176    11A     -1.090783    12A     -1.022483
      13A     -0.969390    14A     -0.892110    15A     -0.806502
      16A     -0.766935    17A     -0.698296    18A     -0.681018
      19A     -0.676143    20A     -0.644825    21A     -0.610426
      22A     -0.593215    23A     -0.585185    24A     -0.547511
      25A     -0.536918    26A     -0.515430    27A     -0.503700
      28A     -0.484992    29A     -0.478018    30A     -0.471741
      31A     -0.455589    32A     -0.436461

  @DF-RHF Final Energy:  -384.06975165117257

   => Energetics <=

    Nuclear Repulsion Energy =            381.2268036032278928
    One-Electron Energy =               -1278.6724405999113969
    Two-Electron Energy =                 513.3758853455115059
    DFT Exchange-Correlation Energy =       0.0000000000000000
    Empirical Dispersion Energy =           0.0000000000000000
    PCM Polarization Energy =               0.0000000000000000
    EFP Energy =                            0.0000000000000000
    Total Energy =                       -384.0697516511720551
    Molecular point group: c1
  Basis Set: CC-PVTZ
  Basis Set:

  -Total Gradient:
     Atom            X                  Y                   Z
    ------   -----------------  -----------------  -----------------
       1       -0.005153220133    -0.005234209951     0.004220521720
       2        0.007732780646     0.007498698522    -0.009414624727
       3        0.000021468821     0.000048071474    -0.000021875109
       4       -0.002918462751    -0.001950433940     0.011888515361
       5       -0.000015272277    -0.000019009147    -0.000001224914
       6       -0.000005319447    -0.000009334648     0.000006108872
       7       -0.000009037868     0.000006197592     0.000013970233
       8       -0.000003853360    -0.000002718666    -0.000004009432
       9        0.000002003529     0.000000099236    -0.000002166730
      10        0.000003954598    -0.000002301853    -0.000002951051
      11        0.000009449799     0.000002946225     0.000005617077
      12       -0.000000800863     0.000000001541     0.000004195369
      13        0.000000600782     0.000001951606     0.000003858890
      14       -0.000002200985     0.000000419320    -0.000000618983
      15        0.000010640814    -0.000001093449     0.000005230592
      16        0.000001858755    -0.000001778281    -0.000002786672
      17        0.000359236189    -0.000304662080    -0.006695912680
      18       -0.000002577703    -0.000018335300     0.000014927071
      19       -0.000024210415     0.000009490065    -0.000002842503
      20       -0.000007038131    -0.000023998262    -0.000013932383

  **** Optimization is complete! (in 7 steps) ****
    Final optimized geometry and variables:
    Molecular point group: c1

    Geometry (in Angstrom), charge = 0, multiplicity = 1:

    O            0.673501136902     0.653750049890     1.602146092528
    C            0.852752061203    -0.182427105450     0.791146226990
    C           -0.035848577708    -0.449633101025    -0.393934478758
    O            1.846471648735    -1.081058674623     0.889277255263
    C           -1.259912107206     0.450219307192    -0.473086566134
    H            0.582753656565    -0.352594155627    -1.282269262832
    H           -0.314284930388    -1.497505442932    -0.348052342223
    C           -2.131404984004     0.144101144334    -1.687674775958
    H           -0.941834341319     1.486457291714    -0.500840700227
    H           -1.842839197641     0.339398365239     0.434511004692
    C           -3.361260080799     1.041161370356    -1.774721690969
    H           -1.541249971465     0.254118173552    -2.593779116800
    H           -2.446087424683    -0.895577261482    -1.654411166560
    H           -3.078567348558     2.086106602815    -1.843804199540
    H           -3.960222757625     0.801683055594    -2.645626041822
    H           -3.990178864433     0.927621531323    -0.898337238869
    C            3.165848320695    -0.580223424333     0.932261241279
    H            3.419189540738    -0.105148750559    -0.008384512177
    H            3.813582353782    -1.427496683643     1.088333358261
    H            3.285778616134     0.125686878376     1.741278843816

  Mulliken Charges: (a.u.)
   Center  Symbol    Alpha    Beta     Spin     Total
       1     O     4.17843  4.17843  0.00000 -0.35686
       2     C     2.79450  2.79450  0.00000  0.41101
       3     C     3.10728  3.10728  0.00000 -0.21457
       4     O     4.16513  4.16513  0.00000 -0.33026
       5     C     3.08297  3.08297  0.00000 -0.16594
       6     H     0.44470  0.44470  0.00000  0.11060
       7     H     0.43698  0.43698  0.00000  0.12603
       8     C     3.08622  3.08622  0.00000 -0.17243
       9     H     0.44695  0.44695  0.00000  0.10610
      10     H     0.44586  0.44586  0.00000  0.10828
      11     C     3.14930  3.14930  0.00000 -0.29861
      12     H     0.45558  0.45558  0.00000  0.08883
      13     H     0.45465  0.45465  0.00000  0.09070
      14     H     0.45398  0.45398  0.00000  0.09203
      15     H     0.44821  0.44821  0.00000  0.10357
      16     H     0.45351  0.45351  0.00000  0.09299
      17     C     3.03638  3.03638  0.00000 -0.07276
      18     H     0.46615  0.46615  0.00000  0.06770
      19     H     0.44537  0.44537  0.00000  0.10926
      20     H     0.44785  0.44785  0.00000  0.10431

   Total alpha = 32.00000, Total beta = 32.00000, Total charge = -0.00000

*** Psi4 exiting successfully. Buy a developer a beer!
