  ==> Input File <==

--------------------------------------------------------------------------
set {
	reference rhf
	basis cc-pvtz
}

set_num_threads( 4 )
memory 2 gb

molecule MOL {
0 1

H	 2.828711	 -0.346904	 0.001083
C	 1.876752	 0.015931	 -0.363450
C	 0.776285	 -0.474665	 0.563092
H	 1.728113	 -0.357244	 -1.367440
H	 1.906171	 1.096574	 -0.386153
N	 -0.540022	 0.017605	 0.071630
H	 0.707111	 -1.548969	 0.573035
H	 0.886169	 -0.084184	 1.560432
O	 -1.474474	 -0.128070	 0.785614
O	 -0.569065	 0.495995	 -1.012204

	symmetry c1
}
set optking {
	frozen_dihedral = ("
		9 6 3 2
	")
}

ee = optimize('scf')
oeprop('DIPOLE', 'QUADRUPOLE', 'MULLIKEN_CHARGES')
f=open( 'psi4out.xyz', 'w' )
f.write( "10  " )
f.write( str(ee) + "\n" )
f.write( MOL.save_string_xyz() )
f.close()
--------------------------------------------------------------------------

    Molecular point group: c1
  Charge       = 0
  Multiplicity = 1
  Basis Set: CC-PVTZ
  Basis Set:
  @DF-RHF Final Energy:  -282.81112833928285
    Total Energy =                       -282.8111283392827886
    Molecular point group: c1
  Basis Set: CC-PVTZ
  Basis Set:
  Basis Set: CC-PVTZ
  Basis Set:
  @DF-RHF Final Energy:  -282.81220638862959
    Total Energy =                       -282.8122063886295905
  Basis Set: CC-PVTZ
  Basis Set:
  Basis Set: CC-PVTZ
  Basis Set:
  @DF-RHF Final Energy:  -282.81275928024047
    Total Energy =                       -282.8127592802405843
  Basis Set: CC-PVTZ
  Basis Set:
  Basis Set: CC-PVTZ
  Basis Set:
  @DF-RHF Final Energy:  -282.81186442785724
    Total Energy =                       -282.8118644278571310
  Basis Set: CC-PVTZ
  Basis Set:
  Basis Set: CC-PVTZ
  Basis Set:
  @DF-RHF Final Energy:  -282.81288186993197
    Total Energy =                       -282.8128818699320846
  Basis Set: CC-PVTZ
  Basis Set:
  Basis Set: CC-PVTZ
  Basis Set:
  @DF-RHF Final Energy:  -282.81288916411967
    Total Energy =                       -282.8128891641197811
  Basis Set: CC-PVTZ
  Basis Set:
  Charge       = 0
  Multiplicity = 1
  Basis Set: CC-PVTZ
  Basis Set:

    Orbital Energies (a.u.)
    -----------------------

    Doubly Occupied:

       1A    -20.594921     2A    -20.588860     3A    -15.839650
       4A    -11.303284     5A    -11.243613     6A     -1.638642
       7A     -1.422910     8A     -1.123931     9A     -0.966914
      10A     -0.834888    11A     -0.762710    12A     -0.753584
      13A     -0.732215    14A     -0.638603    15A     -0.594959
      16A     -0.564111    17A     -0.538772    18A     -0.490376
      19A     -0.479931    20A     -0.455217

  @DF-RHF Final Energy:  -282.81288924930038

   => Energetics <=

    Nuclear Repulsion Energy =            186.5758560963853654
    One-Electron Energy =                -755.6413121743912598
    Two-Electron Energy =                 286.2525668287055396
    DFT Exchange-Correlation Energy =       0.0000000000000000
    Empirical Dispersion Energy =           0.0000000000000000
    PCM Polarization Energy =               0.0000000000000000
    EFP Energy =                            0.0000000000000000
    Total Energy =                       -282.8128892493003832
    Molecular point group: c1
  Basis Set: CC-PVTZ
  Basis Set:

  -Total Gradient:
     Atom            X                  Y                   Z
    ------   -----------------  -----------------  -----------------
       1       -0.000009725385    -0.000001804413     0.000006257761
       2       -0.000018192817    -0.000032866935    -0.000031832245
       3        0.000007228484     0.000017765270     0.000024357632
       4        0.000000347214    -0.000000587592     0.000004496409
       5        0.000004243548     0.000009492731    -0.000003994938
       6        0.000035123059     0.000067768083     0.000052375457
       7       -0.000000837193    -0.000010193332     0.000008967482
       8       -0.000003191382     0.000001802074    -0.000004199568
       9        0.000006810983    -0.000051133515    -0.000057712993
      10       -0.000021806509    -0.000000242373     0.000001285003

  **** Optimization is complete! (in 7 steps) ****
    Final optimized geometry and variables:
    Molecular point group: c1

    Geometry (in Angstrom), charge = 0, multiplicity = 1:

    H            2.858272078278    -0.351563771644     0.039314186448
    C            1.929111853442     0.021162765511    -0.374388623875
    C            0.799030335505    -0.439284084034     0.516585575919
    H            1.820473989782    -0.357755427019    -1.379265952737
    H            1.981031181660     1.099768093822    -0.418481446519
    N           -0.547735426854     0.026324395980     0.064057264871
    H            0.709920746729    -1.515270317641     0.550984249568
    H            0.885195684045    -0.079799090660     1.529233182665
    O           -1.439699007689    -0.151332668892     0.824305549682
    O           -0.647665372333     0.517879174701    -1.007342740312

  Mulliken Charges: (a.u.)
   Center  Symbol    Alpha    Beta     Spin     Total
       1     H     0.44934  0.44934  0.00000  0.10132
       2     C     3.13842  3.13842  0.00000 -0.27685
       3     C     3.04366  3.04366  0.00000 -0.08733
       4     H     0.44015  0.44015  0.00000  0.11970
       5     H     0.44307  0.44307  0.00000  0.11386
       6     N     3.27618  3.27618  0.00000  0.44764
       7     H     0.43415  0.43415  0.00000  0.13171
       8     H     0.43217  0.43217  0.00000  0.13566
       9     O     4.17344  4.17344  0.00000 -0.34687
      10     O     4.16942  4.16942  0.00000 -0.33884

   Total alpha = 20.00000, Total beta = 20.00000, Total charge = -0.00000
