                              Psi4 1.0.54 Driver

  ==> Input File <==

--------------------------------------------------------------------------
set {
	reference rhf
	basis cc-pvtz
}

set_num_threads( 4 )
memory 2 gb

molecule MOL {
0 1

O	 0.074770	 1.259872	 0.000487
C	 0.029490	 0.077183	 0.000078
C	 -1.232113	 -0.748027	 0.000015
O	 1.106773	 -0.690081	 -0.000204
C	 -2.501422	 0.088592	 -0.000052
H	 -1.188777	 -1.400384	 -0.865133
H	 -1.188857	 -1.400312	 0.865225
H	 -2.548170	 0.725504	 -0.873205
H	 -3.371613	 -0.556398	 -0.000040
H	 -2.548215	 0.725571	 0.873047
C	 1.635439	 -1.066807	 1.255277
H	 1.928572	 -0.195758	 1.822359
H	 2.496103	 -1.680367	 1.044025
H	 0.907618	 -1.627967	 1.822392

	symmetry c1
}
set optking {
	frozen_dihedral = ("
		11 4 2 3
	")
}

ee,wfn = optimize('scf', return_wfn=True)
oeprop( wfn, 'DIPOLE', 'QUADRUPOLE', 'MULLIKEN_CHARGES')
f=open( 'psi4out.xyz', 'w' )
f.write( "14  " )
f.write( str(ee) + "\n" )
f.write( MOL.save_string_xyz() )
f.close()
--------------------------------------------------------------------------

    Molecular point group: c1
  Charge       = 0
  Multiplicity = 1
  Basis Set: CC-PVTZ
  Basis Set:
  @DF-RHF Final Energy:  -305.96676233117779
    Total Energy =                       -305.9667623311779039
    Molecular point group: c1
  Basis Set: CC-PVTZ
  Basis Set:
  Basis Set: CC-PVTZ
  Basis Set:
  @DF-RHF Final Energy:  -305.96784951084908
    Total Energy =                       -305.9678495108491347
  Basis Set: CC-PVTZ
  Basis Set:
  Basis Set: CC-PVTZ
  Basis Set:
  @DF-RHF Final Energy:  -305.96767285427427
    Total Energy =                       -305.9676728542742126
  Basis Set: CC-PVTZ
  Basis Set:
  Basis Set: CC-PVTZ
  Basis Set:
  @DF-RHF Final Energy:  -305.96806239848871
    Total Energy =                       -305.9680623984886552
  Basis Set: CC-PVTZ
  Basis Set:
  Basis Set: CC-PVTZ
  Basis Set:
  @DF-RHF Final Energy:  -305.96808064358629
    Total Energy =                       -305.9680806435863474
  Basis Set: CC-PVTZ
  Basis Set:
  Charge       = 0
  Multiplicity = 1
  Basis Set: CC-PVTZ
  Basis Set:

    Orbital Energies (a.u.)
    -----------------------

    Doubly Occupied:

       1A    -20.578546     2A    -20.546840     3A    -11.368661
       4A    -11.289864     5A    -11.242187     6A    -11.218335
       7A     -1.462617     8A     -1.370891     9A     -1.064210
      10A     -0.976685    11A     -0.893566    12A     -0.767766
      13A     -0.702886    14A     -0.681126    15A     -0.674409
      16A     -0.625388    17A     -0.616079    18A     -0.557298
      19A     -0.546832    20A     -0.526505    21A     -0.511785
      22A     -0.494397    23A     -0.459731    24A     -0.440393

  @DF-RHF Final Energy:  -305.96808154499138

   => Energetics <=

    Nuclear Repulsion Energy =            247.1303393177059604
    One-Electron Energy =                -906.9628452947808910
    Two-Electron Energy =                 353.8644244320834673
    DFT Exchange-Correlation Energy =       0.0000000000000000
    Empirical Dispersion Energy =           0.0000000000000000
    PCM Polarization Energy =               0.0000000000000000
    EFP Energy =                            0.0000000000000000
    Total Energy =                       -305.9680815449914348
    Molecular point group: c1
  Basis Set: CC-PVTZ
  Basis Set:

  -Total Gradient:
     Atom            X                  Y                   Z
    ------   -----------------  -----------------  -----------------
       1       -0.000042041535    -0.000031991526     0.000005618993
       2       -0.000539319847    -0.001079708390    -0.003096539514
       3        0.000077090765     0.000098216646     0.002120562319
       4        0.001814660659     0.003045454476     0.000843568668
       5       -0.000039567578     0.000009097457     0.000013804305
       6        0.000004904140    -0.000000881776     0.000021438792
       7        0.000010339085     0.000003410644     0.000007869663
       8        0.000000792754    -0.000003793853     0.000004584260
       9       -0.000004873170     0.000006841582    -0.000001912915
      10        0.000001104785    -0.000006120595    -0.000010991566
      11       -0.001307758540    -0.002025643694     0.000084079421
      12       -0.000001544615    -0.000020191566    -0.000020107715
      13       -0.000000938924     0.000006157318     0.000011085063
      14        0.000027152023    -0.000000846722     0.000016940226

  **** Optimization is complete! (in 6 steps) ****
    Final optimized geometry and variables:
    Molecular point group: c1

    Geometry (in Angstrom), charge = 0, multiplicity = 1:

    O            0.156424647168     1.421913690429    -0.268445156127
    C            0.137557446368     0.247008326647    -0.226868630886
    C           -1.112715296277    -0.594683353295    -0.205134606573
    O            1.278016464587    -0.476673551186    -0.221254534365
    C           -2.399197714838     0.215183804508    -0.205786723291
    H           -1.060043957504    -1.255908086843    -1.063824767325
    H           -1.057745458085    -1.241721021138     0.664271495069
    H           -2.460918041433     0.842937068401    -1.084339402633
    H           -3.257084649677    -0.445982746300    -0.196076263776
    H           -2.454440688754     0.859411542971     0.661732199047
    C            1.827092597061    -0.799002661622     1.035673181497
    H            2.065085280907     0.099696439080     1.590387077664
    H            2.732053306978    -1.352864494187     0.846186102897
    H            1.150467900624    -1.416077561784     1.616025667928

  Mulliken Charges: (a.u.)
   Center  Symbol    Alpha    Beta     Spin     Total
       1     O     4.16815  4.16815  0.00000 -0.33629
       2     C     2.78996  2.78996  0.00000  0.42007
       3     C     3.10595  3.10595  0.00000 -0.21189
       4     O     4.16807  4.16807  0.00000 -0.33614
       5     C     3.13889  3.13889  0.00000 -0.27777
       6     H     0.43936  0.43936  0.00000  0.12128
       7     H     0.44600  0.44600  0.00000  0.10800
       8     H     0.44570  0.44570  0.00000  0.10860
       9     H     0.45051  0.45051  0.00000  0.09899
      10     H     0.44910  0.44910  0.00000  0.10179
      11     C     3.03422  3.03422  0.00000 -0.06844
      12     H     0.45478  0.45478  0.00000  0.09044
      13     H     0.44228  0.44228  0.00000  0.11544
      14     H     0.46704  0.46704  0.00000  0.06593

   Total alpha = 24.00000, Total beta = 24.00000, Total charge = -0.00000

*** Psi4 exiting successfully. Buy a developer a beer!
