  ==> Input File <==

--------------------------------------------------------------------------
set {
	reference rhf
	basis cc-pvtz
}

set_num_threads( 4 )
memory 2 gb

molecule MOL {
0 1

H	 -3.941973	 0.934228	 -0.390224
C	 -3.240162	 0.342701	 0.161016
C	 -2.105997	 -0.000418	 -0.398703
H	 -3.485368	 0.047206	 1.162193
O	 -1.189946	 -0.765863	 0.237511
H	 -1.846458	 0.297311	 -1.398265
C	 0.026572	 -0.995256	 -0.379403
C	 1.057223	 0.049888	 -0.004615
H	 -0.054361	 -1.010670	 -1.459674
H	 0.397526	 -1.952058	 -0.044198
F	 1.373405	 0.756677	 -1.071179
F	 0.602491	 0.883372	 0.906445
F	 2.157618	 -0.488244	 0.462293

	symmetry c1
}
set optking {
	frozen_dihedral = ("
		11 8 7 9
	")
}

ee = optimize('scf')
oeprop('DIPOLE', 'QUADRUPOLE', 'MULLIKEN_CHARGES')
f=open( 'psi4out.xyz', 'w' )
f.write( "13  " )
f.write( str(ee) + "\n" )
f.write( MOL.save_string_xyz() )
f.close()
--------------------------------------------------------------------------

    Molecular point group: c1
  Charge       = 0
  Multiplicity = 1
  Basis Set: CC-PVTZ
  Basis Set:
  @DF-RHF Final Energy:  -527.73461808797288
    Total Energy =                       -527.7346180879727626
    Molecular point group: c1
  Basis Set: CC-PVTZ
  Basis Set:
  Basis Set: CC-PVTZ
  Basis Set:
  @DF-RHF Final Energy:  -527.73550722634877
    Total Energy =                       -527.7355072263490001
  Basis Set: CC-PVTZ
  Basis Set:
  Basis Set: CC-PVTZ
  Basis Set:
  @DF-RHF Final Energy:  -527.73577315642706
    Total Energy =                       -527.7357731564268306
  Basis Set: CC-PVTZ
  Basis Set:
  Basis Set: CC-PVTZ
  Basis Set:
  @DF-RHF Final Energy:  -527.73580813183730
    Total Energy =                       -527.7358081318369614
  Basis Set: CC-PVTZ
  Basis Set:
  Basis Set: CC-PVTZ
  Basis Set:
  @DF-RHF Final Energy:  -527.73581876133483
    Total Energy =                       -527.7358187613345990
  Basis Set: CC-PVTZ
  Basis Set:
  Basis Set: CC-PVTZ
  Basis Set:
  @DF-RHF Final Energy:  -527.73582352010908
    Total Energy =                       -527.7358235201095340
  Basis Set: CC-PVTZ
  Basis Set:
  Basis Set: CC-PVTZ
  Basis Set:
  @DF-RHF Final Energy:  -527.73582503301759
    Total Energy =                       -527.7358250330178180
  Basis Set: CC-PVTZ
  Basis Set:
  Charge       = 0
  Multiplicity = 1
  Basis Set: CC-PVTZ
  Basis Set:

    Orbital Energies (a.u.)
    -----------------------

    Doubly Occupied:

       1A    -26.340222     2A    -26.339170     3A    -26.338467
       4A    -20.602770     5A    -11.499432     6A    -11.319788
       7A    -11.298233     8A    -11.214971     9A     -1.750421
      10A     -1.647050    11A     -1.643526    12A     -1.443712
      13A     -1.083760    14A     -1.019299    15A     -0.932319
      16A     -0.843160    17A     -0.837851    18A     -0.827559
      19A     -0.797608    20A     -0.728996    21A     -0.722614
      22A     -0.701270    23A     -0.680211    24A     -0.668794
      25A     -0.661687    26A     -0.649704    27A     -0.635434
      28A     -0.587227    29A     -0.565595    30A     -0.527881
      31A     -0.516477    32A     -0.357522

  @DF-RHF Final Energy:  -527.73582532626449

   => Energetics <=

    Nuclear Repulsion Energy =            413.4200974477023465
    One-Electron Energy =               -1550.7463814211994304
    Two-Electron Energy =                 609.5904586472324809
    DFT Exchange-Correlation Energy =       0.0000000000000000
    Empirical Dispersion Energy =           0.0000000000000000
    PCM Polarization Energy =               0.0000000000000000
    EFP Energy =                            0.0000000000000000
    Total Energy =                       -527.7358253262646031
    Molecular point group: c1
  Basis Set: CC-PVTZ
  Basis Set:

  -Total Gradient:
     Atom            X                  Y                   Z
    ------   -----------------  -----------------  -----------------
       1        0.000003049507     0.000002818822     0.000002056608
       2       -0.000001177443    -0.000003751302    -0.000000643856
       3        0.000027056150    -0.000024413960    -0.000007165884
       4       -0.000000472014    -0.000000793122     0.000000972106
       5       -0.000036483888     0.000011466499     0.000035929218
       6        0.000001024972     0.000007919271    -0.000000250064
       7        0.002647156754    -0.002294375496    -0.000178116420
       8       -0.002393394085     0.001987979995     0.000434167974
       9       -0.001757308891     0.001574457786     0.000055869964
      10       -0.000011909201    -0.000010328053    -0.000007282974
      11        0.001529749940    -0.001231004988    -0.000420473073
      12        0.000019246631    -0.000024597314     0.000051086667
      13       -0.000026538436     0.000004621860     0.000033849735

  **** Optimization is complete! (in 8 steps) ****
    Final optimized geometry and variables:
    Molecular point group: c1

    Geometry (in Angstrom), charge = 0, multiplicity = 1:

    H           -3.865704346597     0.998824760832    -0.354638628859
    C           -3.207806710846     0.338892827018     0.172647566893
    C           -2.066004457007    -0.004706809871    -0.370923547654
    H           -3.502963829517    -0.024980795680     1.137194264239
    O           -1.203834004001    -0.854768892713     0.231225826708
    H           -1.758639917650     0.360850111497    -1.334895389058
    C            0.036702404939    -1.042011196909    -0.351811298771
    C            1.044593278496     0.067646824276    -0.008238170569
    H           -0.042800640634    -1.090867549166    -1.430398786896
    H            0.429202801714    -1.972776397473     0.022303027631
    F            1.358079400899     0.776093058837    -1.077649655355
    F            0.597911838092     0.894187802975     0.900012655953
    F            2.169340284979    -0.454569498594     0.439619228655

  Mulliken Charges: (a.u.)
   Center  Symbol    Alpha    Beta     Spin     Total
       1     H     0.42531  0.42531  0.00000  0.14939
       2     C     3.19482  3.19482  0.00000 -0.38964
       3     C     2.96091  2.96091  0.00000  0.07818
       4     H     0.42476  0.42476  0.00000  0.15049
       5     O     4.13923  4.13923  0.00000 -0.27847
       6     H     0.43400  0.43400  0.00000  0.13199
       7     C     3.03241  3.03241  0.00000 -0.06481
       8     C     2.67335  2.67335  0.00000  0.65331
       9     H     0.45507  0.45507  0.00000  0.08987
      10     H     0.43363  0.43363  0.00000  0.13273
      11     F     4.61368  4.61368  0.00000 -0.22737
      12     F     4.60169  4.60169  0.00000 -0.20338
      13     F     4.61115  4.61115  0.00000 -0.22230

   Total alpha = 32.00000, Total beta = 32.00000, Total charge = -0.00000
