  ==> Input File <==

--------------------------------------------------------------------------
set {
	reference rhf
	basis 6-31G*
}

set_num_threads( 4 )
memory 2 gb

molecule MOL {
0 1

H	 2.866480	 -0.465706	 0.876907
C	 2.405773	 -0.024801	 0.000000
N	 0.988830	 -0.304158	 0.000000
H	 2.866480	 -0.465706	 -0.876907
H	 2.629928	 1.045948	 0.000000
C	 0.534705	 -0.861365	 -1.260658
C	 0.196083	 0.856178	 0.362134
H	 0.698149	 -0.166097	 -2.090349
H	 1.097180	 -1.765335	 -1.472096
C	 -0.945774	 -1.193392	 -1.171614
H	 0.510604	 1.209871	 1.338978
H	 0.334852	 1.676603	 -0.349305
C	 -1.275416	 0.478605	 0.408144
H	 -1.321901	 -1.526848	 -2.129921
H	 -1.098385	 -1.987745	 -0.443134
O	 -1.691470	 -0.063935	 -0.813537
H	 -1.889312	 1.351147	 0.589304
H	 -1.443536	 -0.237084	 1.210949

	symmetry c1
}
set optking {
	frozen_dihedral = ("
		6 3 2 5
	")
}

ee = optimize('scf')
oeprop('DIPOLE', 'QUADRUPOLE', 'MULLIKEN_CHARGES')
f=open( 'psi4out.xyz', 'w' )
f.write( "18  " )
f.write( str(ee) + "\n" )
f.write( MOL.save_string_xyz() )
f.close()
--------------------------------------------------------------------------

    Molecular point group: c1
  Charge       = 0
  Multiplicity = 1
  Basis Set: 6-31G*
  Basis Set:
  @DF-RHF Final Energy:  -325.02244394087938
    Total Energy =                       -325.0224439408795547
    Molecular point group: c1
  Basis Set: 6-31G*
  Basis Set:
  Basis Set: 6-31G*
  Basis Set:
  @DF-RHF Final Energy:  -325.02306357684580
    Total Energy =                       -325.0230635768455727
  Basis Set: 6-31G*
  Basis Set:
  Basis Set: 6-31G*
  Basis Set:
  @DF-RHF Final Energy:  -325.02321238203081
    Total Energy =                       -325.0232123820308061
  Basis Set: 6-31G*
  Basis Set:
  Basis Set: 6-31G*
  Basis Set:
  @DF-RHF Final Energy:  -325.02322092200149
    Total Energy =                       -325.0232209220014283
  Basis Set: 6-31G*
  Basis Set:
  Charge       = 0
  Multiplicity = 1
  Basis Set: 6-31G*
  Basis Set:

    Orbital Energies (a.u.)
    -----------------------

    Doubly Occupied:

       1A    -20.553317     2A    -15.545081     3A    -11.265345
       4A    -11.265248     5A    -11.244014     6A    -11.243859
       7A    -11.240909     8A     -1.382553     9A     -1.227118
      10A     -1.038183    11A     -0.980258    12A     -0.882558
      13A     -0.869624    14A     -0.772966    15A     -0.682677
      16A     -0.643887    17A     -0.643004    18A     -0.631902
      19A     -0.625169    20A     -0.569596    21A     -0.558801
      22A     -0.545105    23A     -0.527793    24A     -0.500115
      25A     -0.485410    26A     -0.451732    27A     -0.407084
      28A     -0.344144

  @DF-RHF Final Energy:  -325.02322153504525

   => Energetics <=

    Nuclear Repulsion Energy =            340.9119946127306662
    One-Electron Energy =               -1117.6155286965931737
    Two-Electron Energy =                 451.6803125488174828
    DFT Exchange-Correlation Energy =       0.0000000000000000
    Empirical Dispersion Energy =           0.0000000000000000
    PCM Polarization Energy =               0.0000000000000000
    EFP Energy =                            0.0000000000000000
    Total Energy =                       -325.0232215350449678
    Molecular point group: c1
  Basis Set: 6-31G*
  Basis Set:

  -Total Gradient:
     Atom            X                  Y                   Z
    ------   -----------------  -----------------  -----------------
       1       -0.000004616197     0.000007550317    -0.000011695408
       2        0.000433694886    -0.001150782831    -0.004077377313
       3       -0.000648077642     0.003519087302    -0.000443785405
       4       -0.000014920416    -0.000006625901     0.000011846669
       5       -0.000184467924     0.000101209969     0.003509969970
       6        0.000400175739    -0.002472242713     0.001016164778
       7        0.000028307512     0.000012497734     0.000012065534
       8       -0.000003862375    -0.000003246042     0.000001405126
       9       -0.000005981930    -0.000003067575    -0.000011376005
      10       -0.000020179423     0.000001247872     0.000004233183
      11       -0.000006193157     0.000010975945     0.000005283333
      12        0.000005464595    -0.000000780184    -0.000002918219
      13       -0.000001115098    -0.000028543965     0.000004272400
      14       -0.000011455146     0.000007433610     0.000005221046
      15        0.000015859649    -0.000010499100    -0.000005279090
      16        0.000011839462     0.000017939809    -0.000025587766
      17        0.000001801127    -0.000007661344    -0.000010180691
      18        0.000003726340     0.000005507096     0.000017737860

  **** Optimization is complete! (in 5 steps) ****
    Final optimized geometry and variables:
    Molecular point group: c1

    Geometry (in Angstrom), charge = 0, multiplicity = 1:

    H            2.807274317477    -0.286856052558     1.299000342627
    C            2.392493193413     0.115950811725     0.378993782757
    N            0.961181837362    -0.122032729216     0.317696486874
    H            2.901156124404    -0.360272251702    -0.450589917491
    H            2.632470432394     1.177929785456     0.359837186778
    C            0.495000899794    -0.700976019785    -0.926672963378
    C            0.163214736872     1.017988750703     0.717806911971
    H            0.635796611201    -0.023118089579    -1.774980761795
    H            1.057279569684    -1.606236109219    -1.129800628196
    C           -0.980798361987    -1.044009534308    -0.805438307638
    H            0.489156347727     1.353425255512     1.697551044837
    H            0.280507578188     1.857054617531     0.024301682408
    C           -1.302772928274     0.622502841008     0.782333000156
    H           -1.374602248354    -1.385860498525    -1.753775160985
    H           -1.110928751735    -1.835194533572    -0.069175172470
    O           -1.728417863177     0.080789928633    -0.436457468942
    H           -1.925273415114     1.486154171186     0.976888144907
    H           -1.450763178623    -0.100070348201     1.582882919575

  Mulliken Charges: (a.u.)
   Center  Symbol    Alpha    Beta     Spin     Total
       1     H     0.41582  0.41582  0.00000  0.16837
       2     C     3.13849  3.13849  0.00000 -0.27699
       3     N     3.79496  3.79496  0.00000 -0.58992
       4     H     0.41910  0.41910  0.00000  0.16180
       5     H     0.42557  0.42557  0.00000  0.14886
       6     C     3.06496  3.06496  0.00000 -0.12993
       7     C     3.06557  3.06557  0.00000 -0.13113
       8     H     0.42911  0.42911  0.00000  0.14177
       9     H     0.41700  0.41700  0.00000  0.16600
      10     C     2.99792  2.99792  0.00000  0.00417
      11     H     0.41681  0.41681  0.00000  0.16639
      12     H     0.42868  0.42868  0.00000  0.14264
      13     C     2.99764  2.99764  0.00000  0.00472
      14     H     0.41365  0.41365  0.00000  0.17270
      15     H     0.42446  0.42446  0.00000  0.15107
      16     O     4.31222  4.31222  0.00000 -0.62445
      17     H     0.41362  0.41362  0.00000  0.17276
      18     H     0.42442  0.42442  0.00000  0.15117

   Total alpha = 28.00000, Total beta = 28.00000, Total charge =  0.00000
