                              Psi4 1.0.54 Driver

  ==> Input File <==

--------------------------------------------------------------------------
set {
	reference rhf
	basis cc-pvtz
}

set_num_threads( 4 )
memory 2 gb

molecule MOL {
0 1

H	 1.355369	 0.588532	 -2.583115
C	 0.625333	 0.406513	 -1.805171
C	 1.322304	 0.099773	 -0.484271
H	 -0.000851	 1.287901	 -1.725056
H	 0.001128	 -0.420950	 -2.122999
C	 0.308557	 -0.162619	 0.622645
H	 1.952528	 0.930976	 -0.193320
H	 1.958093	 -0.770415	 -0.591429
N	 -1.069352	 -0.004081	 0.085342
H	 0.371632	 -1.172932	 0.991288
H	 0.400391	 0.548875	 1.426218
O	 -1.584901	 -0.965470	 -0.377818
O	 -1.548033	 1.079343	 0.130056

	symmetry c1
}
set optking {
	frozen_dihedral = ("
		7 3 6 9
	")
}

ee,wfn = optimize('scf', return_wfn=True)
oeprop( wfn, 'DIPOLE', 'QUADRUPOLE', 'MULLIKEN_CHARGES')
f=open( 'psi4out.xyz', 'w' )
f.write( "13  " )
f.write( str(ee) + "\n" )
f.write( MOL.save_string_xyz() )
f.close()
--------------------------------------------------------------------------

    Molecular point group: c1
  Charge       = 0
  Multiplicity = 1
  Basis Set: CC-PVTZ
  Basis Set:
  @DF-RHF Final Energy:  -321.84847348068644
    Total Energy =                       -321.8484734806862662
    Molecular point group: c1
  Basis Set: CC-PVTZ
  Basis Set:
  Basis Set: CC-PVTZ
  Basis Set:
  @DF-RHF Final Energy:  -321.84758757501413
    Total Energy =                       -321.8475875750142450
  Basis Set: CC-PVTZ
  Basis Set:
  Basis Set: CC-PVTZ
  Basis Set:
  @DF-RHF Final Energy:  -321.85185741628186
    Total Energy =                       -321.8518574162817458
  Basis Set: CC-PVTZ
  Basis Set:
  Basis Set: CC-PVTZ
  Basis Set:
  @DF-RHF Final Energy:  -321.85327534450664
    Total Energy =                       -321.8532753445066987
  Basis Set: CC-PVTZ
  Basis Set:
  Basis Set: CC-PVTZ
  Basis Set:
  @DF-RHF Final Energy:  -321.85334446254910
    Total Energy =                       -321.8533444625490461
  Basis Set: CC-PVTZ
  Basis Set:
  Basis Set: CC-PVTZ
  Basis Set:
  @DF-RHF Final Energy:  -321.85335997481747
    Total Energy =                       -321.8533599748176357
  Basis Set: CC-PVTZ
  Basis Set:
  Basis Set: CC-PVTZ
  Basis Set:
  @DF-RHF Final Energy:  -321.85336170854492
    Total Energy =                       -321.8533617085449805
  Basis Set: CC-PVTZ
  Basis Set:
  Charge       = 0
  Multiplicity = 1
  Basis Set: CC-PVTZ
  Basis Set:

    Orbital Energies (a.u.)
    -----------------------

    Doubly Occupied:

       1A    -20.590867     2A    -20.590388     3A    -15.836905
       4A    -11.297309     5A    -11.255441     6A    -11.227025
       7A     -1.636236     8A     -1.420345     9A     -1.127875
      10A     -1.022229    11A     -0.895930    12A     -0.822519
      13A     -0.753945    14A     -0.738215    15A     -0.729162
      16A     -0.667903    17A     -0.605913    18A     -0.589515
      19A     -0.537925    20A     -0.517332    21A     -0.511520
      22A     -0.480186    23A     -0.475647    24A     -0.453447

  @DF-RHF Final Energy:  -321.85336188343354

   => Energetics <=

    Nuclear Repulsion Energy =            254.7837109059981913
    One-Electron Energy =                -943.7065878410419373
    Two-Electron Energy =                 367.0695150516105514
    DFT Exchange-Correlation Energy =       0.0000000000000000
    Empirical Dispersion Energy =           0.0000000000000000
    PCM Polarization Energy =               0.0000000000000000
    EFP Energy =                            0.0000000000000000
    Total Energy =                       -321.8533618834331946
    Molecular point group: c1
  Basis Set: CC-PVTZ
  Basis Set:

  -Total Gradient:
     Atom            X                  Y                   Z
    ------   -----------------  -----------------  -----------------
       1       -0.000011559905     0.000001501188     0.000007128614
       2       -0.000006544384    -0.000025788230     0.000001769054
       3       -0.000819383152     0.000533295778    -0.000543737725
       4        0.000004520418     0.000002804024    -0.000006400928
       5        0.000007306999     0.000006480342    -0.000000852041
       6        0.000173488077     0.000868142361     0.000366655476
       7        0.000671799081    -0.000667464559     0.000378018476
       8        0.000001743369     0.000003292171    -0.000000132407
       9       -0.000066277294    -0.000722576394    -0.000224141333
      10        0.000001124476     0.000000782031     0.000005131126
      11        0.000004026641    -0.000003731705     0.000000649805
      12        0.000036469416     0.000014036193    -0.000006780805
      13        0.000003286254    -0.000010773198     0.000022692685

  **** Optimization is complete! (in 8 steps) ****
    Final optimized geometry and variables:
    Molecular point group: c1

    Geometry (in Angstrom), charge = 0, multiplicity = 1:

    H            1.794094978903     0.532569080275    -2.413817535231
    C            1.018497295742     0.357785259388    -1.679331149570
    C            1.667042099213     0.034509578871    -0.334781976646
    H            0.405166497873     1.247350064586    -1.624290199779
    H            0.402247798794    -0.458488266548    -2.032125927868
    C            0.713383111714    -0.256827071176     0.849811812032
    H            2.313578789866     0.851849715123    -0.044577188689
    H            2.304663321991    -0.831697809873    -0.453633532011
    N           -0.718713773448    -0.089993101714     0.483173161207
    H            0.798949425492    -1.275310847211     1.185231467820
    H            0.877424353349     0.422678225291     1.667517382758
    O           -1.292059432352    -1.044788259816     0.077773079030
    O           -1.189267070299     0.991133121635     0.606849344213

  Mulliken Charges: (a.u.)
   Center  Symbol    Alpha    Beta     Spin     Total
       1     H     0.44593  0.44593  0.00000  0.10815
       2     C     3.15372  3.15372  0.00000 -0.30745
       3     C     3.09437  3.09437  0.00000 -0.18874
       4     H     0.44255  0.44255  0.00000  0.11490
       5     H     0.44248  0.44248  0.00000  0.11504
       6     C     3.03947  3.03947  0.00000 -0.07893
       7     H     0.44471  0.44471  0.00000  0.11057
       8     H     0.44553  0.44553  0.00000  0.10894
       9     N     3.27404  3.27404  0.00000  0.45192
      10     H     0.43377  0.43377  0.00000  0.13246
      11     H     0.43309  0.43309  0.00000  0.13381
      12     O     4.17517  4.17517  0.00000 -0.35033
      13     O     4.17517  4.17517  0.00000 -0.35033

   Total alpha = 24.00000, Total beta = 24.00000, Total charge = -0.00000

*** Psi4 exiting successfully. Buy a developer a beer!
