  ==> Input File <==

--------------------------------------------------------------------------
set {
	reference rhf
	basis 6-31G*
}

set_num_threads( 4 )
memory 2 gb

molecule MOL {
0 1

O	 0.829506	 -1.452474	 -2.072515
C	 0.148695	 -1.335350	 -1.105998
C	 -1.257483	 -1.851392	 -0.968410
O	 0.550821	 -0.724572	 0.000672
H	 -1.313273	 -2.544731	 -0.137235
H	 -1.553187	 -2.344252	 -1.882489
H	 -1.929863	 -1.028523	 -0.755401
C	 1.863949	 -0.193559	 -0.000319
H	 2.028859	 0.409284	 -0.881648
H	 2.526261	 -1.045082	 -0.000003
H	 2.029520	 0.410555	 0.880008

	symmetry c1
}
set optking {
	frozen_dihedral = ("
		2 4 8 9
	")
}

ee = optimize('scf')
oeprop('DIPOLE', 'QUADRUPOLE', 'MULLIKEN_CHARGES')
f=open( 'psi4out.xyz', 'w' )
f.write( "11  " )
f.write( str(ee) + "\n" )
f.write( MOL.save_string_xyz() )
f.close()
--------------------------------------------------------------------------

    Molecular point group: c1
  Charge       = 0
  Multiplicity = 1
  Basis Set: 6-31G*
  Basis Set:
  @DF-RHF Final Energy:  -266.83473733518400
    Total Energy =                       -266.8347373351839451
    Molecular point group: c1
  Basis Set: 6-31G*
  Basis Set:
  Basis Set: 6-31G*
  Basis Set:
  @DF-RHF Final Energy:  -266.83594980633939
    Total Energy =                       -266.8359498063392152
  Basis Set: 6-31G*
  Basis Set:
  Basis Set: 6-31G*
  Basis Set:
  @DF-RHF Final Energy:  -266.83624061707633
    Total Energy =                       -266.8362406170762142
  Basis Set: 6-31G*
  Basis Set:
  Basis Set: 6-31G*
  Basis Set:
  @DF-RHF Final Energy:  -266.83556202648305
    Total Energy =                       -266.8355620264831032
  Basis Set: 6-31G*
  Basis Set:
  Basis Set: 6-31G*
  Basis Set:
  @DF-RHF Final Energy:  -266.83626409556405
    Total Energy =                       -266.8362640955641609
  Basis Set: 6-31G*
  Basis Set:
  Basis Set: 6-31G*
  Basis Set:
  @DF-RHF Final Energy:  -266.83626563037376
    Total Energy =                       -266.8362656303736458
  Basis Set: 6-31G*
  Basis Set:
  Charge       = 0
  Multiplicity = 1
  Basis Set: 6-31G*
  Basis Set:

    Orbital Energies (a.u.)
    -----------------------

    Doubly Occupied:

       1A    -20.605842     2A    -20.546505     3A    -11.376596
       4A    -11.282047     5A    -11.234700     6A     -1.471051
       7A     -1.364596     8A     -1.035980     9A     -0.953007
      10A     -0.778269    11A     -0.695966    12A     -0.680841
      13A     -0.677214    14A     -0.595282    15A     -0.592046
      16A     -0.560856    17A     -0.525215    18A     -0.523417
      19A     -0.457712    20A     -0.442369

  @DF-RHF Final Energy:  -266.83626608760437

   => Energetics <=

    Nuclear Repulsion Energy =            183.2956249615442346
    One-Electron Energy =                -727.4647645485877092
    Two-Electron Energy =                 277.3328734994394722
    DFT Exchange-Correlation Energy =       0.0000000000000000
    Empirical Dispersion Energy =           0.0000000000000000
    PCM Polarization Energy =               0.0000000000000000
    EFP Energy =                            0.0000000000000000
    Total Energy =                       -266.8362660876039740
    Molecular point group: c1
  Basis Set: 6-31G*
  Basis Set:

  -Total Gradient:
     Atom            X                  Y                   Z
    ------   -----------------  -----------------  -----------------
       1       -0.000009206749    -0.000008280549    -0.000013303703
       2       -0.000294314571     0.000722652908    -0.000291887627
       3        0.000001346184     0.000000621521     0.000000684956
       4        0.000504188068    -0.001241069034     0.000294471840
       5        0.000001271556    -0.000000367560     0.000000320387
       6        0.000000817172    -0.000000333383    -0.000001104474
       7        0.000003570610     0.000000324693    -0.000001232625
       8       -0.000526626145     0.001318217567     0.000498446584
       9        0.000319614575    -0.000783072535    -0.000481121247
      10        0.000000014938    -0.000003460380     0.000000879061
      11       -0.000000675637    -0.000005233247    -0.000006153155

  **** Optimization is complete! (in 7 steps) ****
    Final optimized geometry and variables:
    Molecular point group: c1

    Geometry (in Angstrom), charge = 0, multiplicity = 1:

    O            0.377872761210    -0.359083489279    -1.253208015957
    C           -0.297391469369    -0.235000004704    -0.283662093388
    C           -1.709263423457    -0.734138874589    -0.141561503007
    O            0.114594859459     0.370684217386     0.822297099392
    H           -1.769871372956    -1.428217491941     0.688687105440
    H           -2.014397600662    -1.222032428632    -1.055126379165
    H           -2.370950975515     0.096334611125     0.075609026759
    C            1.426139004235     0.905947945497     0.815759833644
    H            1.585763935706     1.515176159059    -0.060997987340
    H            2.156090513234     0.108205301395     0.827626893549
    H            1.509650218850     1.498825498557     1.713022219280

  Mulliken Charges: (a.u.)
   Center  Symbol    Alpha    Beta     Spin     Total
       1     O     4.28204  4.28204  0.00000 -0.56408
       2     C     2.62249  2.62249  0.00000  0.75502
       3     C     3.28176  3.28176  0.00000 -0.56352
       4     O     4.29949  4.29949  0.00000 -0.59898
       5     H     0.39983  0.39983  0.00000  0.20033
       6     H     0.39658  0.39658  0.00000  0.20683
       7     H     0.39998  0.39998  0.00000  0.20003
       8     C     3.09296  3.09296  0.00000 -0.18592
       9     H     0.40575  0.40575  0.00000  0.18849
      10     H     0.41072  0.41072  0.00000  0.17855
      11     H     0.40838  0.40838  0.00000  0.18324

   Total alpha = 20.00000, Total beta = 20.00000, Total charge =  0.00000
