  ==> Input File <==

--------------------------------------------------------------------------
set {
	reference rhf
	basis cc-pvtz
}

set_num_threads( 4 )
memory 2 gb

molecule MOL {
0 1

H	 2.190573	 -0.629143	 -0.208718
O	 1.355408	 -0.529451	 0.208662
C	 0.700177	 0.619554	 -0.266242
C	 -0.713111	 0.588314	 0.266177
H	 0.678680	 0.627133	 -1.351786
H	 1.199747	 1.521489	 0.077736
O	 -1.421673	 -0.521378	 -0.196983
H	 -1.244794	 1.469161	 -0.069059
H	 -0.685100	 0.604721	 1.352683
H	 -2.246491	 -0.227079	 -0.542073

	symmetry c1
}
set optking {
	frozen_dihedral = ("
		10 7 4 3
	")
}

ee = optimize('scf')
oeprop('DIPOLE', 'QUADRUPOLE', 'MULLIKEN_CHARGES')
f=open( 'psi4out.xyz', 'w' )
f.write( "10  " )
f.write( str(ee) + "\n" )
f.write( MOL.save_string_xyz() )
f.close()
--------------------------------------------------------------------------

    Molecular point group: c1
  Charge       = 0
  Multiplicity = 1
  Basis Set: CC-PVTZ
  Basis Set:
  @DF-RHF Final Energy:  -229.02066165801887
    Total Energy =                       -229.0206616580187529
    Molecular point group: c1
  Basis Set: CC-PVTZ
  Basis Set:
  Basis Set: CC-PVTZ
  Basis Set:
  @DF-RHF Final Energy:  -229.02193602815908
    Total Energy =                       -229.0219360281590184
  Basis Set: CC-PVTZ
  Basis Set:
  Basis Set: CC-PVTZ
  Basis Set:
  @DF-RHF Final Energy:  -229.02211313796070
    Total Energy =                       -229.0221131379607016
  Basis Set: CC-PVTZ
  Basis Set:
  Basis Set: CC-PVTZ
  Basis Set:
  @DF-RHF Final Energy:  -229.02212572488574
    Total Energy =                       -229.0221257248857967
  Basis Set: CC-PVTZ
  Basis Set:
  Basis Set: CC-PVTZ
  Basis Set:
  @DF-RHF Final Energy:  -229.02212740117355
    Total Energy =                       -229.0221274011737478
  Basis Set: CC-PVTZ
  Basis Set:
  Charge       = 0
  Multiplicity = 1
  Basis Set: CC-PVTZ
  Basis Set:

    Orbital Energies (a.u.)
    -----------------------

    Doubly Occupied:

       1A    -20.545913     2A    -20.545384     3A    -11.268946
       4A    -11.267927     5A     -1.374512     6A     -1.355085
       7A     -1.003374     8A     -0.834863     9A     -0.724387
      10A     -0.694968    11A     -0.637914    12A     -0.598447
      13A     -0.580180    14A     -0.519653    15A     -0.492754
      16A     -0.446870    17A     -0.433871

  @DF-RHF Final Energy:  -229.02212791707052

   => Energetics <=

    Nuclear Repulsion Energy =            133.3162325216705426
    One-Electron Energy =                -578.0266252632374062
    Two-Electron Energy =                 215.6882648244963150
    DFT Exchange-Correlation Energy =       0.0000000000000000
    Empirical Dispersion Energy =           0.0000000000000000
    PCM Polarization Energy =               0.0000000000000000
    EFP Energy =                            0.0000000000000000
    Total Energy =                       -229.0221279170705486
    Molecular point group: c1
  Basis Set: CC-PVTZ
  Basis Set:

  -Total Gradient:
     Atom            X                  Y                   Z
    ------   -----------------  -----------------  -----------------
       1        0.000008517730     0.000003514935     0.000011528625
       2       -0.000014128206    -0.000002540957    -0.000014415015
       3       -0.000076350363     0.000289758034    -0.000380856489
       4        0.000262368859    -0.000317360007     0.000402968564
       5        0.000004447065    -0.000004165994    -0.000023212418
       6       -0.000009937579    -0.000017040194    -0.000019760760
       7       -0.000486019725    -0.000033491836     0.000731179435
       8       -0.000012502247    -0.000014385823     0.000013909720
       9       -0.000007868450    -0.000006472391     0.000010522658
      10        0.000331472914     0.000102184230    -0.000731864321

  **** Optimization is complete! (in 6 steps) ****
    Final optimized geometry and variables:
    Molecular point group: c1

    Geometry (in Angstrom), charge = 0, multiplicity = 1:

    H            2.234179635359    -0.624604354450    -0.178613042053
    O            1.418677851720    -0.512083607772     0.272872337538
    C            0.710027670105     0.565888303870    -0.267261588975
    C           -0.698093422882     0.554898530936     0.278328336395
    H            0.669460725491     0.504911921107    -1.351079238625
    H            1.180570931635     1.509236841176     0.004752585608
    O           -1.427926766033    -0.526573172567    -0.236025629906
    H           -1.170141317866     1.498938010419     0.021888754416
    H           -0.657348351978     0.484424325596     1.359972066156
    H           -2.252033677866    -0.233686738191    -0.573474980247

  Mulliken Charges: (a.u.)
   Center  Symbol    Alpha    Beta     Spin     Total
       1     H     0.39534  0.39534  0.00000  0.20933
       2     O     4.19390  4.19390  0.00000 -0.38781
       3     C     2.95519  2.95519  0.00000  0.08963
       4     C     2.96596  2.96596  0.00000  0.06808
       5     H     0.47623  0.47623  0.00000  0.04754
       6     H     0.47921  0.47921  0.00000  0.04159
       7     O     4.19894  4.19894  0.00000 -0.39788
       8     H     0.47607  0.47607  0.00000  0.04786
       9     H     0.46652  0.46652  0.00000  0.06695
      10     H     0.39264  0.39264  0.00000  0.21471

   Total alpha = 17.00000, Total beta = 17.00000, Total charge =  0.00000
