  ==> Input File <==

--------------------------------------------------------------------------
set {
	reference rhf
	basis 6-31G*
}

set_num_threads( 4 )
memory 2 gb

molecule MOL {
0 1

H	 -2.365627	 -1.312883	 -0.379134
C	 -1.358347	 -1.274295	 0.019669
C	 -0.681945	 0.000119	 -0.470601
H	 -0.826096	 -2.155117	 -0.321105
H	 -1.409554	 -1.292283	 1.100109
C	 -1.357790	 1.274691	 0.020220
N	 0.739525	 -0.000142	 0.006128
H	 -0.594190	 0.000341	 -1.545128
H	 -2.364980	 1.313977	 -0.378631
H	 -0.825080	 2.155361	 -0.320114
H	 -1.409060	 1.292170	 1.100671
O	 1.576960	 -0.361702	 -0.761047
O	 0.942204	 0.362487	 1.125424

	symmetry c1
}
set optking {
	frozen_dihedral = ("
		12 7 3 8
	")
}

ee = optimize('scf')
oeprop('DIPOLE', 'QUADRUPOLE', 'MULLIKEN_CHARGES')
f=open( 'psi4out.xyz', 'w' )
f.write( "13  " )
f.write( str(ee) + "\n" )
f.write( MOL.save_string_xyz() )
f.close()
--------------------------------------------------------------------------

    Molecular point group: c1
  Charge       = 0
  Multiplicity = 1
  Basis Set: 6-31G*
  Basis Set:
  @DF-RHF Final Energy:  -321.73871994900077
    Total Energy =                       -321.7387199490005969
    Molecular point group: c1
  Basis Set: 6-31G*
  Basis Set:
  Basis Set: 6-31G*
  Basis Set:
  @DF-RHF Final Energy:  -321.73380331765287
    Total Energy =                       -321.7338033176527006
  Basis Set: 6-31G*
  Basis Set:
  Basis Set: 6-31G*
  Basis Set:
  @DF-RHF Final Energy:  -321.73882763653802
    Total Energy =                       -321.7388276365379625
  Basis Set: 6-31G*
  Basis Set:
  Basis Set: 6-31G*
  Basis Set:
  @DF-RHF Final Energy:  -321.73903026056553
    Total Energy =                       -321.7390302605654142
  Basis Set: 6-31G*
  Basis Set:
  Basis Set: 6-31G*
  Basis Set:
  @DF-RHF Final Energy:  -321.73903306913394
    Total Energy =                       -321.7390330691341092
  Basis Set: 6-31G*
  Basis Set:
  Charge       = 0
  Multiplicity = 1
  Basis Set: 6-31G*
  Basis Set:

    Orbital Energies (a.u.)
    -----------------------

    Doubly Occupied:

       1A    -20.600081     2A    -20.598826     3A    -15.842930
       4A    -11.306044     5A    -11.248402     6A    -11.243295
       7A     -1.628604     8A     -1.414048     9A     -1.143903
      10A     -0.974306    11A     -0.957907    12A     -0.813895
      13A     -0.750963    14A     -0.727636    15A     -0.722067
      16A     -0.649543    17A     -0.594614    18A     -0.588141
      19A     -0.571859    20A     -0.530161    21A     -0.522807
      22A     -0.482142    23A     -0.469084    24A     -0.447126

  @DF-RHF Final Energy:  -321.73903416913129

   => Energetics <=

    Nuclear Repulsion Energy =            256.8154404181528889
    One-Electron Energy =                -947.4521765908923499
    Two-Electron Energy =                 368.8977020036079466
    DFT Exchange-Correlation Energy =       0.0000000000000000
    Empirical Dispersion Energy =           0.0000000000000000
    PCM Polarization Energy =               0.0000000000000000
    EFP Energy =                            0.0000000000000000
    Total Energy =                       -321.7390341691315143
    Molecular point group: c1
  Basis Set: 6-31G*
  Basis Set:

  -Total Gradient:
     Atom            X                  Y                   Z
    ------   -----------------  -----------------  -----------------
       1       -0.000002018443    -0.000006172357     0.000003512876
       2        0.000016360227     0.000022176876    -0.000005488654
       3       -0.000057203012    -0.000783799794     0.000080589856
       4       -0.000002983909    -0.000009369074     0.000003975100
       5       -0.000006175194    -0.000005592455     0.000005430811
       6       -0.000000503407     0.000024451958    -0.000008744128
       7        0.000136159811     0.000699110238    -0.000246280912
       8        0.000018038361     0.000518231238     0.000002749453
       9       -0.000003698427     0.000000967470    -0.000001193004
      10       -0.000002213030     0.000000845463     0.000002912844
      11        0.000008629183    -0.000010577468    -0.000008418274
      12       -0.000078058106    -0.000453472283     0.000163682555
      13       -0.000026334059     0.000003200186     0.000007271478

  **** Optimization is complete! (in 6 steps) ****
    Final optimized geometry and variables:
    Molecular point group: c1

    Geometry (in Angstrom), charge = 0, multiplicity = 1:

    H           -2.359312752519    -1.300625766235    -0.359878243376
    C           -1.346371498791    -1.256982977405     0.022971583113
    C           -0.681812353235     0.026053829264    -0.468695215103
    H           -0.810438462831    -2.130366506195    -0.329032758827
    H           -1.383463419543    -1.277773743829     1.105250784512
    C           -1.370897216833     1.293072088063     0.014209722093
    N            0.740689133277     0.001188467437     0.005874115539
    H           -0.593696957321     0.018909884507    -1.543488349354
    H           -2.369830880894     1.325945227123    -0.406372930302
    H           -0.838168897771     2.178946897993    -0.311298983496
    H           -1.444962572288     1.310857228559     1.092568811934
    O            1.563417272806    -0.381867601346    -0.767620594870
    O            0.955733801641     0.326272692707     1.133615002827

  Mulliken Charges: (a.u.)
   Center  Symbol    Alpha    Beta     Spin     Total
       1     H     0.40626  0.40626  0.00000  0.18749
       2     C     3.25053  3.25053  0.00000 -0.50105
       3     C     3.02315  3.02315  0.00000 -0.04629
       4     H     0.39914  0.39914  0.00000  0.20173
       5     H     0.39941  0.39941  0.00000  0.20119
       6     C     3.24751  3.24751  0.00000 -0.49502
       7     N     3.21674  3.21674  0.00000  0.56653
       8     H     0.38593  0.38593  0.00000  0.22814
       9     H     0.41040  0.41040  0.00000  0.17920
      10     H     0.40429  0.40429  0.00000  0.19142
      11     H     0.39672  0.39672  0.00000  0.20656
      12     O     4.22917  4.22917  0.00000 -0.45834
      13     O     4.23077  4.23077  0.00000 -0.46155

   Total alpha = 24.00000, Total beta = 24.00000, Total charge = -0.00000
