                              Psi4 1.0.54 Driver

  ==> Input File <==

--------------------------------------------------------------------------
set {
	reference rhf
	basis cc-pvtz
}

set_num_threads( 4 )
memory 2 gb

molecule MOL {
0 1

H	 0.208180	 -1.514901	 -0.736828
C	 -0.767030	 -1.525017	 -0.255428
O	 -1.401606	 -0.295183	 -0.366624
H	 -1.387646	 -2.262624	 -0.742932
H	 -0.633570	 -1.813637	 0.785616
C	 -0.718530	 0.758693	 0.228682
C	 0.718529	 0.758687	 -0.228709
H	 -1.176498	 1.708665	 -0.046615
H	 -0.748705	 0.673525	 1.312779
O	 1.401606	 -0.295166	 0.366636
H	 0.748705	 0.673477	 -1.312803
H	 1.176496	 1.708671	 0.046552
C	 2.714315	 -0.441627	 -0.061017
H	 2.765292	 -0.641548	 -1.128869
H	 3.305661	 0.447341	 0.150952
H	 3.143725	 -1.278506	 0.470147

	symmetry c1
}
set optking {
	frozen_dihedral = ("
		2 3 6 7
	")
}

ee,wfn = optimize('scf', return_wfn=True)
oeprop( wfn, 'DIPOLE', 'QUADRUPOLE', 'MULLIKEN_CHARGES')
f=open( 'psi4out.xyz', 'w' )
f.write( "16  " )
f.write( str(ee) + "\n" )
f.write( MOL.save_string_xyz() )
f.close()
--------------------------------------------------------------------------

    Molecular point group: c1
  Charge       = 0
  Multiplicity = 1
  Basis Set: CC-PVTZ
  Basis Set:
  @DF-RHF Final Energy:  -307.08205938998600
    Total Energy =                       -307.0820593899858864
    Molecular point group: c1
  Basis Set: CC-PVTZ
  Basis Set:
  Basis Set: CC-PVTZ
  Basis Set:
  @DF-RHF Final Energy:  -307.09046386921796
    Total Energy =                       -307.0904638692177855
  Basis Set: CC-PVTZ
  Basis Set:
  Basis Set: CC-PVTZ
  Basis Set:
  @DF-RHF Final Energy:  -307.09314358383642
    Total Energy =                       -307.0931435838366497
  Basis Set: CC-PVTZ
  Basis Set:
  Basis Set: CC-PVTZ
  Basis Set:
  @DF-RHF Final Energy:  -307.09391544005041
    Total Energy =                       -307.0939154400508073
  Basis Set: CC-PVTZ
  Basis Set:
  Basis Set: CC-PVTZ
  Basis Set:
  @DF-RHF Final Energy:  -307.09425965949202
    Total Energy =                       -307.0942596594920246
  Basis Set: CC-PVTZ
  Basis Set:
  Basis Set: CC-PVTZ
  Basis Set:
  @DF-RHF Final Energy:  -307.09431979205510
    Total Energy =                       -307.0943197920549323
  Basis Set: CC-PVTZ
  Basis Set:
  Basis Set: CC-PVTZ
  Basis Set:
  @DF-RHF Final Energy:  -307.09432528686222
    Total Energy =                       -307.0943252868622722
  Basis Set: CC-PVTZ
  Basis Set:
  Charge       = 0
  Multiplicity = 1
  Basis Set: CC-PVTZ
  Basis Set:

    Orbital Energies (a.u.)
    -----------------------

    Doubly Occupied:

       1A    -20.556637     2A    -20.543515     3A    -11.272171
       4A    -11.269017     5A    -11.266862     6A    -11.253303
       7A     -1.394432     8A     -1.370911     9A     -1.029369
      10A     -0.950001    11A     -0.893493    12A     -0.817385
      13A     -0.694375    14A     -0.682363    15A     -0.658464
      16A     -0.636108    17A     -0.628692    18A     -0.597664
      19A     -0.553612    20A     -0.538109    21A     -0.520070
      22A     -0.490589    23A     -0.456237    24A     -0.426929
      25A     -0.408287

  @DF-RHF Final Energy:  -307.09432574015460

   => Energetics <=

    Nuclear Repulsion Energy =            264.7149798721522416
    One-Electron Energy =                -943.8014187382996170
    Two-Electron Energy =                 371.9921131259926028
    DFT Exchange-Correlation Energy =       0.0000000000000000
    Empirical Dispersion Energy =           0.0000000000000000
    PCM Polarization Energy =               0.0000000000000000
    EFP Energy =                            0.0000000000000000
    Total Energy =                       -307.0943257401547157
    Molecular point group: c1
  Basis Set: CC-PVTZ
  Basis Set:

  -Total Gradient:
     Atom            X                  Y                   Z
    ------   -----------------  -----------------  -----------------
       1        0.000024910425    -0.000021585811    -0.000012667849
       2        0.001650515670     0.000703954129    -0.002926279162
       3       -0.002141309089    -0.002076661867     0.005387468175
       4       -0.000010345637     0.000013995176     0.000003287207
       5       -0.000019949352     0.000003738785    -0.000010096807
       6       -0.000134530265     0.003553054821    -0.004602422492
       7        0.000604179809    -0.002157554619     0.002196002696
       8       -0.000014535823    -0.000010953664     0.000005536560
       9        0.000009446352     0.000000219261    -0.000004454249
      10       -0.000043982053     0.000016819192    -0.000016836302
      11        0.000002329957    -0.000002665711     0.000005059551
      12        0.000010339953    -0.000002859234    -0.000016413711
      13        0.000089402912    -0.000007258057    -0.000025650255
      14       -0.000001725099     0.000008699577     0.000037511488
      15       -0.000024247050    -0.000030380350    -0.000012797476
      16       -0.000000500714     0.000009438369    -0.000007247372

  **** Optimization is complete! (in 8 steps) ****
    Final optimized geometry and variables:
    Molecular point group: c1

    Geometry (in Angstrom), charge = 0, multiplicity = 1:

    H           -0.561458202782    -1.450361084066    -1.103157469464
    C           -1.426057263411    -1.322464495904    -0.462745613593
    O           -1.820732944275     0.011744571908    -0.370918374275
    H           -2.258218235230    -1.864442526128    -0.889159046750
    H           -1.192321234938    -1.740729080555     0.511388709939
    C           -0.982336113888     0.902793473531     0.296489158019
    C            0.478654575044     0.894857715943    -0.112687644404
    H           -1.387591263944     1.886133530266     0.098759764591
    H           -1.027762686283     0.729654805901     1.370312368184
    O            1.156119661195    -0.160189426877     0.493990992028
    H            0.563169737066     0.833904826024    -1.196811086463
    H            0.919661133742     1.841639006795     0.197049210723
    C            2.506912233620    -0.231615453545     0.175496317089
    H            2.657968426881    -0.381148235251    -0.891212482646
    H            3.033369038638     0.672475399194     0.473311397104
    H            2.928773219277    -1.071360097288     0.708001907992

  Mulliken Charges: (a.u.)
   Center  Symbol    Alpha    Beta     Spin     Total
       1     H     0.47130  0.47130  0.00000  0.05740
       2     C     3.02743  3.02743  0.00000 -0.05485
       3     O     4.17928  4.17928  0.00000 -0.35856
       4     H     0.44782  0.44782  0.00000  0.10436
       5     H     0.46776  0.46776  0.00000  0.06447
       6     C     2.97310  2.97310  0.00000  0.05379
       7     C     2.99701  2.99701  0.00000  0.00598
       8     H     0.45283  0.45283  0.00000  0.09433
       9     H     0.46704  0.46704  0.00000  0.06592
      10     O     4.17555  4.17555  0.00000 -0.35110
      11     H     0.46240  0.46240  0.00000  0.07519
      12     H     0.46066  0.46066  0.00000  0.07869
      13     C     3.03391  3.03391  0.00000 -0.06783
      14     H     0.46981  0.46981  0.00000  0.06038
      15     H     0.46838  0.46838  0.00000  0.06325
      16     H     0.44571  0.44571  0.00000  0.10858

   Total alpha = 25.00000, Total beta = 25.00000, Total charge = -0.00000

*** Psi4 exiting successfully. Buy a developer a beer!
