  ==> Input File <==

--------------------------------------------------------------------------
set {
	reference rhf
	basis 6-31G*
}

set_num_threads( 4 )
memory 2 gb

molecule MOL {
0 1

H	 -2.337902	 0.799798	 -1.269234
C	 -1.339962	 0.379365	 -1.313689
C	 -0.603454	 0.661669	 0.000000
H	 -0.819021	 0.822785	 -2.153594
H	 -1.425144	 -0.686125	 -1.489520
C	 0.763625	 0.112519	 0.000000
H	 -0.533528	 1.728252	 0.179110
H	 -1.135810	 0.228904	 0.838976
N	 1.813038	 -0.320305	 0.000000

	symmetry c1
}
set optking {
	frozen_dihedral = ("
		7 3 6 9
	")
}

ee = optimize('scf')
oeprop('DIPOLE', 'QUADRUPOLE', 'MULLIKEN_CHARGES')
f=open( 'psi4out.xyz', 'w' )
f.write( "9  " )
f.write( str(ee) + "\n" )
f.write( MOL.save_string_xyz() )
f.close()
--------------------------------------------------------------------------

    Molecular point group: c1
  Charge       = 0
  Multiplicity = 1
  Basis Set: 6-31G*
  Basis Set:
  @DF-RHF Final Energy:  -170.96242667168451
    Total Energy =                       -170.9624266716843977
    Molecular point group: c1
  Basis Set: 6-31G*
  Basis Set:
  Basis Set: 6-31G*
  Basis Set:
  @DF-RHF Final Energy:  -170.42803431374244
    Total Energy =                       -170.4280343137424722
  Basis Set: 6-31G*
  Basis Set:
  Basis Set: 6-31G*
  Basis Set:
  @DF-RHF Final Energy:  -170.44002942245987
    Total Energy =                       -170.4400294224599293
  Basis Set: 6-31G*
  Basis Set:
  Basis Set: 6-31G*
  Basis Set:
  @DF-RHF Final Energy:  -170.44613766060667
    Total Energy =                       -170.4461376606066096
  Basis Set: 6-31G*
  Basis Set:
  @DF-RHF Final Energy:  -170.44985841777816
    Total Energy =                       -170.4498584177781879
  @DF-RHF Final Energy:  -170.45560709456765
    Total Energy =                       -170.4556070945675685
  @DF-RHF Final Energy:  -170.47037824192159
    Total Energy =                       -170.4703782419217077
  @DF-RHF Final Energy:  -170.49854535475129
    Total Energy =                       -170.4985453547511725
  @DF-RHF Final Energy:  -170.72363046820738
    Total Energy =                       -170.7236304682072898
  @DF-RHF Final Energy:  -170.89084160313459
    Total Energy =                       -170.8908416031346746
  @DF-RHF Final Energy:  -170.74012769236668
    Total Energy =                       -170.7401276923666558
  @DF-RHF Final Energy:  -170.72575170023561
    Total Energy =                       -170.7257517002356337
  @DF-RHF Final Energy:  -170.81541110959250
    Total Energy =                       -170.8154111095925032
  @DF-RHF Final Energy:  -170.69686299668714
    Total Energy =                       -170.6968629966871447
  @DF-RHF Final Energy:  -170.86281783259506
    Total Energy =                       -170.8628178325950557
  @DF-RHF Final Energy:  -170.66995710401574
    Total Energy =                       -170.6699571040157366
  @DF-RHF Final Energy:  -170.83959946464347
    Total Energy =                       -170.8395994646434985
  @DF-RHF Final Energy:  -170.69977462511980
    Total Energy =                       -170.6997746251196872
  @DF-RHF Final Energy:  -170.90589164974489
    Total Energy =                       -170.9058916497449445
  @DF-RHF Final Energy:  -170.68587985101576
    Total Energy =                       -170.6858798510157555
  @DF-RHF Final Energy:  -170.92724200591724
    Total Energy =                       -170.9272420059172646
  @DF-RHF Final Energy:  -170.94074683164320
    Total Energy =                       -170.9407468316432244
  @DF-RHF Final Energy:  -170.81093528555465
    Total Energy =                       -170.8109352855546490
  @DF-RHF Final Energy:  -170.92372914903262
    Total Energy =                       -170.9237291490326243
  @DF-RHF Final Energy:  -170.95489586470529
    Total Energy =                       -170.9548958647052928
  @DF-RHF Final Energy:  -170.95876580100312
    Total Energy =                       -170.9587658010029827
  @DF-RHF Final Energy:  -170.95976373501236
    Total Energy =                       -170.9597637350121886
  @DF-RHF Final Energy:  -170.94879876632402
    Total Energy =                       -170.9487987663240176
  @DF-RHF Final Energy:  -170.95174280939642
    Total Energy =                       -170.9517428093963645
  @DF-RHF Final Energy:  -170.95776683886811
    Total Energy =                       -170.9577668388679967
  @DF-RHF Final Energy:  -170.96133333494137
    Total Energy =                       -170.9613333349412869
  @DF-RHF Final Energy:  -170.96100390588100
    Total Energy =                       -170.9610039058810003
  @DF-RHF Final Energy:  -170.96128259182584
    Total Energy =                       -170.9612825918258068
  @DF-RHF Final Energy:  -170.95904426154584
    Total Energy =                       -170.9590442615459551
  @DF-RHF Final Energy:  -170.96119249417103
    Total Energy =                       -170.9611924941710868
  @DF-RHF Final Energy:  -170.95491927898422
    Total Energy =                       -170.9549192789843346
  Basis Set: 6-31G*
  Basis Set:
  @DF-RHF Final Energy:  -170.96103095976872
    Total Energy =                       -170.9610309597687205
  Basis Set: 6-31G*
  Basis Set:
  Basis Set: 6-31G*
  Basis Set:
  @DF-RHF Final Energy:  -170.96177998303915
    Total Energy =                       -170.9617799830390936
  Basis Set: 6-31G*
  Basis Set:
  Basis Set: 6-31G*
  Basis Set:
  @DF-RHF Final Energy:  -170.96201557447640
    Total Energy =                       -170.9620155744764816
  Basis Set: 6-31G*
  Basis Set:
  Charge       = 0
  Multiplicity = 1
  Basis Set: 6-31G*
  Basis Set:

    Orbital Energies (a.u.)
    -----------------------

    Doubly Occupied:

       1A    -15.598378     2A    -11.295894     3A    -11.285714
       4A    -11.246805     5A     -1.186628     6A     -1.076057
       7A     -0.912308     8A     -0.699137     9A     -0.657231
      10A     -0.591575    11A     -0.563014    12A     -0.542103
      13A     -0.531520    14A     -0.435401    15A     -0.433034

  @DF-RHF Final Energy:  -170.93108970238495

   => Energetics <=

    Nuclear Repulsion Energy =            101.8535487518545324
    One-Electron Energy =                -431.4596816917728006
    Two-Electron Energy =                 158.6750432375334015
    DFT Exchange-Correlation Energy =       0.0000000000000000
    Empirical Dispersion Energy =           0.0000000000000000
    PCM Polarization Energy =               0.0000000000000000
    EFP Energy =                            0.0000000000000000
    Total Energy =                       -170.9310897023848668
    Molecular point group: c1
  Basis Set: 6-31G*
  Basis Set:

  -Total Gradient:
     Atom            X                  Y                   Z
    ------   -----------------  -----------------  -----------------
       1       -0.000740281969     0.000938335001    -0.000893854084
       2       -0.004798877780     0.001843479860     0.004150503343
       3        0.006816599950     0.008374068117    -0.025131686231
       4        0.002455531801     0.001102215401    -0.003844374131
       5        0.000050877952     0.000363951474     0.001832309698
       6       -0.186717970627     0.003451355742     0.103528452767
       7       -0.002257625517     0.002023592986     0.000016089817
       8        0.006327884115    -0.005090800752     0.003232955622
       9        0.178863862076    -0.013006197828    -0.082890396801

    Molecular point group: c1

    Geometry (in Angstrom), charge = 0, multiplicity = 1:

    H           -2.361671636575     0.770918969672    -0.862699338050
    C           -1.427825051122     0.218688065494    -0.879563173606
    C           -0.704191833890     0.391313540071     0.458940323526
    H           -0.825840245516     0.589007715020    -1.696713026014
    H           -1.660426251646    -0.824138549438    -1.065213381329
    C            0.667421320536    -0.159308800071     0.399746657431
    H           -0.632625517939     1.439726850205     0.731442876603
    H           -1.255769305783    -0.111568402786     1.251850528155
    N            1.739917374162    -0.520374718286     0.136019429018

  Mulliken Charges: (a.u.)
   Center  Symbol    Alpha    Beta     Spin     Total
       1     H     0.40932  0.40932  0.00000  0.18136
       2     C     3.23952  3.23952  0.00000 -0.47904
       3     C     3.18976  3.18976  0.00000 -0.37952
       4     H     0.40227  0.40227  0.00000  0.19547
       5     H     0.40629  0.40629  0.00000  0.18741
       6     C     2.87843  2.87843  0.00000  0.24314
       7     H     0.38603  0.38603  0.00000  0.22793
       8     H     0.39555  0.39555  0.00000  0.20889
       9     N     3.69282  3.69282  0.00000 -0.38565

   Total alpha = 15.00000, Total beta = 15.00000, Total charge = -0.00000
