  ==> Input File <==

--------------------------------------------------------------------------
set {
	reference rhf
	basis 6-31G*
}

set_num_threads( 1 )
memory 2 gb

molecule MOL {
0 1

H	 -2.798360	 -0.862255	 -0.071053
N	 -1.863561	 -0.715187	 0.256814
C	 -1.344686	 0.554728	 -0.219830
H	 -1.300452	 -1.461917	 -0.101532
C	 0.081427	 0.741154	 0.254071
H	 -1.362155	 0.656231	 -1.305829
H	 -1.952773	 1.354456	 0.191809
O	 0.874168	 -0.245412	 -0.342030
H	 0.444037	 1.730782	 -0.023037
H	 0.121165	 0.653424	 1.337565
C	 0.179257	 -1.109983	 -1.182974
H	 0.889352	 -1.822450	 -1.580284
H	 -0.596963	 -1.650724	 -0.644399
H	 -0.283319	 -0.574416	 -2.009412

	symmetry c1
}
set optking {
	frozen_dihedral = ("
		8 5 3 6,
		6 3 2 4,
		5 8 11 13
	")
}

ee = energy('scf')
oeprop('DIPOLE', 'QUADRUPOLE', 'MULLIKEN_CHARGES')
f=open( 'psi4out.xyz', 'w' )
f.write( "14  " )
f.write( str(ee) + "\n" )
f.write( MOL.save_string_xyz() )
f.close()
--------------------------------------------------------------------------

    Molecular point group: c1

    Geometry (in Angstrom), charge = 0, multiplicity = 1:

       Center              X                  Y                   Z               Mass
    ------------   -----------------  -----------------  -----------------  -----------------
           H         -2.371891003788    -0.679732020973     0.194017694763     1.007825032070
           N         -1.437092003788    -0.532664020973     0.521884694763    14.003074004780
           C         -0.918217003788     0.737250979027     0.045240694763    12.000000000000
           H         -0.873983003788    -1.279394020973     0.163538694763     1.007825032070
           C          0.507895996212     0.923676979027     0.519141694763    12.000000000000
           H         -0.935686003788     0.838753979027    -1.040758305237     1.007825032070
           H         -1.526304003788     1.536978979027     0.456879694763     1.007825032070
           O          1.300636996212    -0.062889020973    -0.076959305237    15.994914619560
           H          0.870505996212     1.913304979027     0.242033694763     1.007825032070
           H          0.547633996212     0.835946979027     1.602635694763     1.007825032070
           C          0.605725996212    -0.927460020973    -0.917903305237    12.000000000000
           H          1.315820996212    -1.639927020973    -1.315213305237     1.007825032070
           H         -0.170494003788    -1.468201020973    -0.379328305237     1.007825032070
           H          0.143149996212    -0.391893020973    -1.744341305237     1.007825032070

  Charge       = 0
  Multiplicity = 1
  Basis Set: 6-31G*
  Basis Set:

    Orbital Energies (a.u.)
    -----------------------

    Doubly Occupied:

       1A    -20.557400     2A    -15.529245     3A    -11.267443
       4A    -11.265287     5A    -11.247324     6A     -1.387784
       7A     -1.197110     8A     -1.014078     9A     -0.926205
      10A     -0.835231    11A     -0.724601    12A     -0.692525
      13A     -0.639881    14A     -0.626287    15A     -0.592634
      16A     -0.551604    17A     -0.539498    18A     -0.518207
      19A     -0.443174    20A     -0.419616    21A     -0.374824

  @DF-RHF Final Energy:  -248.01887922300310

   => Energetics <=

    Nuclear Repulsion Energy =            206.5122097573937765
    One-Electron Energy =                -746.3622851480289455
    Two-Electron Energy =                 291.8311961676320720
    DFT Exchange-Correlation Energy =       0.0000000000000000
    Empirical Dispersion Energy =           0.0000000000000000
    PCM Polarization Energy =               0.0000000000000000
    EFP Energy =                            0.0000000000000000
    Total Energy =                       -248.0188792230031254

  Mulliken Charges: (a.u.)
   Center  Symbol    Alpha    Beta     Spin     Total
       1     H     0.33364  0.33364  0.00000  0.33273
       2     N     3.92561  3.92561  0.00000 -0.85121
       3     C     3.11247  3.11247  0.00000 -0.22494
       4     H     0.30217  0.30217  0.00000  0.39566
       5     C     2.97372  2.97372  0.00000  0.05255
       6     H     0.42395  0.42395  0.00000  0.15209
       7     H     0.40849  0.40849  0.00000  0.18302
       8     O     4.30856  4.30856  0.00000 -0.61713
       9     H     0.42389  0.42389  0.00000  0.15221
      10     H     0.41464  0.41464  0.00000  0.17072
      11     C     3.08109  3.08109  0.00000 -0.16217
      12     H     0.40575  0.40575  0.00000  0.18850
      13     H     0.46344  0.46344  0.00000  0.07313
      14     H     0.42258  0.42258  0.00000  0.15485

   Total alpha = 21.00000, Total beta = 21.00000, Total charge = -0.00000
