                              Psi4 1.0.54 Driver

  ==> Input File <==

--------------------------------------------------------------------------
set {
	reference rhf
	basis cc-pvtz
}

set_num_threads( 4 )
memory 2 gb

molecule MOL {
0 1

H	 -4.230259	 0.539112	 0.036360
O	 -3.515113	 -0.019339	 -0.206321
C	 -2.302264	 0.528872	 0.237390
C	 -1.175688	 -0.398187	 -0.171891
H	 -2.148018	 1.514076	 -0.197759
H	 -2.310727	 0.646384	 1.319032
C	 0.196029	 0.106276	 0.266738
H	 -1.201873	 -0.515469	 -1.250677
H	 -1.365975	 -1.378728	 0.252664
C	 1.330220	 -0.826136	 -0.155230
H	 0.359542	 1.097229	 -0.145561
H	 0.212134	 0.218135	 1.348778
C	 2.719700	 -0.407669	 0.328325
H	 1.339388	 -0.911200	 -1.239363
H	 1.119001	 -1.821953	 0.224128
C	 2.730952	 0.777751	 1.290619
H	 3.322567	 -0.156555	 -0.538969
H	 3.206758	 -1.258043	 0.798509
H	 2.243807	 1.641673	 0.849722
H	 2.223367	 0.550982	 2.220469
H	 3.747375	 1.063088	 1.536868

	symmetry c1
}
set optking {
	frozen_dihedral = ("
		16 13 10 14
	")
}

ee,wfn = optimize('scf', return_wfn=True)
oeprop( wfn, 'DIPOLE', 'QUADRUPOLE', 'MULLIKEN_CHARGES')
f=open( 'psi4out.xyz', 'w' )
f.write( "21  " )
f.write( str(ee) + "\n" )
f.write( MOL.save_string_xyz() )
f.close()
--------------------------------------------------------------------------

    Molecular point group: c1
  Charge       = 0
  Multiplicity = 1
  Basis Set: CC-PVTZ
  Basis Set:
  @DF-RHF Final Energy:  -310.32290366152290
    Total Energy =                       -310.3229036615229006
    Molecular point group: c1
  Basis Set: CC-PVTZ
  Basis Set:
  Basis Set: CC-PVTZ
  Basis Set:
  @DF-RHF Final Energy:  -310.26663985441422
    Total Energy =                       -310.2666398544142794
  Basis Set: CC-PVTZ
  Basis Set:
  Basis Set: CC-PVTZ
  Basis Set:
  @DF-RHF Final Energy:  -310.32100558610915
    Total Energy =                       -310.3210055861091519
  Basis Set: CC-PVTZ
  Basis Set:
  Basis Set: CC-PVTZ
  Basis Set:
  @DF-RHF Final Energy:  -310.32473194051113
    Total Energy =                       -310.3247319405110147
  Basis Set: CC-PVTZ
  Basis Set:
  Basis Set: CC-PVTZ
  Basis Set:
  @DF-RHF Final Energy:  -310.32490072823640
    Total Energy =                       -310.3249007282363436
  Basis Set: CC-PVTZ
  Basis Set:
  Basis Set: CC-PVTZ
  Basis Set:
  @DF-RHF Final Energy:  -310.32490786535425
    Total Energy =                       -310.3249078653541346
  Basis Set: CC-PVTZ
  Basis Set:
  Basis Set: CC-PVTZ
  Basis Set:
  @DF-RHF Final Energy:  -310.32491133161113
    Total Energy =                       -310.3249113316113608
  Basis Set: CC-PVTZ
  Basis Set:
  Charge       = 0
  Multiplicity = 1
  Basis Set: CC-PVTZ
  Basis Set:

    Orbital Energies (a.u.)
    -----------------------

    Doubly Occupied:

       1A    -20.545254     2A    -11.264779     3A    -11.213332
       4A    -11.212905     5A    -11.211482     6A    -11.208571
       7A    -11.206197     8A     -1.363092     9A     -1.084667
      10A     -1.031971    11A     -0.954973    12A     -0.879593
      13A     -0.809767    14A     -0.771793    15A     -0.695263
      16A     -0.664738    17A     -0.630790    18A     -0.597352
      19A     -0.582601    20A     -0.578440    21A     -0.532969
      22A     -0.528913    23A     -0.506650    24A     -0.487812
      25A     -0.485791    26A     -0.457727    27A     -0.446332
      28A     -0.444383    29A     -0.437035

  @DF-RHF Final Energy:  -310.32491203423660

   => Energetics <=

    Nuclear Repulsion Energy =            313.5552212357160897
    One-Electron Energy =               -1042.0899204555910273
    Two-Electron Energy =                 418.2097871856383904
    DFT Exchange-Correlation Energy =       0.0000000000000000
    Empirical Dispersion Energy =           0.0000000000000000
    PCM Polarization Energy =               0.0000000000000000
    EFP Energy =                            0.0000000000000000
    Total Energy =                       -310.3249120342365472
    Molecular point group: c1
  Basis Set: CC-PVTZ
  Basis Set:

  -Total Gradient:
     Atom            X                  Y                   Z
    ------   -----------------  -----------------  -----------------
       1        0.000000462368     0.000004803655     0.000002679733
       2        0.000034157170     0.000006132223     0.000026607691
       3       -0.000014197268     0.000013530577    -0.000028079308
       4        0.000014880519     0.000050185974     0.000006129807
       5       -0.000009573778    -0.000003020289    -0.000003395949
       6        0.000000449976    -0.000011492700    -0.000017756920
       7       -0.000102387187    -0.000061896355     0.000011653036
       8        0.000001420264    -0.000001400136     0.000000528615
       9        0.000016901931     0.000016982241     0.000024955433
      10        0.000859127194    -0.002697928638    -0.000778123700
      11       -0.000019143426    -0.000022193584    -0.000016438300
      12       -0.000022623885    -0.000014162508    -0.000047032539
      13       -0.001086645093    -0.001652880695     0.001826701297
      14       -0.000442506286     0.002758446345     0.000187317002
      15       -0.000008812250     0.000021436476     0.000004046056
      16        0.000741316568     0.001607940625    -0.001183786931
      17        0.000005449298     0.000008515722     0.000022037059
      18        0.000003672988     0.000008303064    -0.000001919448
      19        0.000042498889    -0.000067761549     0.000034653984
      20        0.000087848934     0.000014937033    -0.000055919221
      21       -0.000102296925     0.000021522517    -0.000014857401

  **** Optimization is complete! (in 8 steps) ****
    Final optimized geometry and variables:
    Molecular point group: c1

    Geometry (in Angstrom), charge = 0, multiplicity = 1:

    H           -3.877039558771     1.127804509784    -1.267027391646
    O           -3.161331363916     0.534658615830    -1.401431598635
    C           -2.118512942699     0.826080050234    -0.509237523475
    C           -0.985590030743    -0.149529001825    -0.756254753412
    H           -1.767695928745     1.845744756577    -0.654035664230
    H           -2.462905104610     0.741278418439     0.519308674823
    C            0.206722613639     0.081679860299     0.167656918239
    H           -0.677366956196    -0.062407341021    -1.793286395439
    H           -1.366511316259    -1.157801848552    -0.628451795202
    C            1.341506042286    -0.908866591759    -0.101482553190
    H            0.566380362097     1.098177005330     0.036428998771
    H           -0.121382637981     0.002916702135     1.199312827385
    C            2.621605857323    -0.767526063385     0.763889976735
    H            1.617707473689    -0.799722921448    -1.144926146898
    H            0.945219539308    -1.912945559031     0.005829935617
    C            2.568738371710     0.203088324309     1.943528991424
    H            3.440229995538    -0.458052444032     0.122676927323
    H            2.900031881109    -1.746391634208     1.138006188332
    H            2.367248322565     1.218319642143     1.625459678033
    H            1.811141185409    -0.074756950563     2.667158813376
    H            3.522555017375     0.206674172567     2.458580898633

  Mulliken Charges: (a.u.)
   Center  Symbol    Alpha    Beta     Spin     Total
       1     H     0.39768  0.39768  0.00000  0.20463
       2     O     4.19404  4.19404  0.00000 -0.38809
       3     C     2.96340  2.96340  0.00000  0.07319
       4     C     3.08413  3.08413  0.00000 -0.16826
       5     H     0.47506  0.47506  0.00000  0.04987
       6     H     0.47498  0.47498  0.00000  0.05004
       7     C     3.10240  3.10240  0.00000 -0.20481
       8     H     0.45104  0.45104  0.00000  0.09791
       9     H     0.45118  0.45118  0.00000  0.09764
      10     C     3.09824  3.09824  0.00000 -0.19648
      11     H     0.45419  0.45419  0.00000  0.09162
      12     H     0.45324  0.45324  0.00000  0.09351
      13     C     3.08776  3.08776  0.00000 -0.17551
      14     H     0.45083  0.45083  0.00000  0.09834
      15     H     0.45066  0.45066  0.00000  0.09868
      16     C     3.15688  3.15688  0.00000 -0.31375
      17     H     0.45247  0.45247  0.00000  0.09507
      18     H     0.45068  0.45068  0.00000  0.09864
      19     H     0.45312  0.45312  0.00000  0.09375
      20     H     0.45358  0.45358  0.00000  0.09284
      21     H     0.44442  0.44442  0.00000  0.11116

   Total alpha = 29.00000, Total beta = 29.00000, Total charge = -0.00000

*** Psi4 exiting successfully. Buy a developer a beer!
