  ==> Input File <==

--------------------------------------------------------------------------
set {
	reference rhf
	basis 6-31G*
}

set_num_threads( 1 )
memory 2 gb

molecule MOL {
0 1

H	 -1.975968	 0.827152	 0.667278
N	 -1.852125	 0.165761	 -0.074816
C	 -0.563778	 -0.502042	 0.037919
H	 -1.907299	 0.680090	 -0.933406
C	 0.575259	 0.508231	 -0.048326
H	 -0.482092	 -1.204004	 -0.786564
H	 -0.460411	 -1.085169	 0.956626
C	 1.954651	 -0.143624	 0.035137
H	 0.475158	 1.060484	 -0.977307
H	 0.469181	 1.234488	 0.755973
H	 2.103292	 -0.853109	 -0.774172
H	 2.742821	 0.599562	 -0.030094
H	 2.083613	 -0.679371	 0.971560

	symmetry c1
}
set optking {
	frozen_dihedral = ("
		6 3 5 9
	")
}

ee = energy('scf')
oeprop('DIPOLE', 'QUADRUPOLE', 'MULLIKEN_CHARGES')
f=open( 'psi4out.xyz', 'w' )
f.write( "13  " )
f.write( str(ee) + "\n" )
f.write( MOL.save_string_xyz() )
f.close()
--------------------------------------------------------------------------

    Molecular point group: c1

    Geometry (in Angstrom), charge = 0, multiplicity = 1:

       Center              X                  Y                   Z               Mass
    ------------   -----------------  -----------------  -----------------  -----------------
           H         -1.988330371855     0.805880092187     0.682550069198     1.007825032070
           N         -1.864487371855     0.144489092187    -0.059543930802    14.003074004780
           C         -0.576140371855    -0.523313907813     0.053191069198    12.000000000000
           H         -1.919661371855     0.658818092187    -0.918133930802     1.007825032070
           C          0.562896628145     0.486959092187    -0.033053930802    12.000000000000
           H         -0.494454371855    -1.225275907813    -0.771291930802     1.007825032070
           H         -0.472773371855    -1.106440907813     0.971898069198     1.007825032070
           C          1.942288628145    -0.164895907813     0.050409069198    12.000000000000
           H          0.462795628145     1.039212092187    -0.962034930802     1.007825032070
           H          0.456818628145     1.213216092187     0.771245069198     1.007825032070
           H          2.090929628145    -0.874380907813    -0.758899930802     1.007825032070
           H          2.730458628145     0.578290092187    -0.014821930802     1.007825032070
           H          2.071250628145    -0.700642907813     0.986832069198     1.007825032070

  Charge       = 0
  Multiplicity = 1
  Basis Set: 6-31G*
  Basis Set:

    Orbital Energies (a.u.)
    -----------------------

    Doubly Occupied:

       1A    -15.531731     2A    -11.241548     3A    -11.214901
       4A    -11.211395     5A     -1.179108     6A     -1.036321
       7A     -0.899378     8A     -0.807881     9A     -0.678573
      10A     -0.606612    11A     -0.604067    12A     -0.565925
      13A     -0.521658    14A     -0.517961    15A     -0.488892
      16A     -0.473047    17A     -0.373952

  @DF-RHF Final Energy:  -173.28013413267843

   => Energetics <=

    Nuclear Repulsion Energy =            132.2332703964416396
    One-Electron Energy =                -495.1209031084719641
    Two-Electron Energy =                 189.6074985793520966
    DFT Exchange-Correlation Energy =       0.0000000000000000
    Empirical Dispersion Energy =           0.0000000000000000
    PCM Polarization Energy =               0.0000000000000000
    EFP Energy =                            0.0000000000000000
    Total Energy =                       -173.2801341326782278

  Mulliken Charges: (a.u.)
   Center  Symbol    Alpha    Beta     Spin     Total
       1     H     0.33537  0.33537  0.00000  0.32925
       2     N     3.91698  3.91698  0.00000 -0.83397
       3     C     3.06207  3.06207  0.00000 -0.12414
       4     H     0.33427  0.33427  0.00000  0.33146
       5     C     3.15618  3.15618  0.00000 -0.31235
       6     H     0.41896  0.41896  0.00000  0.16208
       7     H     0.41869  0.41869  0.00000  0.16262
       8     C     3.24432  3.24432  0.00000 -0.48864
       9     H     0.42631  0.42631  0.00000  0.14738
      10     H     0.42649  0.42649  0.00000  0.14702
      11     H     0.42095  0.42095  0.00000  0.15809
      12     H     0.41838  0.41838  0.00000  0.16325
      13     H     0.42102  0.42102  0.00000  0.15795

   Total alpha = 17.00000, Total beta = 17.00000, Total charge = -0.00000
