                              Psi4 1.0.54 Driver

  ==> Input File <==

--------------------------------------------------------------------------
set {
	reference rhf
	basis cc-pvtz
}

set_num_threads( 4 )
memory 2 gb

molecule MOL {
0 1

H	 3.256127	 1.082763	 2.239536
N	 2.430880	 0.521889	 2.241911
C	 1.520047	 0.925543	 1.182238
H	 2.004369	 0.629336	 3.138511
C	 0.301959	 0.015068	 1.137260
H	 2.054635	 0.854498	 0.240922
H	 1.190626	 1.961086	 1.277561
C	 -0.678115	 0.376691	 0.025731
H	 0.640570	 -1.008842	 1.017442
H	 -0.209694	 0.059574	 2.096798
C	 -1.900706	 -0.535531	 -0.022488
H	 -0.165576	 0.336219	 -0.932716
H	 -1.006294	 1.406003	 0.150981
C	 -3.220513	 0.226854	 0.028039
H	 -1.865036	 -1.134397	 -0.928236
H	 -1.857948	 -1.236381	 0.806820
H	 -3.309098	 0.911849	 -0.808725
H	 -4.066838	 -0.449485	 -0.008086
H	 -3.301685	 0.809374	 0.939860

	symmetry c1
}
set optking {
	frozen_dihedral = ("
		12 8 11 15
	")
}

ee,wfn = optimize('scf', return_wfn=True)
oeprop( wfn, 'DIPOLE', 'QUADRUPOLE', 'MULLIKEN_CHARGES')
f=open( 'psi4out.xyz', 'w' )
f.write( "19  " )
f.write( str(ee) + "\n" )
f.write( MOL.save_string_xyz() )
f.close()
--------------------------------------------------------------------------

    Molecular point group: c1
  Charge       = 0
  Multiplicity = 1
  Basis Set: CC-PVTZ
  Basis Set:
  @DF-RHF Final Energy:  -251.44236996170335
    Total Energy =                       -251.4423699617033776
    Molecular point group: c1
  Basis Set: CC-PVTZ
  Basis Set:
  Basis Set: CC-PVTZ
  Basis Set:
  @DF-RHF Final Energy:  -251.44261232601619
    Total Energy =                       -251.4426123260162740
  Basis Set: CC-PVTZ
  Basis Set:
  Basis Set: CC-PVTZ
  Basis Set:
  @DF-RHF Final Energy:  -251.44267932820401
    Total Energy =                       -251.4426793282041217
  Basis Set: CC-PVTZ
  Basis Set:
  Charge       = 0
  Multiplicity = 1
  Basis Set: CC-PVTZ
  Basis Set:

    Orbital Energies (a.u.)
    -----------------------

    Doubly Occupied:

       1A    -15.526419     2A    -11.237709     3A    -11.211689
       4A    -11.210285     5A    -11.208125     6A    -11.206005
       7A     -1.178106     8A     -1.071720     9A     -0.999205
      10A     -0.900442    11A     -0.815515    12A     -0.788836
      13A     -0.663943    14A     -0.641465    15A     -0.614304
      16A     -0.595000    17A     -0.563201    18A     -0.558514
      19A     -0.521088    20A     -0.499993    21A     -0.487178
      22A     -0.464773    23A     -0.454446    24A     -0.449023
      25A     -0.383768

  @DF-RHF Final Energy:  -251.44267988133555

   => Energetics <=

    Nuclear Repulsion Energy =            246.4671018127951356
    One-Electron Energy =                -827.3180617938575097
    Two-Electron Energy =                 329.4082800997268805
    DFT Exchange-Correlation Energy =       0.0000000000000000
    Empirical Dispersion Energy =           0.0000000000000000
    PCM Polarization Energy =               0.0000000000000000
    EFP Energy =                            0.0000000000000000
    Total Energy =                       -251.4426798813354935
    Molecular point group: c1
  Basis Set: CC-PVTZ
  Basis Set:

  -Total Gradient:
     Atom            X                  Y                   Z
    ------   -----------------  -----------------  -----------------
       1        0.000020709051    -0.000003387420     0.000020503004
       2        0.000037271754     0.000017019879     0.000001038470
       3       -0.000011831604    -0.000015691195     0.000011665523
       4        0.000001163222     0.000002417458    -0.000000048066
       5       -0.000036602539     0.000027971919    -0.000054827862
       6        0.000000395684     0.000003484653     0.000003932441
       7        0.000005184826    -0.000001116742    -0.000004007140
       8       -0.001259419470     0.001681873893    -0.000757736104
       9       -0.000000528361     0.000004938400     0.000003748611
      10       -0.000003183967    -0.000001610535    -0.000000660864
      11        0.001168253290    -0.001595942935     0.001027731653
      12        0.000877305730    -0.001191265573     0.000502298625
      13       -0.000003630587     0.000005816066    -0.000005250384
      14        0.000014556480    -0.000035765849     0.000001204031
      15       -0.000810593325     0.001109203276    -0.000753096608
      16       -0.000000473112    -0.000003720829     0.000000833433
      17        0.000005070353    -0.000001981538     0.000005163541
      18       -0.000011535204    -0.000003274606    -0.000000550097
      19        0.000007887775     0.000001031678    -0.000001942209

  **** Optimization is complete! (in 4 steps) ****
    Final optimized geometry and variables:
    Molecular point group: c1

    Geometry (in Angstrom), charge = 0, multiplicity = 1:

    H            3.521811130000     0.787935501951     1.409216201534
    N            2.693582083318     0.231518718460     1.419671963463
    C            1.768322502752     0.648971438282     0.377884349542
    H            2.281867899695     0.333934462100     2.323751132855
    C            0.544912704720    -0.254212258889     0.343901574994
    H            2.287505897536     0.583274386934    -0.572471799816
    H            1.446068057192     1.685535603049     0.486900868588
    C           -0.452486670312     0.121967392923    -0.749432257390
    H            0.874728541974    -1.279274592522     0.209497328000
    H            0.047154513568    -0.216075730201     1.311287023677
    C           -1.687486638482    -0.800979669394    -0.795653880345
    H            0.060598299217     0.094849427813    -1.705807690370
    H           -0.769420772722     1.150135152168    -0.602396046467
    C           -3.012385078246    -0.044349108613    -0.747990517201
    H           -1.664975791352    -1.397561841341    -1.701146638423
    H           -1.652293277185    -1.501719824935     0.031789247228
    H           -3.099740246548     0.643053284145    -1.582976149152
    H           -3.856149257642    -0.724092035309    -0.789149875995
    H           -3.097774624834     0.535814206434     0.165176410991

  Mulliken Charges: (a.u.)
   Center  Symbol    Alpha    Beta     Spin     Total
       1     H     0.43022  0.43022  0.00000  0.13957
       2     N     3.68917  3.68917  0.00000 -0.37833
       3     C     3.02754  3.02754  0.00000 -0.05507
       4     H     0.43105  0.43105  0.00000  0.13791
       5     C     3.08296  3.08296  0.00000 -0.16592
       6     H     0.45729  0.45729  0.00000  0.08542
       7     H     0.46848  0.46848  0.00000  0.06303
       8     C     3.09840  3.09840  0.00000 -0.19681
       9     H     0.44807  0.44807  0.00000  0.10385
      10     H     0.45999  0.45999  0.00000  0.08002
      11     C     3.08698  3.08698  0.00000 -0.17396
      12     H     0.45107  0.45107  0.00000  0.09786
      13     H     0.45613  0.45613  0.00000  0.08774
      14     C     3.14757  3.14757  0.00000 -0.29513
      15     H     0.45081  0.45081  0.00000  0.09837
      16     H     0.45341  0.45341  0.00000  0.09317
      17     H     0.45475  0.45475  0.00000  0.09051
      18     H     0.44984  0.44984  0.00000  0.10031
      19     H     0.45627  0.45627  0.00000  0.08746

   Total alpha = 25.00000, Total beta = 25.00000, Total charge = -0.00000

*** Psi4 exiting successfully. Buy a developer a beer!
