                              Psi4 1.0.54 Driver

  ==> Input File <==

--------------------------------------------------------------------------
set {
	reference rhf
	basis cc-pvtz
}

set_num_threads( 4 )
memory 2 gb

molecule MOL {
0 1

H	 3.003058	 -0.856456	 -1.450991
O	 2.094336	 -1.085114	 -1.524237
C	 1.324647	 -0.284267	 -0.761550
C	 1.856895	 0.733985	 0.014694
C	 -0.037500	 -0.504516	 -0.769757
H	 2.918234	 0.904166	 0.019902
C	 1.027258	 1.528503	 0.779809
H	 -0.451624	 -1.290134	 -1.368212
C	 -0.861704	 0.296439	 0.000000
H	 1.450299	 2.313293	 1.376436
C	 -0.336456	 1.314737	 0.777179
C	 -2.330689	 0.069587	 0.000000
H	 -0.984089	 1.930937	 1.371113
O	 -2.848621	 -0.993976	 0.000000
H	 -2.934306	 0.982410	 0.000000

	symmetry c1
}
set optking {
	frozen_dihedral = ("
		11 9 12 14
	")
}

ee,wfn = optimize('scf', return_wfn=True)
oeprop( wfn, 'DIPOLE', 'QUADRUPOLE', 'MULLIKEN_CHARGES')
f=open( 'psi4out.xyz', 'w' )
f.write( "15  " )
f.write( str(ee) + "\n" )
f.write( MOL.save_string_xyz() )
f.close()
--------------------------------------------------------------------------

    Molecular point group: c1
  Charge       = 0
  Multiplicity = 1
  Basis Set: CC-PVTZ
  Basis Set:
  @DF-RHF Final Energy:  -418.43416618570416
    Total Energy =                       -418.4341661857041572
    Molecular point group: c1
  Basis Set: CC-PVTZ
  Basis Set:
  Basis Set: CC-PVTZ
  Basis Set:
  @DF-RHF Final Energy:  -418.43231965822662
    Total Energy =                       -418.4323196582267883
  Basis Set: CC-PVTZ
  Basis Set:
  Basis Set: CC-PVTZ
  Basis Set:
  @DF-RHF Final Energy:  -418.43450137593305
    Total Energy =                       -418.4345013759332232
  Basis Set: CC-PVTZ
  Basis Set:
  Basis Set: CC-PVTZ
  Basis Set:
  @DF-RHF Final Energy:  -418.43471022430816
    Total Energy =                       -418.4347102243079917
  Basis Set: CC-PVTZ
  Basis Set:
  Basis Set: CC-PVTZ
  Basis Set:
  @DF-RHF Final Energy:  -418.43471270717112
    Total Energy =                       -418.4347127071710020
  Basis Set: CC-PVTZ
  Basis Set:
  Charge       = 0
  Multiplicity = 1
  Basis Set: CC-PVTZ
  Basis Set:

    Orbital Energies (a.u.)
    -----------------------

    Doubly Occupied:

       1A    -20.595712     2A    -20.557820     3A    -11.329374
       4A    -11.311611     5A    -11.252490     6A    -11.250461
       7A    -11.244446     8A    -11.241078     9A    -11.237257
      10A     -1.427522    11A     -1.413074    12A     -1.173469
      13A     -1.051418    14A     -1.029779    15A     -0.902245
      16A     -0.848827    17A     -0.818167    18A     -0.740933
      19A     -0.705410    20A     -0.688163    21A     -0.649626
      22A     -0.642845    23A     -0.616068    24A     -0.607726
      25A     -0.582908    26A     -0.550879    27A     -0.542492
      28A     -0.516802    29A     -0.494079    30A     -0.427300
      31A     -0.357784    32A     -0.329727

  @DF-RHF Final Energy:  -418.43471295449365

   => Energetics <=

    Nuclear Repulsion Energy =            403.9607169684667269
    One-Electron Energy =               -1370.5158710817945575
    Two-Electron Energy =                 548.1204411588341827
    DFT Exchange-Correlation Energy =       0.0000000000000000
    Empirical Dispersion Energy =           0.0000000000000000
    PCM Polarization Energy =               0.0000000000000000
    EFP Energy =                            0.0000000000000000
    Total Energy =                       -418.4347129544936479
    Molecular point group: c1
  Basis Set: CC-PVTZ
  Basis Set:

  -Total Gradient:
     Atom            X                  Y                   Z
    ------   -----------------  -----------------  -----------------
       1       -0.000004192977     0.000011018785    -0.000017700200
       2        0.000016099855    -0.000011870448     0.000029091269
       3       -0.000070779945    -0.000039256083    -0.000038680429
       4       -0.000016988868     0.000037407336     0.000052133978
       5        0.000067969817     0.000039766436    -0.000096884572
       6        0.000001339506    -0.000003623267     0.000006691413
       7        0.000058258160     0.000018256246    -0.000035095455
       8       -0.000007358454     0.000020489769     0.000001583545
       9       -0.000992506350     0.004314877896    -0.002345477110
      10        0.000000066394    -0.000003171764     0.000000841372
      11        0.000742724960    -0.003113457740     0.003545046045
      12       -0.000260700428    -0.001068464503    -0.007060162091
      13        0.000000500044     0.000005167380    -0.000006483824
      14        0.000370423743    -0.000083548410     0.005981857919
      15        0.000095144539    -0.000123591635    -0.000016761863

  **** Optimization is complete! (in 6 steps) ****
    Final optimized geometry and variables:
    Molecular point group: c1

    Geometry (in Angstrom), charge = 0, multiplicity = 1:

    H            3.005578224162    -0.914448363657    -1.268406744701
    O            2.096387017284    -1.141680471263    -1.342606675472
    C            1.329028483599    -0.339040106320    -0.580551649476
    C            1.859928948532     0.684722997150     0.186816941887
    C           -0.032856303643    -0.571866471231    -0.573952688880
    H            2.920546979605     0.859132596834     0.188394878210
    C            1.027287414280     1.478930572299     0.950252937014
    H           -0.437547447552    -1.383236099493    -1.144641207573
    C           -0.859350224464     0.243981937419     0.174276058350
    H            1.449032674496     2.263080183862     1.548836944319
    C           -0.336628039274     1.270186276917     0.943551697107
    C           -2.320394589701    -0.040930169299     0.247888451971
    H           -0.984719123135     1.894199930485     1.529120621249
    O           -2.785340328329    -1.127666854171     0.254642676455
    H           -2.960743842375     0.839623802269     0.359713898436

  Mulliken Charges: (a.u.)
   Center  Symbol    Alpha    Beta     Spin     Total
       1     H     0.38700  0.38700  0.00000  0.22600
       2     O     4.17022  4.17022  0.00000 -0.34045
       3     C     2.83946  2.83946  0.00000  0.32108
       4     C     3.13127  3.13127  0.00000 -0.26253
       5     C     3.12316  3.12316  0.00000 -0.24633
       6     H     0.43183  0.43183  0.00000  0.13634
       7     C     3.06079  3.06079  0.00000 -0.12157
       8     H     0.40945  0.40945  0.00000  0.18110
       9     C     2.95017  2.95017  0.00000  0.09967
      10     H     0.41948  0.41948  0.00000  0.16104
      11     C     3.11276  3.11276  0.00000 -0.22552
      12     C     2.92133  2.92133  0.00000  0.15734
      13     H     0.42406  0.42406  0.00000  0.15188
      14     O     4.16267  4.16267  0.00000 -0.32535
      15     H     0.45635  0.45635  0.00000  0.08730

   Total alpha = 32.00000, Total beta = 32.00000, Total charge = -0.00000

*** Psi4 exiting successfully. Buy a developer a beer!
