                              Psi4 1.0.54 Driver

  ==> Input File <==

--------------------------------------------------------------------------
set {
	reference rhf
	basis cc-pvtz
}

set_num_threads( 4 )
memory 2 gb

molecule MOL {
0 1

O	 2.376865	 2.113563	 -0.188339
C	 1.329003	 2.504810	 -0.587112
C	 0.081910	 1.644456	 -0.567583
C	 1.169883	 3.900863	 -1.145629
C	 0.288398	 0.247429	 0.000314
H	 -0.677430	 2.181454	 -0.003576
H	 -0.297307	 1.594455	 -1.585767
C	 -0.993089	 -0.581367	 -0.000217
H	 0.674901	 0.327656	 1.009915
H	 1.055488	 -0.259803	 -0.573640
C	 -2.258482	 0.271340	 0.000669
H	 -1.002280	 -1.233920	 -0.870484
H	 -1.002061	 -1.235367	 0.868958
C	 -3.544441	 -0.550271	 -0.000253
H	 -2.250545	 0.925250	 -0.867923
H	 -2.250598	 0.923423	 0.870642
C	 -4.804551	 0.308747	 0.000556
H	 -3.553737	 -1.201524	 -0.870151
H	 -3.553831	 -1.203282	 0.868313
H	 -4.842050	 0.949078	 -0.874436
H	 -5.698404	 -0.304480	 -0.000254
H	 -4.842277	 0.947103	 0.876982
H	 0.429747	 4.450242	 -0.574290
H	 2.115358	 4.419668	 -1.109444
H	 0.817279	 3.855649	 -2.170162

	symmetry c1
}
set optking {
	frozen_dihedral = ("
		9 5 8 12
	")
}

ee,wfn = optimize('scf', return_wfn=True)
oeprop( wfn, 'DIPOLE', 'QUADRUPOLE', 'MULLIKEN_CHARGES')
f=open( 'psi4out.xyz', 'w' )
f.write( "25  " )
f.write( str(ee) + "\n" )
f.write( MOL.save_string_xyz() )
f.close()
--------------------------------------------------------------------------

    Molecular point group: c1
  Charge       = 0
  Multiplicity = 1
  Basis Set: CC-PVTZ
  Basis Set:
  @DF-RHF Final Energy:  -387.26354890863342
    Total Energy =                       -387.2635489086331972
    Molecular point group: c1
  Basis Set: CC-PVTZ
  Basis Set:
  Basis Set: CC-PVTZ
  Basis Set:
  @DF-RHF Final Energy:  -387.26191326245191
    Total Energy =                       -387.2619132624522535
  Basis Set: CC-PVTZ
  Basis Set:
  Basis Set: CC-PVTZ
  Basis Set:
  @DF-RHF Final Energy:  -387.26749407077239
    Total Energy =                       -387.2674940707721589
  Basis Set: CC-PVTZ
  Basis Set:
  Basis Set: CC-PVTZ
  Basis Set:
  @DF-RHF Final Energy:  -387.26782871964679
    Total Energy =                       -387.2678287196466727
  Basis Set: CC-PVTZ
  Basis Set:
  @DF-RHF Final Energy:  -387.26519927371169
    Total Energy =                       -387.2651992737116871
  @DF-RHF Final Energy:  -387.26789027634567
    Total Energy =                       -387.2678902763456108
  Basis Set: CC-PVTZ
  Basis Set:
  @DF-RHF Final Energy:  -387.26791274920521
    Total Energy =                       -387.2679127492053794
  Basis Set: CC-PVTZ
  Basis Set:
  Basis Set: CC-PVTZ
  Basis Set:
  @DF-RHF Final Energy:  -387.26791457270588
    Total Energy =                       -387.2679145727054220
  Basis Set: CC-PVTZ
  Basis Set:
  Basis Set: CC-PVTZ
  Basis Set:
  @DF-RHF Final Energy:  -387.26791651010461
    Total Energy =                       -387.2679165101048966
  Basis Set: CC-PVTZ
  Basis Set:
  Charge       = 0
  Multiplicity = 1
  Basis Set: CC-PVTZ
  Basis Set:

    Orbital Energies (a.u.)
    -----------------------

    Doubly Occupied:

       1A    -20.538704     2A    -11.320316     3A    -11.229840
       4A    -11.226379     5A    -11.215973     6A    -11.215430
       7A    -11.215041     8A    -11.214532     9A    -11.209205
      10A     -1.398828    11A     -1.094764    12A     -1.056989
      13A     -1.014848    14A     -0.969017    15A     -0.901196
      16A     -0.817972    17A     -0.787190    18A     -0.729399
      19A     -0.660215    20A     -0.655861    21A     -0.634747
      22A     -0.624601    23A     -0.596680    24A     -0.584419
      25A     -0.569366    26A     -0.561716    27A     -0.544979
      28A     -0.529400    29A     -0.520286    30A     -0.495464
      31A     -0.493100    32A     -0.476609    33A     -0.461367
      34A     -0.454163    35A     -0.448557    36A     -0.402916

  @DF-RHF Final Energy:  -387.26791661394788

   => Energetics <=

    Nuclear Repulsion Energy =            446.2184483409582185
    One-Electron Energy =               -1409.2325862977477300
    Two-Electron Energy =                 575.7462213428410678
    DFT Exchange-Correlation Energy =       0.0000000000000000
    Empirical Dispersion Energy =           0.0000000000000000
    PCM Polarization Energy =               0.0000000000000000
    EFP Energy =                            0.0000000000000000
    Total Energy =                       -387.2679166139483868
    Molecular point group: c1
  Basis Set: CC-PVTZ
  Basis Set:

  -Total Gradient:
     Atom            X                  Y                   Z
    ------   -----------------  -----------------  -----------------
       1       -0.000024851513     0.000016909073    -0.000029577609
       2       -0.000003407749    -0.000004099766     0.000019993880
       3        0.000011819818    -0.000015824057    -0.000015909546
       4        0.000016715818     0.000014695035     0.000023896716
       5       -0.003648808477     0.005409012985     0.001870117534
       6        0.000001164943    -0.000005458242     0.000002268593
       7        0.000002345366     0.000007594880     0.000006879367
       8       -0.002592419333     0.004347149222    -0.004334631224
       9        0.003457111100    -0.005222633790    -0.000860108779
      10       -0.000003851443     0.000002057670    -0.000001016424
      11       -0.000004134694     0.000002472742     0.000004292247
      12        0.002773841431    -0.004537207863     0.003342613117
      13        0.000001088244    -0.000002985482    -0.000004076774
      14        0.000000332450    -0.000004206096    -0.000014811992
      15       -0.000004844624    -0.000009617072     0.000008694245
      16       -0.000001237974     0.000002597619    -0.000007995914
      17        0.000003289808     0.000004534273     0.000010554636
      18        0.000001329318     0.000006884935     0.000008455643
      19        0.000001151810     0.000008655992    -0.000014529545
      20        0.000002548126    -0.000010578754     0.000007604653
      21        0.000005366893     0.000003706702     0.000003896612
      22       -0.000001170825    -0.000001123767    -0.000008297570
      23        0.000005792569    -0.000005352267    -0.000015146352
      24       -0.000008640589     0.000003342561    -0.000008013270
      25        0.000009469521    -0.000010526531     0.000004847754

  **** Optimization is complete! (in 10 steps) ****
    Final optimized geometry and variables:
    Molecular point group: c1

    Geometry (in Angstrom), charge = 0, multiplicity = 1:

    O            3.162148249372     0.943869245422     0.141070536734
    C            2.171327055297     1.409838102807    -0.318114900145
    C            0.852731007753     0.661992658478    -0.339460794871
    C            2.159252765235     2.797895972395    -0.918409617390
    C            0.923418150530    -0.727710962121     0.276827326191
    H            0.121123105016     1.287331379748     0.162888655589
    H            0.527090896643     0.611054020515    -1.375962297802
    C           -0.365394851566    -1.569753452068     0.201672213614
    H            1.268599670495    -0.667996424688     1.301799842228
    H            1.711030482541    -1.274864257859    -0.227840283899
    C           -1.693118781655    -0.821010225745     0.276152738664
    H           -0.334995815546    -2.201066145457    -0.681985218048
    H           -0.333285964960    -2.274528080799     1.028219115381
    C           -2.897625704085    -1.758106655588     0.309878461508
    H           -1.795965985251    -0.150136943407    -0.571709827783
    H           -1.707279374513    -0.194347837598     1.165354769267
    C           -4.230369238459    -1.019861711622     0.376289645909
    H           -2.881373430081    -2.393361563469    -0.571510880915
    H           -2.811190256389    -2.422585114661     1.164872635701
    H           -4.364276759993    -0.374222276573    -0.485418354888
    H           -5.062797111942    -1.713613635858     0.400986009495
    H           -4.290799718165    -0.399923819367     1.264705264293
    H            1.446574657202     3.425575556411    -0.394913696182
    H            3.144111988527     3.233987375409    -0.852630334954
    H            1.848254228839     2.753742668657    -1.956361563701

  Mulliken Charges: (a.u.)
   Center  Symbol    Alpha    Beta     Spin     Total
       1     O     4.17002  4.17002  0.00000 -0.34003
       2     C     2.86305  2.86305  0.00000  0.27389
       3     C     3.11753  3.11753  0.00000 -0.23505
       4     C     3.15121  3.15121  0.00000 -0.30243
       5     C     3.09122  3.09122  0.00000 -0.18245
       6     H     0.44148  0.44148  0.00000  0.11704
       7     H     0.44378  0.44378  0.00000  0.11243
       8     C     3.09842  3.09842  0.00000 -0.19683
       9     H     0.44370  0.44370  0.00000  0.11260
      10     H     0.44300  0.44300  0.00000  0.11399
      11     C     3.09238  3.09238  0.00000 -0.18475
      12     H     0.45065  0.45065  0.00000  0.09869
      13     H     0.44989  0.44989  0.00000  0.10023
      14     C     3.08487  3.08487  0.00000 -0.16973
      15     H     0.45329  0.45329  0.00000  0.09342
      16     H     0.45351  0.45351  0.00000  0.09298
      17     C     3.14992  3.14992  0.00000 -0.29983
      18     H     0.45417  0.45417  0.00000  0.09167
      19     H     0.45268  0.45268  0.00000  0.09465
      20     H     0.45592  0.45592  0.00000  0.08816
      21     H     0.44770  0.44770  0.00000  0.10459
      22     H     0.45520  0.45520  0.00000  0.08960
      23     H     0.45060  0.45060  0.00000  0.09880
      24     H     0.43510  0.43510  0.00000  0.12981
      25     H     0.45073  0.45073  0.00000  0.09855

   Total alpha = 36.00000, Total beta = 36.00000, Total charge = -0.00000

*** Psi4 exiting successfully. Buy a developer a beer!
