  ==> Input File <==

--------------------------------------------------------------------------
set {
	reference rhf
	basis 6-31G*
}

set_num_threads( 1 )
memory 2 gb

molecule MOL {
0 1

H	 2.591676	 2.013956	 0.335017
O	 3.341076	 1.666752	 -0.126416
C	 3.569581	 0.339145	 0.272707
C	 2.539767	 -0.640285	 -0.279495
H	 4.553106	 0.084646	 -0.100901
H	 3.608576	 0.269204	 1.359154
C	 1.433318	 0.020048	 -1.105690
H	 3.057059	 -1.378830	 -0.886395
H	 2.095448	 -1.173745	 0.559176
C	 0.386301	 -0.982080	 -1.599969
H	 1.878207	 0.529112	 -1.956156
H	 0.940311	 0.784662	 -0.505148
C	 -0.790668	 -0.360928	 -2.361056
H	 0.871323	 -1.724531	 -2.231133
H	 -0.006116	 -1.524035	 -0.742068
C	 -0.425132	 0.276104	 -3.704579
H	 -1.532435	 -1.137450	 -2.536019
H	 -1.275112	 0.382145	 -1.729396
C	 -1.645302	 0.787320	 -4.473527
H	 0.103613	 -0.453803	 -4.315950
H	 0.264877	 1.102414	 -3.551606
C	 -1.282625	 1.429447	 -5.812109
H	 -2.334511	 -0.036937	 -4.644054
H	 -2.180333	 1.509562	 -3.860344
H	 -0.774577	 0.721998	 -6.461437
H	 -2.168094	 1.779656	 -6.333580
H	 -0.622710	 2.281197	 -5.672828

	symmetry c1
}
set optking {
	frozen_dihedral = ("
		14 10 7 4,
		14 10 13 16,
		10 7 4 8,
		10 13 16 20,
		20 16 19 22,
		4 3 2 1
	")
}

ee = energy('scf')
oeprop('DIPOLE', 'QUADRUPOLE', 'MULLIKEN_CHARGES')
f=open( 'psi4out.xyz', 'w' )
f.write( "27  " )
f.write( str(ee) + "\n" )
f.write( MOL.save_string_xyz() )
f.close()
--------------------------------------------------------------------------

    Molecular point group: c1

    Geometry (in Angstrom), charge = 0, multiplicity = 1:

       Center              X                  Y                   Z               Mass
    ------------   -----------------  -----------------  -----------------  -----------------
           H          1.761739751152     1.697781905559     2.443575815875     1.007825032070
           O          2.511139751152     1.350577905559     1.982142815875    15.994914619560
           C          2.739644751152     0.022970905559     2.381265815875    12.000000000000
           C          1.709830751152    -0.956459094441     1.829063815875    12.000000000000
           H          3.723169751152    -0.231528094441     2.007657815875     1.007825032070
           H          2.778639751152    -0.046970094441     3.467712815875     1.007825032070
           C          0.603381751152    -0.296126094441     1.002868815875    12.000000000000
           H          2.227122751152    -1.695004094441     1.222163815875     1.007825032070
           H          1.265511751152    -1.489919094441     2.667734815875     1.007825032070
           C         -0.443635248848    -1.298254094441     0.508589815875    12.000000000000
           H          1.048270751152     0.212937905559     0.152402815875     1.007825032070
           H          0.110374751152     0.468487905559     1.603410815875     1.007825032070
           C         -1.620604248848    -0.677102094441    -0.252497184125    12.000000000000
           H          0.041386751152    -2.040705094441    -0.122574184125     1.007825032070
           H         -0.836052248848    -1.840209094441     1.366490815875     1.007825032070
           C         -1.255068248848    -0.040070094441    -1.596020184125    12.000000000000
           H         -2.362371248848    -1.453624094441    -0.427460184125     1.007825032070
           H         -2.105048248848     0.065970905559     0.379162815875     1.007825032070
           C         -2.475238248848     0.471145905559    -2.364968184125    12.000000000000
           H         -0.726323248848    -0.769977094441    -2.207391184125     1.007825032070
           H         -0.565059248848     0.786239905559    -1.443047184125     1.007825032070
           C         -2.112561248848     1.113272905559    -3.703550184125    12.000000000000
           H         -3.164447248848    -0.353111094441    -2.535495184125     1.007825032070
           H         -3.010269248848     1.193387905559    -1.751785184125     1.007825032070
           H         -1.604513248848     0.405823905559    -4.352878184125     1.007825032070
           H         -2.998030248848     1.463481905559    -4.225021184125     1.007825032070
           H         -1.452646248848     1.965022905559    -3.564269184125     1.007825032070

  Charge       = 0
  Multiplicity = 1
  Basis Set: 6-31G*
  Basis Set:

    Orbital Energies (a.u.)
    -----------------------

    Doubly Occupied:

       1A    -20.551654     2A    -11.266134     3A    -11.214159
       4A    -11.213282     5A    -11.213069     6A    -11.212807
       7A    -11.212219     8A    -11.210401     9A    -11.206548
      10A     -1.359878    11A     -1.090955    12A     -1.057620
      13A     -1.009062    14A     -0.947006    15A     -0.886394
      16A     -0.817571    17A     -0.797030    18A     -0.772964
      19A     -0.692833    20A     -0.644353    21A     -0.637964
      22A     -0.616037    23A     -0.602535    24A     -0.584936
      25A     -0.571419    26A     -0.555494    27A     -0.541142
      28A     -0.523271    29A     -0.500071    30A     -0.496595
      31A     -0.477886    32A     -0.469055    33A     -0.461605
      34A     -0.457061    35A     -0.444361    36A     -0.440226
      37A     -0.424162

  @DF-RHF Final Energy:  -388.27264126474250

   => Energetics <=

    Nuclear Repulsion Energy =            462.4306162282657056
    One-Electron Energy =               -1443.0470292535860608
    Two-Electron Energy =                 592.3437717605770558
    DFT Exchange-Correlation Energy =       0.0000000000000000
    Empirical Dispersion Energy =           0.0000000000000000
    PCM Polarization Energy =               0.0000000000000000
    EFP Energy =                            0.0000000000000000
    Total Energy =                       -388.2726412647432426

  Mulliken Charges: (a.u.)
   Center  Symbol    Alpha    Beta     Spin     Total
       1     H     0.28092  0.28092  0.00000  0.43816
       2     O     4.36917  4.36917  0.00000 -0.73833
       3     C     2.99441  2.99441  0.00000  0.01118
       4     C     3.18054  3.18054  0.00000 -0.36108
       5     H     0.41452  0.41452  0.00000  0.17095
       6     H     0.42890  0.42890  0.00000  0.14220
       7     C     3.14771  3.14771  0.00000 -0.29542
       8     H     0.41743  0.41743  0.00000  0.16514
       9     H     0.42240  0.42240  0.00000  0.15521
      10     C     3.15359  3.15359  0.00000 -0.30717
      11     H     0.40813  0.40813  0.00000  0.18374
      12     H     0.43561  0.43561  0.00000  0.12878
      13     C     3.15279  3.15279  0.00000 -0.30558
      14     H     0.42367  0.42367  0.00000  0.15266
      15     H     0.42396  0.42396  0.00000  0.15207
      16     C     3.15324  3.15324  0.00000 -0.30648
      17     H     0.42221  0.42221  0.00000  0.15558
      18     H     0.42513  0.42513  0.00000  0.14974
      19     C     3.15105  3.15105  0.00000 -0.30210
      20     H     0.42462  0.42462  0.00000  0.15075
      21     H     0.42041  0.42041  0.00000  0.15918
      22     C     3.23917  3.23917  0.00000 -0.47834
      23     H     0.42364  0.42364  0.00000  0.15271
      24     H     0.42359  0.42359  0.00000  0.15281
      25     H     0.42192  0.42192  0.00000  0.15617
      26     H     0.41987  0.41987  0.00000  0.16026
      27     H     0.42140  0.42140  0.00000  0.15720

   Total alpha = 37.00000, Total beta = 37.00000, Total charge =  0.00000
