  ==> Input File <==

--------------------------------------------------------------------------
set {
	reference rhf
	basis 6-31G*
}

set_num_threads( 4 )
memory 2 gb

molecule MOL {
0 1

H	 2.400873	 2.982506	 0.778873
O	 1.455676	 2.941182	 0.817631
C	 1.006449	 1.734590	 0.409314
C	 1.863229	 0.722166	 -0.003274
C	 -0.361598	 1.525133	 0.411609
H	 2.927554	 0.887233	 -0.004300
C	 1.351980	 -0.497873	 -0.412907
H	 -1.024499	 2.306304	 0.730060
C	 -0.865228	 0.300799	 0.000000
H	 2.024894	 -1.273760	 -0.730026
C	 -0.013884	 -0.715926	 -0.413827
C	 -2.333960	 0.069074	 0.000000
H	 -0.413159	 -1.662816	 -0.731608
O	 -2.847347	 -1.003763	 0.000000
H	 -2.943845	 0.977528	 0.000000

	symmetry c1
}
set optking {
	frozen_dihedral = ("
		11 9 12 14
	")
}

ee = optimize('scf')
oeprop('DIPOLE', 'QUADRUPOLE', 'MULLIKEN_CHARGES')
f=open( 'psi4out.xyz', 'w' )
f.write( "15  " )
f.write( str(ee) + "\n" )
f.write( MOL.save_string_xyz() )
f.close()
--------------------------------------------------------------------------

    Molecular point group: c1
  Charge       = 0
  Multiplicity = 1
  Basis Set: 6-31G*
  Basis Set:
  @DF-RHF Final Energy:  -418.28499917219085
    Total Energy =                       -418.2849991721908509
    Molecular point group: c1
  Basis Set: 6-31G*
  Basis Set:
  Basis Set: 6-31G*
  Basis Set:
  @DF-RHF Final Energy:  -418.28409292797841
    Total Energy =                       -418.2840929279789179
  Basis Set: 6-31G*
  Basis Set:
  Basis Set: 6-31G*
  Basis Set:
  @DF-RHF Final Energy:  -418.28518412914531
    Total Energy =                       -418.2851841291460460
  Basis Set: 6-31G*
  Basis Set:
  Basis Set: 6-31G*
  Basis Set:
  @DF-RHF Final Energy:  -418.28534449007020
    Total Energy =                       -418.2853444900697468
  Basis Set: 6-31G*
  Basis Set:
  Basis Set: 6-31G*
  Basis Set:
  @DF-RHF Final Energy:  -418.28534798062782
    Total Energy =                       -418.2853479806274208
  Basis Set: 6-31G*
  Basis Set:
  Charge       = 0
  Multiplicity = 1
  Basis Set: 6-31G*
  Basis Set:

    Orbital Energies (a.u.)
    -----------------------

    Doubly Occupied:

       1A    -20.604606     2A    -20.565528     3A    -11.332980
       4A    -11.314654     5A    -11.252669     6A    -11.251098
       7A    -11.248472     8A    -11.246553     9A    -11.239238
      10A     -1.423951    11A     -1.405839    12A     -1.169334
      13A     -1.050757    14A     -1.024599    15A     -0.901313
      16A     -0.845788    17A     -0.813669    18A     -0.737906
      19A     -0.701235    20A     -0.673569    21A     -0.662176
      22A     -0.628163    23A     -0.611361    24A     -0.603919
      25A     -0.578246    26A     -0.547884    27A     -0.538154
      28A     -0.516089    29A     -0.485971    30A     -0.423679
      31A     -0.355789    32A     -0.324453

  @DF-RHF Final Energy:  -418.28534898564749

   => Energetics <=

    Nuclear Repulsion Energy =            402.2731400712448249
    One-Electron Energy =               -1366.9576990293580820
    Two-Electron Energy =                 546.3992099724655418
    DFT Exchange-Correlation Energy =       0.0000000000000000
    Empirical Dispersion Energy =           0.0000000000000000
    PCM Polarization Energy =               0.0000000000000000
    EFP Energy =                            0.0000000000000000
    Total Energy =                       -418.2853489856477154
    Molecular point group: c1
  Basis Set: 6-31G*
  Basis Set:

  -Total Gradient:
     Atom            X                  Y                   Z
    ------   -----------------  -----------------  -----------------
       1        0.000001448174     0.000002337021     0.000003089683
       2        0.000005335574    -0.000025842960     0.000001131295
       3       -0.000058223493     0.000044323584    -0.000018454969
       4        0.000007529622    -0.000043512408    -0.000011842871
       5        0.000009892478     0.000027352020     0.000021682875
       6       -0.000002508109    -0.000002643485    -0.000004423639
       7        0.000038232477     0.000033470166     0.000039470400
       8        0.000016427617    -0.000004225024    -0.000010721907
       9        0.000156518588    -0.001716949647     0.005902592408
      10       -0.000002230345    -0.000004309099    -0.000003237842
      11       -0.000150625878     0.001151737836    -0.002865212958
      12       -0.000020525035     0.000613192464    -0.006808619852
      13       -0.000010193561    -0.000011313586    -0.000017975452
      14       -0.000022157455    -0.000065573359     0.003768626815
      15        0.000031079338     0.000001956474     0.000003896016

  **** Optimization is complete! (in 6 steps) ****
    Final optimized geometry and variables:
    Molecular point group: c1

    Geometry (in Angstrom), charge = 0, multiplicity = 1:

    H            2.485421922665     2.395723423850     0.682162108181
    O            1.540181276133     2.347447581650     0.714440044863
    C            1.104645538211     1.135142396198     0.306100892849
    C            1.961078714148     0.128612880673    -0.104867110062
    C           -0.266465460690     0.918526854634     0.298877737061
    H            3.024958006097     0.296363722321    -0.109935277809
    C            1.448749877440    -1.095462091522    -0.517004012752
    H           -0.919342695531     1.715578788513     0.606520779609
    C           -0.766355665340    -0.311088143893    -0.091326484197
    H            2.125164274679    -1.865199021439    -0.841803162359
    C            0.088838543215    -1.325278724007    -0.513436237450
    C           -2.239170254256    -0.519744591242    -0.108290554100
    H           -0.319967936127    -2.267804344713    -0.823441122604
    O           -2.763132007019    -1.587358786230    -0.132019571994
    H           -2.838932554612     0.394046406175    -0.065599665858

  Mulliken Charges: (a.u.)
   Center  Symbol    Alpha    Beta     Spin     Total
       1     H     0.27010  0.27010  0.00000  0.45981
       2     O     4.37739  4.37739  0.00000 -0.75477
       3     C     2.79522  2.79522  0.00000  0.40956
       4     C     3.13593  3.13593  0.00000 -0.27186
       5     C     3.12818  3.12818  0.00000 -0.25636
       6     H     0.39925  0.39925  0.00000  0.20151
       7     C     3.09446  3.09446  0.00000 -0.18891
       8     H     0.38485  0.38485  0.00000  0.23030
       9     C     3.03999  3.03999  0.00000 -0.07999
      10     H     0.39257  0.39257  0.00000  0.21486
      11     C     3.10255  3.10255  0.00000 -0.20511
      12     C     2.83542  2.83542  0.00000  0.32917
      13     H     0.37977  0.37977  0.00000  0.24046
      14     O     4.24350  4.24350  0.00000 -0.48699
      15     H     0.42083  0.42083  0.00000  0.15834

   Total alpha = 32.00000, Total beta = 32.00000, Total charge =  0.00000
