  ==> Input File <==

--------------------------------------------------------------------------
set {
	reference rhf
	basis 6-31G*
}

set_num_threads( 4 )
memory 2 gb

molecule MOL {
0 1

H	 1.819747	 2.412935	 0.447453
N	 0.974087	 1.884982	 0.349284
C	 1.267428	 0.496480	 0.024474
H	 0.448595	 2.314686	 -0.388365
C	 -0.016086	 -0.325158	 -0.029487
H	 1.911617	 0.104119	 0.805568
H	 1.810940	 0.381501	 -0.916672
C	 -1.282277	 0.529072	 0.046735
H	 -0.012495	 -0.908639	 -0.945788
H	 -0.015903	 -1.041248	 0.791956
C	 -2.563920	 -0.301775	 -0.006060
H	 -1.284084	 1.244622	 -0.773004
H	 -1.271387	 1.115393	 0.963286
H	 -2.621848	 -0.873522	 -0.927727
H	 -3.445135	 0.329952	 0.047812
H	 -2.609542	 -1.004582	 0.821105

	symmetry c1
}
set optking {
	frozen_dihedral = ("
		6 3 5 9
	")
}

ee = optimize('scf')
oeprop('DIPOLE', 'QUADRUPOLE', 'MULLIKEN_CHARGES')
f=open( 'psi4out.xyz', 'w' )
f.write( "16  " )
f.write( str(ee) + "\n" )
f.write( MOL.save_string_xyz() )
f.close()
--------------------------------------------------------------------------

    Molecular point group: c1
  Charge       = 0
  Multiplicity = 1
  Basis Set: 6-31G*
  Basis Set:
  @DF-RHF Final Energy:  -212.30499232546677
    Total Energy =                       -212.3049923254669693
    Molecular point group: c1
  Basis Set: 6-31G*
  Basis Set:
  Basis Set: 6-31G*
  Basis Set:
  @DF-RHF Final Energy:  -212.30506622411008
    Total Energy =                       -212.3050662241100781
  Basis Set: 6-31G*
  Basis Set:
  Basis Set: 6-31G*
  Basis Set:
  @DF-RHF Final Energy:  -212.30772931174539
    Total Energy =                       -212.3077293117453337
  Basis Set: 6-31G*
  Basis Set:
  Basis Set: 6-31G*
  Basis Set:
  @DF-RHF Final Energy:  -212.30796396109974
    Total Energy =                       -212.3079639610996878
  Basis Set: 6-31G*
  Basis Set:
  Basis Set: 6-31G*
  Basis Set:
  @DF-RHF Final Energy:  -212.30794732951662
    Total Energy =                       -212.3079473295166508
  Basis Set: 6-31G*
  Basis Set:
  Basis Set: 6-31G*
  Basis Set:
  @DF-RHF Final Energy:  -212.30797938140719
    Total Energy =                       -212.3079793814072218
  Basis Set: 6-31G*
  Basis Set:
  Basis Set: 6-31G*
  Basis Set:
  @DF-RHF Final Energy:  -212.30798607417304
    Total Energy =                       -212.3079860741731295
  Basis Set: 6-31G*
  Basis Set:
  Charge       = 0
  Multiplicity = 1
  Basis Set: 6-31G*
  Basis Set:

    Orbital Energies (a.u.)
    -----------------------

    Doubly Occupied:

       1A    -15.532424     2A    -11.241197     3A    -11.210151
       4A    -11.207860     5A    -11.203965     6A     -1.175392
       7A     -1.051356     8A     -0.955736     9A     -0.851387
      10A     -0.775459    11A     -0.666410    12A     -0.637671
      13A     -0.599639    14A     -0.579595    15A     -0.551179
      16A     -0.523347    17A     -0.502216    18A     -0.467394
      19A     -0.464614    20A     -0.451334    21A     -0.377412

  @DF-RHF Final Energy:  -212.30798607785266

   => Energetics <=

    Nuclear Repulsion Energy =            189.1717328672566509
    One-Electron Energy =                -660.9079657862512249
    Two-Electron Energy =                 259.4282468411417995
    DFT Exchange-Correlation Energy =       0.0000000000000000
    Empirical Dispersion Energy =           0.0000000000000000
    PCM Polarization Energy =               0.0000000000000000
    EFP Energy =                            0.0000000000000000
    Total Energy =                       -212.3079860778527745
    Molecular point group: c1
  Basis Set: 6-31G*
  Basis Set:

  -Total Gradient:
     Atom            X                  Y                   Z
    ------   -----------------  -----------------  -----------------
       1        0.000004472672    -0.000000298856     0.000000277006
       2        0.000020091259    -0.000013367174    -0.000006356481
       3        0.001048552021    -0.001566086765    -0.002425494733
       4       -0.000001982326    -0.000001266669    -0.000003658164
       5        0.001191810144    -0.002066302604     0.001939350810
       6       -0.001060742041     0.001670942959     0.001763653469
       7        0.000002849375     0.000007300966     0.000000838731
       8       -0.000002410313    -0.000012283493    -0.000016947520
       9       -0.001206489365     0.002000269694    -0.001244722853
      10       -0.000005401346    -0.000004059581    -0.000001686022
      11        0.000001327686    -0.000010114161     0.000009246455
      12        0.000008408624    -0.000000096882    -0.000009946273
      13       -0.000001738292    -0.000006856393    -0.000001761634
      14       -0.000006722318     0.000006464053    -0.000005601861
      15        0.000002314663     0.000001743850     0.000009481020
      16        0.000005659555    -0.000005988944    -0.000006671947

  **** Optimization is complete! (in 8 steps) ****
    Final optimized geometry and variables:
    Molecular point group: c1

    Geometry (in Angstrom), charge = 0, multiplicity = 1:

    H            2.280202961443     1.871722027523     0.442183819651
    N            1.391788036142     1.437080453175     0.283507513237
    C            1.581158541988     0.031074832524    -0.059032596659
    H            0.958856367477     1.936921824547    -0.468615955424
    C            0.259385215093    -0.779267475567    -0.094147335560
    H            2.221028280783    -0.378119703841     0.714314268247
    H            2.108469386503    -0.097131009397    -1.004750763328
    C           -1.034399434459     0.039987054053    -0.032782582711
    H            0.234753530629    -1.366259440908    -1.009088119007
    H            0.251225823568    -1.489642779372     0.727623982339
    C           -2.275183606989    -0.852059269616    -0.073570932800
    H           -1.074062392554     0.735099326006    -0.869276808897
    H           -1.043199508745     0.642725844027     0.867152788471
    H           -2.309739858526    -1.442364869326    -0.985303447553
    H           -3.184437594558    -0.260281362551    -0.028756800751
    H           -2.289488380882    -1.542162664281     0.765584643442

  Mulliken Charges: (a.u.)
   Center  Symbol    Alpha    Beta     Spin     Total
       1     H     0.33170  0.33170  0.00000  0.33660
       2     N     3.92393  3.92393  0.00000 -0.84787
       3     C     3.06299  3.06299  0.00000 -0.12597
       4     H     0.33373  0.33373  0.00000  0.33253
       5     C     3.16013  3.16013  0.00000 -0.32027
       6     H     0.41864  0.41864  0.00000  0.16271
       7     H     0.43142  0.43142  0.00000  0.13716
       8     C     3.15080  3.15080  0.00000 -0.30160
       9     H     0.42392  0.42392  0.00000  0.15216
      10     H     0.41984  0.41984  0.00000  0.16033
      11     C     3.23992  3.23992  0.00000 -0.47984
      12     H     0.43073  0.43073  0.00000  0.13853
      13     H     0.40624  0.40624  0.00000  0.18751
      14     H     0.42398  0.42398  0.00000  0.15203
      15     H     0.41985  0.41985  0.00000  0.16029
      16     H     0.42216  0.42216  0.00000  0.15568

   Total alpha = 21.00000, Total beta = 21.00000, Total charge =  0.00000
