  ==> Input File <==

--------------------------------------------------------------------------
set {
	reference rhf
	basis 6-31G*
}

set_num_threads( 4 )
memory 2 gb

molecule MOL {
0 1

H	 1.468557	 -0.261083	 2.045312
C	 1.769475	 -0.021897	 1.018161
C	 0.692068	 0.589600	 0.160137
O	 2.877746	 -0.247059	 0.653241
C	 -0.558097	 -0.297372	 0.091132
H	 1.104120	 0.769430	 -0.825944
H	 0.427456	 1.552523	 0.595555
C	 -1.850991	 0.512573	 -0.019058
H	 -0.476753	 -0.965681	 -0.762987
H	 -0.604799	 -0.930658	 0.975228
C	 -3.096943	 -0.368295	 -0.099594
H	 -1.800724	 1.150330	 -0.898172
H	 -1.931651	 1.177355	 0.838044
H	 -3.060452	 -1.020287	 -0.967456
H	 -3.996858	 0.233488	 -0.175704
H	 -3.191959	 -0.995686	 0.782074

	symmetry c1
}
set optking {
	frozen_dihedral = ("
		6 3 5 9
	")
}

ee = optimize('scf')
oeprop('DIPOLE', 'QUADRUPOLE', 'MULLIKEN_CHARGES')
f=open( 'psi4out.xyz', 'w' )
f.write( "16  " )
f.write( str(ee) + "\n" )
f.write( MOL.save_string_xyz() )
f.close()
--------------------------------------------------------------------------

    Molecular point group: c1
  Charge       = 0
  Multiplicity = 1
  Basis Set: 6-31G*
  Basis Set:
  @DF-RHF Final Energy:  -270.01720916045747
    Total Energy =                       -270.0172091604574689
    Molecular point group: c1
  Basis Set: 6-31G*
  Basis Set:
  Basis Set: 6-31G*
  Basis Set:
  @DF-RHF Final Energy:  -270.01733470084662
    Total Energy =                       -270.0173347008466749
  Basis Set: 6-31G*
  Basis Set:
  Basis Set: 6-31G*
  Basis Set:
  @DF-RHF Final Energy:  -270.01718139442579
    Total Energy =                       -270.0171813944256201
  Basis Set: 6-31G*
  Basis Set:
  Basis Set: 6-31G*
  Basis Set:
  @DF-RHF Final Energy:  -270.01743180145758
    Total Energy =                       -270.0174318014575192
  Basis Set: 6-31G*
  Basis Set:
  Basis Set: 6-31G*
  Basis Set:
  @DF-RHF Final Energy:  -270.01744055810468
    Total Energy =                       -270.0174405581044539
  Basis Set: 6-31G*
  Basis Set:
  Basis Set: 6-31G*
  Basis Set:
  @DF-RHF Final Energy:  -270.01744350769411
    Total Energy =                       -270.0174435076940540
  Basis Set: 6-31G*
  Basis Set:
  Charge       = 0
  Multiplicity = 1
  Basis Set: 6-31G*
  Basis Set:

    Orbital Energies (a.u.)
    -----------------------

    Doubly Occupied:

       1A    -20.562480     2A    -11.326600     3A    -11.236596
       4A    -11.235305     5A    -11.229534     6A    -11.218590
       7A     -1.402558     8A     -1.095592     9A     -1.018474
      10A     -0.906294    11A     -0.813222    12A     -0.793768
      13A     -0.674250    14A     -0.651722    15A     -0.624995
      16A     -0.603899    17A     -0.581221    18A     -0.553381
      19A     -0.531792    20A     -0.506601    21A     -0.485615
      22A     -0.481143    23A     -0.479247    24A     -0.408971

  @DF-RHF Final Energy:  -270.01744497071610

   => Energetics <=

    Nuclear Repulsion Energy =            228.7075533881912861
    One-Electron Energy =                -818.6062933870939560
    Two-Electron Energy =                 319.8812950281867415
    DFT Exchange-Correlation Energy =       0.0000000000000000
    Empirical Dispersion Energy =           0.0000000000000000
    PCM Polarization Energy =               0.0000000000000000
    EFP Energy =                            0.0000000000000000
    Total Energy =                       -270.0174449707159283
    Molecular point group: c1
  Basis Set: 6-31G*
  Basis Set:

  -Total Gradient:
     Atom            X                  Y                   Z
    ------   -----------------  -----------------  -----------------
       1        0.000005135501     0.000003843778     0.000006127465
       2       -0.000013287307    -0.000010697604     0.000000722026
       3       -0.003144374466     0.004550025166    -0.000968648815
       4        0.000007743612    -0.000005148045     0.000001910183
       5        0.002683993552    -0.003931847472     0.002798509752
       6        0.002196985262    -0.003138653588     0.000370972442
       7       -0.000011661599    -0.000009375000    -0.000004232712
       8        0.000013787893    -0.000005941598     0.000003625831
       9       -0.001728522558     0.002546185565    -0.002199620955
      10        0.000005980586     0.000007022305    -0.000003886319
      11       -0.000014253353    -0.000000654749    -0.000004071960
      12        0.000000270835    -0.000003142804     0.000001372757
      13        0.000004849351     0.000000110570    -0.000001180149
      14       -0.000002569567    -0.000000547692     0.000000489820
      15       -0.000006591969    -0.000002656459     0.000001254138
      16        0.000002514225     0.000001477625    -0.000003343505

  **** Optimization is complete! (in 7 steps) ****
    Final optimized geometry and variables:
    Molecular point group: c1

    Geometry (in Angstrom), charge = 0, multiplicity = 1:

    H            1.544967377527    -0.297083193871     1.733502204954
    C            1.821091962858    -0.045646648587     0.702131131500
    C            0.719506706872     0.574288069126    -0.122106563521
    O            2.920308104799    -0.264158455931     0.308073456710
    C           -0.538106298306    -0.314903259259    -0.162055389740
    H            1.122076533812     0.738789880924    -1.113868759076
    H            0.482645592386     1.538014455103     0.324976282685
    C           -1.832357593938     0.491124273204    -0.305350893107
    H           -0.461927371281    -0.993425467058    -1.006512519072
    H           -0.599136135460    -0.926778643276     0.735683908578
    C           -3.073028664208    -0.393359933767    -0.414816274693
    H           -1.761848496391     1.127796943165    -1.184411780801
    H           -1.935828231003     1.157791805147     0.547925274932
    H           -3.015841205565    -1.044036470124    -1.282580196948
    H           -3.973321389719     0.205291076164    -0.509209047125
    H           -3.184935316698    -1.022980906063     0.463365000751

  Mulliken Charges: (a.u.)
   Center  Symbol    Alpha    Beta     Spin     Total
       1     H     0.43243  0.43243  0.00000  0.13515
       2     C     2.83166  2.83166  0.00000  0.33667
       3     C     3.20843  3.20843  0.00000 -0.41686
       4     O     4.23699  4.23699  0.00000 -0.47399
       5     C     3.16476  3.16476  0.00000 -0.32952
       6     H     0.39775  0.39775  0.00000  0.20450
       7     H     0.40821  0.40821  0.00000  0.18359
       8     C     3.15328  3.15328  0.00000 -0.30656
       9     H     0.41094  0.41094  0.00000  0.17811
      10     H     0.41806  0.41806  0.00000  0.16389
      11     C     3.24086  3.24086  0.00000 -0.48171
      12     H     0.41886  0.41886  0.00000  0.16228
      13     H     0.42149  0.42149  0.00000  0.15702
      14     H     0.41942  0.41942  0.00000  0.16115
      15     H     0.41645  0.41645  0.00000  0.16710
      16     H     0.42041  0.42041  0.00000  0.15918

   Total alpha = 24.00000, Total beta = 24.00000, Total charge = -0.00000
