                              Psi4 1.0.54 Driver

  ==> Input File <==

--------------------------------------------------------------------------
set {
	reference rhf
	basis cc-pvtz
}

set_num_threads( 4 )
memory 2 gb

molecule MOL {
0 1

O	 -2.463178	 -1.321300	 0.797530
C	 -1.693776	 -1.554875	 -0.077052
C	 -0.881910	 -0.448129	 -0.720509
C	 -1.469459	 -2.961184	 -0.579790
C	 0.376695	 -0.140025	 0.100361
H	 -1.509136	 0.433015	 -0.768298
H	 -0.604040	 -0.724643	 -1.732039
C	 1.630207	 -0.772146	 -0.501001
H	 0.486632	 0.935267	 0.162725
H	 0.248225	 -0.501310	 1.117842
C	 2.907848	 -0.545876	 0.309149
H	 1.772784	 -0.391628	 -1.509394
H	 1.468529	 -1.842059	 -0.599744
C	 3.373802	 0.906639	 0.372125
H	 3.699140	 -1.146831	 -0.127906
H	 2.764321	 -0.923458	 1.318191
H	 3.519798	 1.311927	 -0.623875
H	 4.316899	 0.983758	 0.900700
H	 2.661122	 1.540651	 0.885346
H	 -1.843716	 -3.040888	 -1.595456
H	 -1.985771	 -3.668500	 0.050840
H	 -0.410671	 -3.192842	 -0.609666

	symmetry c1
}
set optking {
	frozen_dihedral = ("
		6 3 5 8
	")
}

ee,wfn = optimize('scf', return_wfn=True)
oeprop( wfn, 'DIPOLE', 'QUADRUPOLE', 'MULLIKEN_CHARGES')
f=open( 'psi4out.xyz', 'w' )
f.write( "22  " )
f.write( str(ee) + "\n" )
f.write( MOL.save_string_xyz() )
f.close()
--------------------------------------------------------------------------

    Molecular point group: c1
  Charge       = 0
  Multiplicity = 1
  Basis Set: CC-PVTZ
  Basis Set:
  @DF-RHF Final Energy:  -348.21779337941263
    Total Energy =                       -348.2177933794125693
    Molecular point group: c1
  Basis Set: CC-PVTZ
  Basis Set:
  Basis Set: CC-PVTZ
  Basis Set:
  @DF-RHF Final Energy:  -348.21832091484538
    Total Energy =                       -348.2183209148452647
  Basis Set: CC-PVTZ
  Basis Set:
  Basis Set: CC-PVTZ
  Basis Set:
  @DF-RHF Final Energy:  -348.21825367332110
    Total Energy =                       -348.2182536733207030
  Basis Set: CC-PVTZ
  Basis Set:
  Basis Set: CC-PVTZ
  Basis Set:
  @DF-RHF Final Energy:  -348.21839543870402
    Total Energy =                       -348.2183954387041354
  Basis Set: CC-PVTZ
  Basis Set:
  @DF-RHF Final Energy:  -348.21842142241388
    Total Energy =                       -348.2184214224141670
  @DF-RHF Final Energy:  -348.21845201873890
    Total Energy =                       -348.2184520187386170
  @DF-RHF Final Energy:  -348.21848619365005
    Total Energy =                       -348.2184861936498237
  @DF-RHF Final Energy:  -348.21838461424392
    Total Energy =                       -348.2183846142444281
  @DF-RHF Final Energy:  -348.21853599170350
    Total Energy =                       -348.2185359917033338
  @DF-RHF Final Energy:  -348.21866565991058
    Total Energy =                       -348.2186656599100161
  @DF-RHF Final Energy:  -348.21883752509143
    Total Energy =                       -348.2188375250913168
  @DF-RHF Final Energy:  -348.21759699563876
    Total Energy =                       -348.2175969956385870
  @DF-RHF Final Energy:  -348.21700002905760
    Total Energy =                       -348.2170000290575445
  @DF-RHF Final Energy:  -348.21737756963944
    Total Energy =                       -348.2173775696386997
  @DF-RHF Final Energy:  -348.22036654837012
    Total Energy =                       -348.2203665483700092
  @DF-RHF Final Energy:  -348.22099019642866
    Total Energy =                       -348.2209901964287155
  @DF-RHF Final Energy:  -348.22099734153022
    Total Energy =                       -348.2209973415295963
  @DF-RHF Final Energy:  -348.22131088244225
    Total Energy =                       -348.2213108824421965
  @DF-RHF Final Energy:  -348.22155305505942
    Total Energy =                       -348.2215530550589619
  @DF-RHF Final Energy:  -348.22177542770964
    Total Energy =                       -348.2217754277096446
  @DF-RHF Final Energy:  -348.22192016699995
    Total Energy =                       -348.2219201669998370
  @DF-RHF Final Energy:  -348.22228709239988
    Total Energy =                       -348.2222870923997107
  @DF-RHF Final Energy:  -348.22230413352651
    Total Energy =                       -348.2223041335265634
  @DF-RHF Final Energy:  -348.22232595507575
    Total Energy =                       -348.2223259550762577
  @DF-RHF Final Energy:  -348.22233192698639
    Total Energy =                       -348.2223319269862714
  @DF-RHF Final Energy:  -348.22233813566640
    Total Energy =                       -348.2223381356666323
  @DF-RHF Final Energy:  -348.22234509035127
    Total Energy =                       -348.2223450903514959
  @DF-RHF Final Energy:  -348.22235109522916
    Total Energy =                       -348.2223510952291576
  @DF-RHF Final Energy:  -348.22234673748301
    Total Energy =                       -348.2223467374831216
  Basis Set: CC-PVTZ
  Basis Set:
  @DF-RHF Final Energy:  -348.22235564272358
    Total Energy =                       -348.2223556427239828
  Basis Set: CC-PVTZ
  Basis Set:
  Basis Set: CC-PVTZ
  Basis Set:
  @DF-RHF Final Energy:  -348.22238253966646
    Total Energy =                       -348.2223825396665120
  Basis Set: CC-PVTZ
  Basis Set:
  Basis Set: CC-PVTZ
  Basis Set:
  @DF-RHF Final Energy:  -348.22238469880381
    Total Energy =                       -348.2223846988034666
  Basis Set: CC-PVTZ
  Basis Set:
  Charge       = 0
  Multiplicity = 1
  Basis Set: CC-PVTZ
  Basis Set:

    Orbital Energies (a.u.)
    -----------------------

    Doubly Occupied:

       1A    -20.539797     2A    -11.321820     3A    -11.230333
       4A    -11.227253     5A    -11.213942     6A    -11.211727
       7A    -11.211056     8A    -11.205285     9A     -1.400050
      10A     -1.089187    11A     -1.043026    12A     -1.001020
      13A     -0.934061    14A     -0.855606    15A     -0.781066
      16A     -0.731454    17A     -0.667609    18A     -0.636369
      19A     -0.629831    20A     -0.613121    21A     -0.602951
      22A     -0.575558    23A     -0.566452    24A     -0.548185
      25A     -0.521609    26A     -0.516491    27A     -0.496344
      28A     -0.492156    29A     -0.462416    30A     -0.459823
      31A     -0.448082    32A     -0.404271

  @DF-RHF Final Energy:  -348.22238519257627

   => Energetics <=

    Nuclear Repulsion Energy =            376.3568140688275321
    One-Electron Energy =               -1217.8824993863113377
    Two-Electron Energy =                 493.3033001249078211
    DFT Exchange-Correlation Energy =       0.0000000000000000
    Empirical Dispersion Energy =           0.0000000000000000
    PCM Polarization Energy =               0.0000000000000000
    EFP Energy =                            0.0000000000000000
    Total Energy =                       -348.2223851925759277
    Molecular point group: c1
  Basis Set: CC-PVTZ
  Basis Set:

  -Total Gradient:
     Atom            X                  Y                   Z
    ------   -----------------  -----------------  -----------------
       1       -0.000006359372    -0.000027471134     0.000007067146
       2        0.000064312088     0.000017549570     0.000225354477
       3       -0.001845043511     0.000112214637     0.002367589637
       4        0.000093150966    -0.000040987078     0.000055094789
       5        0.000164097188    -0.002030572187     0.002058070390
       6        0.001572130068     0.000466377101    -0.002697666387
       7       -0.000037566339    -0.000172366326     0.000086655232
       8        0.000148611992     0.001626180247    -0.001946866623
       9        0.000146376553     0.000051461765     0.000035737373
      10       -0.000161162468    -0.000020676543    -0.000021499037
      11        0.000016582025    -0.000012129988    -0.000053741198
      12        0.000035100226     0.000005246979    -0.000024113889
      13       -0.000014446663    -0.000014161070    -0.000001103645
      14       -0.000015627598    -0.000001258838     0.000011979938
      15       -0.000000494096    -0.000028876135     0.000003995838
      16       -0.000014262688     0.000020360529     0.000025072262
      17       -0.000000743154    -0.000005852554    -0.000009173799
      18        0.000003153591    -0.000003303982     0.000005388708
      19       -0.000025826439     0.000012306107    -0.000001100979
      20       -0.000161006425     0.000145248973    -0.000055163354
      21        0.000014030555    -0.000056639980     0.000106642835
      22        0.000024993497    -0.000042650096    -0.000178219719

  **** Optimization is complete! (in 33 steps) ****
    Final optimized geometry and variables:
    Molecular point group: c1

    Geometry (in Angstrom), charge = 0, multiplicity = 1:

    O           -1.307306609622    -1.423201131711     1.133397037379
    C           -1.699594076298    -1.102316359621     0.059622603825
    C           -1.055239784311     0.007689742995    -0.747953065386
    C           -2.880591172410    -1.792353965376    -0.584853874205
    C            0.063281907116     0.770649307414    -0.032526105786
    H           -1.835457232258     0.678467497569    -1.094500528340
    H           -0.677828940199    -0.457034406703    -1.656758615270
    C            1.456546651482     0.239703459115    -0.369631720390
    H            0.000343740873     1.815385176153    -0.313054945401
    H           -0.099180696602     0.718985022912     1.036026283117
    C            2.594808734008     0.899880221099     0.408816382043
    H            1.635554586620     0.358464536018    -1.436389739404
    H            1.478276002585    -0.827595471841    -0.170338219852
    C            2.801726447437     2.381649750225     0.103702325230
    H            3.514489629964     0.367217299714     0.187225139084
    H            2.419248100582     0.771166138853     1.473066384513
    H            2.967896354397     2.542174015662    -0.957032227470
    H            3.665931305439     2.765537403049     0.633593615134
    H            1.948384998199     2.980217706896     0.399200976337
    H           -3.702821330983    -1.091165149238    -0.683655731354
    H           -3.192193542902    -2.628400556000     0.022341014543
    H           -2.626656130835    -2.134113748237    -1.582017210680

  Mulliken Charges: (a.u.)
   Center  Symbol    Alpha    Beta     Spin     Total
       1     O     4.17251  4.17251  0.00000 -0.34502
       2     C     2.85884  2.85884  0.00000  0.28233
       3     C     3.12342  3.12342  0.00000 -0.24683
       4     C     3.15061  3.15061  0.00000 -0.30121
       5     C     3.09829  3.09829  0.00000 -0.19657
       6     H     0.43494  0.43494  0.00000  0.13011
       7     H     0.44402  0.44402  0.00000  0.11196
       8     C     3.09196  3.09196  0.00000 -0.18391
       9     H     0.44550  0.44550  0.00000  0.10900
      10     H     0.44135  0.44135  0.00000  0.11729
      11     C     3.09269  3.09269  0.00000 -0.18538
      12     H     0.45688  0.45688  0.00000  0.08624
      13     H     0.44520  0.44520  0.00000  0.10960
      14     C     3.15326  3.15326  0.00000 -0.30652
      15     H     0.44887  0.44887  0.00000  0.10225
      16     H     0.45056  0.45056  0.00000  0.09889
      17     H     0.45608  0.45608  0.00000  0.08784
      18     H     0.44604  0.44604  0.00000  0.10792
      19     H     0.45394  0.45394  0.00000  0.09211
      20     H     0.44934  0.44934  0.00000  0.10132
      21     H     0.43538  0.43538  0.00000  0.12923
      22     H     0.45032  0.45032  0.00000  0.09936

   Total alpha = 32.00000, Total beta = 32.00000, Total charge = -0.00000

*** Psi4 exiting successfully. Buy a developer a beer!
