                              Psi4 1.0.54 Driver

  ==> Input File <==

--------------------------------------------------------------------------
set {
	reference rhf
	basis cc-pvtz
}

set_num_threads( 4 )
memory 2 gb

molecule MOL {
0 1

H	 1.128311	 0.207724	 1.465118
C	 1.134565	 0.093781	 0.372499
C	 0.062554	 0.862911	 -0.350953
O	 1.948932	 -0.587720	 -0.146651
C	 0.060069	 2.351751	 0.009553
H	 -0.893836	 0.401693	 -0.140976
H	 0.262424	 0.752676	 -1.414425
C	 -0.343609	 2.625526	 1.455493
H	 -0.620946	 2.865015	 -0.659291
H	 1.044402	 2.770025	 -0.181712
H	 -1.340093	 2.249345	 1.658134
H	 -0.340204	 3.689133	 1.661333
H	 0.333260	 2.151592	 2.157825

	symmetry c1
}
set optking {
	frozen_dihedral = ("
		6 3 2 4
	")
}

ee,wfn = optimize('scf', return_wfn=True)
oeprop( wfn, 'DIPOLE', 'QUADRUPOLE', 'MULLIKEN_CHARGES')
f=open( 'psi4out.xyz', 'w' )
f.write( "13  " )
f.write( str(ee) + "\n" )
f.write( MOL.save_string_xyz() )
f.close()
--------------------------------------------------------------------------

    Molecular point group: c1
  Charge       = 0
  Multiplicity = 1
  Basis Set: CC-PVTZ
  Basis Set:
  @DF-RHF Final Energy:  -231.06814583329012
    Total Energy =                       -231.0681458332899751
    Molecular point group: c1
  Basis Set: CC-PVTZ
  Basis Set:
  Basis Set: CC-PVTZ
  Basis Set:
  @DF-RHF Final Energy:  -231.06834353853370
    Total Energy =                       -231.0683435385335258
  Basis Set: CC-PVTZ
  Basis Set:
  Basis Set: CC-PVTZ
  Basis Set:
  @DF-RHF Final Energy:  -231.06882253929660
    Total Energy =                       -231.0688225392965478
  Basis Set: CC-PVTZ
  Basis Set:
  Basis Set: CC-PVTZ
  Basis Set:
  @DF-RHF Final Energy:  -231.06892985982088
    Total Energy =                       -231.0689298598206847
  Basis Set: CC-PVTZ
  Basis Set:
  Basis Set: CC-PVTZ
  Basis Set:
  @DF-RHF Final Energy:  -231.06894070219644
    Total Energy =                       -231.0689407021963575
  Basis Set: CC-PVTZ
  Basis Set:
  Charge       = 0
  Multiplicity = 1
  Basis Set: CC-PVTZ
  Basis Set:

    Orbital Energies (a.u.)
    -----------------------

    Doubly Occupied:

       1A    -20.551717     2A    -11.320908     3A    -11.237402
       4A    -11.234651     5A    -11.223897     6A     -1.406306
       7A     -1.087150     8A     -0.975059     9A     -0.853861
      10A     -0.785738    11A     -0.678583    12A     -0.651360
      13A     -0.606434    14A     -0.600568    15A     -0.580405
      16A     -0.531533    17A     -0.507678    18A     -0.496278
      19A     -0.485625    20A     -0.411144

  @DF-RHF Final Energy:  -231.06894133103455

   => Energetics <=

    Nuclear Repulsion Energy =            172.5741994902646468
    One-Electron Energy =                -654.8336876431424116
    Two-Electron Energy =                 251.1905468218432986
    DFT Exchange-Correlation Energy =       0.0000000000000000
    Empirical Dispersion Energy =           0.0000000000000000
    PCM Polarization Energy =               0.0000000000000000
    EFP Energy =                            0.0000000000000000
    Total Energy =                       -231.0689413310344946
    Molecular point group: c1
  Basis Set: CC-PVTZ
  Basis Set:

  -Total Gradient:
     Atom            X                  Y                   Z
    ------   -----------------  -----------------  -----------------
       1        0.000025938601    -0.000011423357    -0.000007329078
       2        0.000325625048     0.000292384954    -0.000099800854
       3       -0.000088216805     0.000099065426     0.000221138438
       4       -0.000240344687    -0.000224446633     0.000067822743
       5        0.000002053930     0.000009434834     0.000025863743
       6        0.000019543092    -0.000187988062    -0.000265887886
       7       -0.000018334683    -0.000025618408     0.000017611328
       8        0.000007002520     0.000026540452     0.000032348874
       9       -0.000000068945     0.000000579457     0.000001826473
      10       -0.000008583270    -0.000003490054    -0.000024336101
      11        0.000000592786     0.000007651255    -0.000001609118
      12       -0.000004452947    -0.000001941573     0.000026017697
      13       -0.000020754637     0.000019251711     0.000006333740

  **** Optimization is complete! (in 6 steps) ****
    Final optimized geometry and variables:
    Molecular point group: c1

    Geometry (in Angstrom), charge = 0, multiplicity = 1:

    H            0.637288475702    -0.866218368641     1.192457715605
    C            0.586877037948    -0.987515477901     0.104780001689
    C           -0.491782362190    -0.210332525571    -0.601712353767
    O            1.351230802966    -1.707381533507    -0.440363734321
    C           -0.504040763795     1.286909093307    -0.265144042944
    H           -1.446013559760    -0.652804625465    -0.322394978834
    H           -0.357676373982    -0.364355791193    -1.663907535854
    C           -0.963582872301     1.621061711985     1.152435495484
    H           -1.164081409811     1.777627112202    -0.971071491916
    H            0.484251466534     1.701726589162    -0.438794059940
    H           -1.959255679725     1.233241371722     1.339533694772
    H           -0.994686841453     2.694057664410     1.298278186303
    H           -0.302372290434     1.211970771479     1.906851563294

  Mulliken Charges: (a.u.)
   Center  Symbol    Alpha    Beta     Spin     Total
       1     H     0.46331  0.46331  0.00000  0.07338
       2     C     2.90323  2.90323  0.00000  0.19354
       3     C     3.08826  3.08826  0.00000 -0.17652
       4     O     4.16540  4.16540  0.00000 -0.33079
       5     C     3.09938  3.09938  0.00000 -0.19877
       6     H     0.45071  0.45071  0.00000  0.09858
       7     H     0.43724  0.43724  0.00000  0.12552
       8     C     3.15018  3.15018  0.00000 -0.30036
       9     H     0.44428  0.44428  0.00000  0.11144
      10     H     0.44705  0.44705  0.00000  0.10589
      11     H     0.45319  0.45319  0.00000  0.09363
      12     H     0.44390  0.44390  0.00000  0.11220
      13     H     0.45387  0.45387  0.00000  0.09225

   Total alpha = 20.00000, Total beta = 20.00000, Total charge = -0.00000

*** Psi4 exiting successfully. Buy a developer a beer!
