  ==> Input File <==

--------------------------------------------------------------------------
set {
	reference rhf
	basis 6-31G*
}

set_num_threads( 4 )
memory 2 gb

molecule MOL {
0 1

H	 -2.153054	 -2.250733	 0.000000
O	 -2.462445	 -1.355403	 0.000000
C	 -1.434260	 -0.483044	 0.000000
C	 -0.160282	 -0.998433	 0.214627
C	 -1.606806	 0.873172	 -0.202032
H	 -0.050522	 -2.055314	 0.369249
C	 0.931284	 -0.154718	 0.225708
H	 -2.586306	 1.284548	 -0.369080
C	 -0.495009	 1.711703	 -0.187945
H	 1.912113	 -0.560710	 0.392185
C	 0.777868	 1.209965	 0.024721
C	 -0.683838	 3.129388	 -0.400099
H	 1.624995	 1.868669	 0.032793
N	 -0.829665	 4.243805	 -0.566572

	symmetry c1
}
set optking {
	frozen_dihedral = ("
		14 12 9 5
	")
}

ee = optimize('scf')
oeprop('DIPOLE', 'QUADRUPOLE', 'MULLIKEN_CHARGES')
f=open( 'psi4out.xyz', 'w' )
f.write( "14  " )
f.write( str(ee) + "\n" )
f.write( MOL.save_string_xyz() )
f.close()
--------------------------------------------------------------------------

    Molecular point group: c1
  Charge       = 0
  Multiplicity = 1
  Basis Set: 6-31G*
  Basis Set:
  @DF-RHF Final Energy:  -397.28898701548093
    Total Energy =                       -397.2889870154810978
    Molecular point group: c1
  Basis Set: 6-31G*
  Basis Set:
  Basis Set: 6-31G*
  Basis Set:
  @DF-RHF Final Energy:  -397.08264158520666
    Total Energy =                       -397.0826415852069431
  Basis Set: 6-31G*
  Basis Set:
  Basis Set: 6-31G*
  Basis Set:
  @DF-RHF Final Energy:  -397.19927975348998
    Total Energy =                       -397.1992797534897477
  Basis Set: 6-31G*
  Basis Set:
  Basis Set: 6-31G*
  Basis Set:
  @DF-RHF Final Energy:  -396.96276761361321
    Total Energy =                       -396.9627676136133232
  Basis Set: 6-31G*
  Basis Set:
  @DF-RHF Final Energy:  -397.25403080005293
    Total Energy =                       -397.2540308000528739
  @DF-RHF Final Energy:  -397.29023066416261
    Total Energy =                       -397.2902306641624364
  @DF-RHF Final Energy:  -397.29073103844974
    Total Energy =                       -397.2907310384501898
  @DF-RHF Final Energy:  -397.29114436013288
    Total Energy =                       -397.2911443601328756
  @DF-RHF Final Energy:  -397.29155125271876
    Total Energy =                       -397.2915512527187047
  @DF-RHF Final Energy:  -397.29150015492576
    Total Energy =                       -397.2915001549259841
  @DF-RHF Final Energy:  -397.29155790999420
    Total Energy =                       -397.2915579099944807
  @DF-RHF Final Energy:  -397.29158637665847
    Total Energy =                       -397.2915863766581879
  @DF-RHF Final Energy:  -397.29143764442307
    Total Energy =                       -397.2914376444228992
  @DF-RHF Final Energy:  -397.29152558505342
    Total Energy =                       -397.2915255850533640
  @DF-RHF Final Energy:  -397.29161602223269
    Total Energy =                       -397.2916160222324606
  @DF-RHF Final Energy:  -397.17645047532602
    Total Energy =                       -397.1764504753255096
  @DF-RHF Final Energy:  -397.21893807213689
    Total Energy =                       -397.2189380721367797
  @DF-RHF Final Energy:  -397.27808885897616
    Total Energy =                       -397.2780888589763890
  @DF-RHF Final Energy:  -397.28089727267752
    Total Energy =                       -397.2808972726777483
  @DF-RHF Final Energy:  -397.29092720310342
    Total Energy =                       -397.2909272031040473
  @DF-RHF Final Energy:  -397.29160517251302
    Total Energy =                       -397.2916051725133002
  @DF-RHF Final Energy:  -397.29161567888627
    Total Energy =                       -397.2916156788861599
  @DF-RHF Final Energy:  -397.29105661674743
    Total Energy =                       -397.2910566167475963
  @DF-RHF Final Energy:  -397.29138944934670
    Total Energy =                       -397.2913894493465250
  @DF-RHF Final Energy:  -397.29158308954311
    Total Energy =                       -397.2915830895432237
  @DF-RHF Final Energy:  -397.29106537015463
    Total Energy =                       -397.2910653701546835
  @DF-RHF Final Energy:  -397.29157045107257
    Total Energy =                       -397.2915704510726300
  @DF-RHF Final Energy:  -397.29154257020866
    Total Energy =                       -397.2915425702086623
  @DF-RHF Final Energy:  -397.29154839375707
    Total Energy =                       -397.2915483937568979
  @DF-RHF Final Energy:  -397.29158261721108
    Total Energy =                       -397.2915826172115885
  @DF-RHF Final Energy:  -397.29160845407284
    Total Energy =                       -397.2916084540726160
  @DF-RHF Final Energy:  -397.29158513291065
    Total Energy =                       -397.2915851329106545
  @DF-RHF Final Energy:  -397.29159467294858
    Total Energy =                       -397.2915946729488041
  @DF-RHF Final Energy:  -397.29159911561339
    Total Energy =                       -397.2915991156139626
  @DF-RHF Final Energy:  -397.29160317853979
    Total Energy =                       -397.2916031785399582
  @DF-RHF Final Energy:  -397.29153869698490
    Total Energy =                       -397.2915386969843894
  Basis Set: 6-31G*
  Basis Set:
  @DF-RHF Final Energy:  -397.29147861174749
    Total Energy =                       -397.2914786117479480
  Basis Set: 6-31G*
  Basis Set:
  Basis Set: 6-31G*
  Basis Set:
  @DF-RHF Final Energy:  -397.29160980003866
    Total Energy =                       -397.2916098000389411
  Basis Set: 6-31G*
  Basis Set:
  Basis Set: 6-31G*
  Basis Set:
  @DF-RHF Final Energy:  -397.29156986520195
    Total Energy =                       -397.2915698652024048
  Basis Set: 6-31G*
  Basis Set:
  Charge       = 0
  Multiplicity = 1
  Basis Set: 6-31G*
  Basis Set:

    Orbital Energies (a.u.)
    -----------------------

    Doubly Occupied:

       1A    -20.612968     2A    -15.573567     3A    -11.326350
       4A    -11.293349     5A    -11.274647     6A    -11.264422
       7A    -11.259332     8A    -11.258851     9A    -11.258112
      10A     -1.434111    11A     -1.231429    12A     -1.182071
      13A     -1.062872    14A     -1.039977    15A     -0.899433
      16A     -0.857866    17A     -0.794760    18A     -0.714508
      19A     -0.692708    20A     -0.670756    21A     -0.628315
      22A     -0.613943    23A     -0.595411    24A     -0.564270
      25A     -0.547106    26A     -0.537194    27A     -0.525895
      28A     -0.473219    29A     -0.471002    30A     -0.362517
      31A     -0.336956

  @DF-RHF Final Energy:  -397.29160850667722

   => Energetics <=

    Nuclear Repulsion Energy =            379.4546209225241000
    One-Electron Energy =               -1290.7766205623074711
    Two-Electron Energy =                 514.0303911331063773
    DFT Exchange-Correlation Energy =       0.0000000000000000
    Empirical Dispersion Energy =           0.0000000000000000
    PCM Polarization Energy =               0.0000000000000000
    EFP Energy =                            0.0000000000000000
    Total Energy =                       -397.2916085066769938
    Molecular point group: c1
  Basis Set: 6-31G*
  Basis Set:

  -Total Gradient:
     Atom            X                  Y                   Z
    ------   -----------------  -----------------  -----------------
       1       -0.000930699881     0.002306948738    -0.000413637253
       2        0.001029076466    -0.002859370008     0.000438247568
       3        0.000561092012    -0.000112201911     0.000121924161
       4       -0.000800522969    -0.000032586371    -0.000136349154
       5        0.000240439926     0.000619172729     0.000046756925
       6       -0.000133882385     0.000070991506    -0.000063009219
       7       -0.000209006419     0.000100944144     0.000207023811
       8        0.000113928815    -0.000114192241     0.000075256969
       9        0.001289762782     0.000648119292     0.000108182590
      10       -0.000173847652     0.000047799076    -0.000056587744
      11       -0.000336564163    -0.000000146183    -0.000260875615
      12       -0.000417053263    -0.000606946848    -0.000327672408
      13       -0.000208024926     0.000107167652     0.000029257217
      14       -0.000024698341    -0.000175699571     0.000231482152

    Molecular point group: c1

    Geometry (in Angstrom), charge = 0, multiplicity = 1:

    H           -1.572398909353    -3.036738796920     0.192827429894
    O           -1.797374735897    -2.128111701361     0.047276213492
    C           -0.701589538848    -1.343282822559     0.084115625534
    C            0.571570449323    -1.842294900638     0.308737459467
    C           -0.889301462909     0.016631131483    -0.113810285157
    H            0.715856864163    -2.898079169093     0.463200442737
    C            1.658780555392    -0.982653832535     0.334193702679
    H           -1.878865729690     0.394094207961    -0.285625061053
    C            0.207617613694     0.862290871186    -0.085427386309
    H            2.641631898301    -1.380417878354     0.508636484855
    C            1.491306345064     0.373909288891     0.137179099782
    C            0.011892164792     2.281279665471    -0.286896917302
    H            2.329202908520     1.044114614991     0.154680514327
    N           -0.121928756333     3.397213146103    -0.452406613143

  Mulliken Charges: (a.u.)
   Center  Symbol    Alpha    Beta     Spin     Total
       1     H     0.26884  0.26884  0.00000  0.46232
       2     O     4.37540  4.37540  0.00000 -0.75079
       3     C     2.79272  2.79272  0.00000  0.41455
       4     C     3.13489  3.13489  0.00000 -0.26979
       5     C     3.11253  3.11253  0.00000 -0.22507
       6     H     0.39594  0.39594  0.00000  0.20813
       7     C     3.09462  3.09462  0.00000 -0.18924
       8     H     0.37326  0.37326  0.00000  0.25348
       9     C     2.99205  2.99205  0.00000  0.01590
      10     H     0.38904  0.38904  0.00000  0.22192
      11     C     3.09903  3.09903  0.00000 -0.19807
      12     C     2.86536  2.86536  0.00000  0.26929
      13     H     0.38152  0.38152  0.00000  0.23696
      14     N     3.72480  3.72480  0.00000 -0.44960

   Total alpha = 31.00000, Total beta = 31.00000, Total charge = -0.00000
