  ==> Input File <==

--------------------------------------------------------------------------
set {
	reference rhf
	basis 6-31G*
}

set_num_threads( 4 )
memory 2 gb

molecule MOL {
0 1

H	 -0.201265	 2.320272	 -0.882557
C	 0.353119	 2.051701	 0.024818
C	 0.692068	 0.589600	 0.160137
O	 0.643740	 2.889025	 0.816372
C	 -0.558097	 -0.297372	 0.091132
H	 1.225310	 0.449316	 1.093119
H	 1.365291	 0.327994	 -0.655439
C	 -1.850991	 0.512573	 -0.019058
H	 -0.476753	 -0.965681	 -0.762987
H	 -0.604799	 -0.930658	 0.975228
C	 -3.096943	 -0.368295	 -0.099594
H	 -1.800724	 1.150330	 -0.898172
H	 -1.931651	 1.177355	 0.838044
H	 -3.060452	 -1.020287	 -0.967456
H	 -3.996858	 0.233488	 -0.175704
H	 -3.191959	 -0.995686	 0.782074

	symmetry c1
}
set optking {
	frozen_dihedral = ("
		6 3 5 9
	")
}

ee = optimize('scf')
oeprop('DIPOLE', 'QUADRUPOLE', 'MULLIKEN_CHARGES')
f=open( 'psi4out.xyz', 'w' )
f.write( "16  " )
f.write( str(ee) + "\n" )
f.write( MOL.save_string_xyz() )
f.close()
--------------------------------------------------------------------------

    Molecular point group: c1
  Charge       = 0
  Multiplicity = 1
  Basis Set: 6-31G*
  Basis Set:
  @DF-RHF Final Energy:  -270.00718448489744
    Total Energy =                       -270.0071844848972660
    Molecular point group: c1
  Basis Set: 6-31G*
  Basis Set:
  Basis Set: 6-31G*
  Basis Set:
  @DF-RHF Final Energy:  -270.01086166444281
    Total Energy =                       -270.0108616644429276
  Basis Set: 6-31G*
  Basis Set:
  Basis Set: 6-31G*
  Basis Set:
  @DF-RHF Final Energy:  -270.00930400759671
    Total Energy =                       -270.0093040075967110
  Basis Set: 6-31G*
  Basis Set:
  Basis Set: 6-31G*
  Basis Set:
  @DF-RHF Final Energy:  -270.01125446976789
    Total Energy =                       -270.0112544697679482
  Basis Set: 6-31G*
  Basis Set:
  Basis Set: 6-31G*
  Basis Set:
  @DF-RHF Final Energy:  -270.01128785223489
    Total Energy =                       -270.0112878522350002
  Basis Set: 6-31G*
  Basis Set:
  Basis Set: 6-31G*
  Basis Set:
  @DF-RHF Final Energy:  -270.01134907156944
    Total Energy =                       -270.0113490715692706
  Basis Set: 6-31G*
  Basis Set:
  Basis Set: 6-31G*
  Basis Set:
  @DF-RHF Final Energy:  -270.01135440734419
    Total Energy =                       -270.0113544073443563
  Basis Set: 6-31G*
  Basis Set:
  Charge       = 0
  Multiplicity = 1
  Basis Set: 6-31G*
  Basis Set:

    Orbital Energies (a.u.)
    -----------------------

    Doubly Occupied:

       1A    -20.561340     2A    -11.325955     3A    -11.236153
       4A    -11.234757     5A    -11.229586     6A    -11.218481
       7A     -1.401269     8A     -1.091973     9A     -1.015374
      10A     -0.905844    11A     -0.833034    12A     -0.773620
      13A     -0.674498    14A     -0.644288    15A     -0.626063
      16A     -0.602959    17A     -0.582358    18A     -0.561091
      19A     -0.520971    20A     -0.511386    21A     -0.493796
      22A     -0.474950    23A     -0.468392    24A     -0.408373

  @DF-RHF Final Energy:  -270.01135461580452

   => Energetics <=

    Nuclear Repulsion Energy =            233.8090448775811581
    One-Electron Energy =                -828.8477769135447488
    Two-Electron Energy =                 325.0273774201590413
    DFT Exchange-Correlation Energy =       0.0000000000000000
    Empirical Dispersion Energy =           0.0000000000000000
    PCM Polarization Energy =               0.0000000000000000
    EFP Energy =                            0.0000000000000000
    Total Energy =                       -270.0113546158045210
    Molecular point group: c1
  Basis Set: 6-31G*
  Basis Set:

  -Total Gradient:
     Atom            X                  Y                   Z
    ------   -----------------  -----------------  -----------------
       1        0.000008378290     0.000002273261    -0.000006905172
       2       -0.000002239819     0.000010738720     0.000023940921
       3       -0.000885858414     0.001235019911     0.001036332340
       4       -0.000031567440    -0.000021572652    -0.000014206639
       5       -0.000623567154     0.001087630641    -0.001302895467
       6        0.000868214981    -0.001191497915    -0.000666106497
       7       -0.000012991510    -0.000007990484     0.000002123626
       8        0.000018542616     0.000014299657     0.000008474573
       9        0.000654111842    -0.001120428778     0.000927283641
      10       -0.000001003982     0.000001279475    -0.000004088922
      11        0.000003819180    -0.000005197801    -0.000004649130
      12       -0.000007049188     0.000004088858    -0.000003157249
      13        0.000015899411    -0.000006825235    -0.000002174892
      14        0.000002680421    -0.000003008887     0.000006403854
      15        0.000000782584     0.000000884810    -0.000004946324
      16       -0.000008151821     0.000000306416     0.000004571337

  **** Optimization is complete! (in 8 steps) ****
    Final optimized geometry and variables:
    Molecular point group: c1

    Geometry (in Angstrom), charge = 0, multiplicity = 1:

    H            0.765279222239     1.538166208235    -1.116782255342
    C            1.126407373235     1.191371234569    -0.143286521059
    C            1.329980814973    -0.297547794383    -0.008731365053
    O            1.353292314405     1.976901029746     0.719699224469
    C            0.042253913398    -1.162604733851    -0.139369024326
    H            1.816997225318    -0.473624372255     0.941860036666
    H            2.035812857691    -0.585338935676    -0.785011369971
    C           -1.285017948268    -0.399811423069    -0.227666068417
    H            0.133215718865    -1.819447520895    -0.998751822171
    H           -0.003214526387    -1.818561256893     0.724173097355
    C           -2.486932925363    -1.343349115784    -0.233888805497
    H           -1.310506385285     0.208862827657    -1.127888855471
    H           -1.370093510852     0.285994051977     0.611667385935
    H           -2.443867954267    -2.028167871838    -1.076004733087
    H           -3.417325923075    -0.789425663150    -0.304775921530
    H           -2.522958403954    -1.937464689622     0.674514307525

  Mulliken Charges: (a.u.)
   Center  Symbol    Alpha    Beta     Spin     Total
       1     H     0.43012  0.43012  0.00000  0.13976
       2     C     2.83441  2.83441  0.00000  0.33117
       3     C     3.21219  3.21219  0.00000 -0.42437
       4     O     4.23715  4.23715  0.00000 -0.47430
       5     C     3.15817  3.15817  0.00000 -0.31635
       6     H     0.39751  0.39751  0.00000  0.20497
       7     H     0.40915  0.40915  0.00000  0.18170
       8     C     3.16541  3.16541  0.00000 -0.33081
       9     H     0.41581  0.41581  0.00000  0.16838
      10     H     0.41194  0.41194  0.00000  0.17612
      11     C     3.23976  3.23976  0.00000 -0.47953
      12     H     0.42084  0.42084  0.00000  0.15832
      13     H     0.41246  0.41246  0.00000  0.17507
      14     H     0.42049  0.42049  0.00000  0.15902
      15     H     0.41553  0.41553  0.00000  0.16894
      16     H     0.41904  0.41904  0.00000  0.16191

   Total alpha = 24.00000, Total beta = 24.00000, Total charge = -0.00000
