  ==> Input File <==

--------------------------------------------------------------------------
set {
	reference rhf
	basis 6-31G*
}

set_num_threads( 1 )
memory 2 gb

molecule MOL {
0 1

H	 2.591676	 2.013956	 0.335017
O	 3.341076	 1.666752	 -0.126416
C	 3.569581	 0.339145	 0.272707
C	 2.539767	 -0.640285	 -0.279495
H	 4.553106	 0.084646	 -0.100901
H	 3.608576	 0.269204	 1.359154
C	 1.115811	 -0.397273	 0.226630
H	 2.556196	 -0.582511	 -1.364741
H	 2.852081	 -1.648031	 -0.010655
C	 0.958836	 -0.701192	 1.719216
H	 0.424511	 -1.011700	 -0.343413
H	 0.838247	 0.640682	 0.042382
C	 -0.427486	 -0.393135	 2.296756
H	 1.199007	 -1.747595	 1.898673
H	 1.697472	 -0.122413	 2.269791
C	 -1.559558	 -1.272952	 1.759344
H	 -0.381043	 -0.509803	 3.377519
H	 -0.667462	 0.653632	 2.116406
C	 -2.901896	 -0.999639	 2.441155
H	 -1.295408	 -2.320724	 1.895397
H	 -1.673109	 -1.123974	 0.688263
C	 -4.035012	 -1.872059	 1.902087
H	 -2.800969	 -1.161013	 3.512258
H	 -3.162791	 0.049075	 2.314592
H	 -3.818702	 -2.927238	 2.043611
H	 -4.972020	 -1.656299	 2.406171
H	 -4.186033	 -1.706571	 0.838992

	symmetry c1
}
set optking {
	frozen_dihedral = ("
		14 10 7 4,
		14 10 13 16,
		8 4 3 2,
		10 13 16 20,
		20 16 19 22,
		4 3 2 1
	")
}

ee = energy('scf')
oeprop('DIPOLE', 'QUADRUPOLE', 'MULLIKEN_CHARGES')
f=open( 'psi4out.xyz', 'w' )
f.write( "27  " )
f.write( str(ee) + "\n" )
f.write( MOL.save_string_xyz() )
f.close()
--------------------------------------------------------------------------

    Molecular point group: c1

    Geometry (in Angstrom), charge = 0, multiplicity = 1:

       Center              X                  Y                   Z               Mass
    ------------   -----------------  -----------------  -----------------  -----------------
           H          2.269678090310     2.455771619552    -0.783041957794     1.007825032070
           O          3.019078090310     2.108567619552    -1.244474957794    15.994914619560
           C          3.247583090310     0.780960619552    -0.845351957794    12.000000000000
           C          2.217769090310    -0.198469380448    -1.397553957794    12.000000000000
           H          4.231108090310     0.526461619552    -1.218959957794     1.007825032070
           H          3.286578090310     0.711019619552     0.241095042206     1.007825032070
           C          0.793813090310     0.044542619552    -0.891428957794    12.000000000000
           H          2.234198090310    -0.140695380448    -2.482799957794     1.007825032070
           H          2.530083090310    -1.206215380448    -1.128713957794     1.007825032070
           C          0.636838090310    -0.259376380448     0.601157042206    12.000000000000
           H          0.102513090310    -0.569884380448    -1.461471957794     1.007825032070
           H          0.516249090310     1.082497619552    -1.075676957794     1.007825032070
           C         -0.749483909690     0.048680619552     1.178697042206    12.000000000000
           H          0.877009090310    -1.305779380448     0.780614042206     1.007825032070
           H          1.375474090310     0.319402619552     1.151732042206     1.007825032070
           C         -1.881555909690    -0.831136380448     0.641285042206    12.000000000000
           H         -0.703040909690    -0.067987380448     2.259460042206     1.007825032070
           H         -0.989459909690     1.095447619552     0.998347042206     1.007825032070
           C         -3.223893909690    -0.557823380448     1.323096042206    12.000000000000
           H         -1.617405909690    -1.878908380448     0.777338042206     1.007825032070
           H         -1.995106909690    -0.682158380448    -0.429795957794     1.007825032070
           C         -4.357009909690    -1.430243380448     0.784028042206    12.000000000000
           H         -3.122966909690    -0.719197380448     2.394199042206     1.007825032070
           H         -3.484788909690     0.490890619552     1.196533042206     1.007825032070
           H         -4.140699909690    -2.485422380448     0.925552042206     1.007825032070
           H         -5.294017909690    -1.214483380448     1.288112042206     1.007825032070
           H         -4.508030909690    -1.264755380448    -0.279066957794     1.007825032070

  Charge       = 0
  Multiplicity = 1
  Basis Set: 6-31G*
  Basis Set:

    Orbital Energies (a.u.)
    -----------------------

    Doubly Occupied:

       1A    -20.552407     2A    -11.266216     3A    -11.219766
       4A    -11.218950     5A    -11.217734     6A    -11.216893
       7A    -11.215319     8A    -11.215183     9A    -11.209959
      10A     -1.359174    11A     -1.097212    12A     -1.062692
      13A     -1.011026    14A     -0.946977    15A     -0.892858
      16A     -0.826728    17A     -0.798874    18A     -0.773854
      19A     -0.696744    20A     -0.647850    21A     -0.644474
      22A     -0.609414    23A     -0.603820    24A     -0.586698
      25A     -0.573054    26A     -0.564222    27A     -0.543472
      28A     -0.526576    29A     -0.509634    30A     -0.496606
      31A     -0.489094    32A     -0.472775    33A     -0.468596
      34A     -0.461816    35A     -0.450761    36A     -0.441243
      37A     -0.423268

  @DF-RHF Final Energy:  -388.27927144884598

   => Energetics <=

    Nuclear Repulsion Energy =            463.5389575065690906
    One-Electron Energy =               -1445.0125603059600508
    Two-Electron Energy =                 593.1943313505453261
    DFT Exchange-Correlation Energy =       0.0000000000000000
    Empirical Dispersion Energy =           0.0000000000000000
    PCM Polarization Energy =               0.0000000000000000
    EFP Energy =                            0.0000000000000000
    Total Energy =                       -388.2792714488456340

  Mulliken Charges: (a.u.)
   Center  Symbol    Alpha    Beta     Spin     Total
       1     H     0.28008  0.28008  0.00000  0.43983
       2     O     4.37085  4.37085  0.00000 -0.74170
       3     C     3.00015  3.00015  0.00000 -0.00030
       4     C     3.16299  3.16299  0.00000 -0.32598
       5     H     0.41386  0.41386  0.00000  0.17228
       6     H     0.42952  0.42952  0.00000  0.14096
       7     C     3.16417  3.16417  0.00000 -0.32835
       8     H     0.41286  0.41286  0.00000  0.17428
       9     H     0.42417  0.42417  0.00000  0.15165
      10     C     3.15737  3.15737  0.00000 -0.31474
      11     H     0.41435  0.41435  0.00000  0.17129
      12     H     0.42802  0.42802  0.00000  0.14396
      13     C     3.15171  3.15171  0.00000 -0.30342
      14     H     0.42197  0.42197  0.00000  0.15607
      15     H     0.42323  0.42323  0.00000  0.15354
      16     C     3.15299  3.15299  0.00000 -0.30598
      17     H     0.42124  0.42124  0.00000  0.15752
      18     H     0.42542  0.42542  0.00000  0.14915
      19     C     3.15127  3.15127  0.00000 -0.30254
      20     H     0.42419  0.42419  0.00000  0.15162
      21     H     0.42177  0.42177  0.00000  0.15646
      22     C     3.23928  3.23928  0.00000 -0.47857
      23     H     0.42300  0.42300  0.00000  0.15400
      24     H     0.42301  0.42301  0.00000  0.15398
      25     H     0.42172  0.42172  0.00000  0.15656
      26     H     0.41908  0.41908  0.00000  0.16184
      27     H     0.42171  0.42171  0.00000  0.15657

   Total alpha = 37.00000, Total beta = 37.00000, Total charge = -0.00000
