                              Psi4 1.0.54 Driver

  ==> Input File <==

--------------------------------------------------------------------------
set {
	reference rhf
	basis cc-pvtz
}

set_num_threads( 4 )
memory 2 gb

molecule MOL {
0 1

O	 -0.694481	 1.313155	 -0.204815
C	 -0.862519	 0.151932	 -0.046791
C	 -2.171428	 -0.477048	 0.339095
O	 0.085519	 -0.757083	 -0.192238
H	 -2.467997	 -1.191667	 -0.417688
H	 -2.923379	 0.287970	 0.444097
H	 -2.053854	 -1.015120	 1.270901
C	 0.276399	 -1.348525	 -1.472176
C	 1.177592	 -0.505175	 -2.349963
H	 -0.683924	 -1.505493	 -1.937961
H	 0.728148	 -2.307237	 -1.265910
H	 1.353491	 -1.018113	 -3.288795
H	 0.721822	 0.451437	 -2.565718
H	 2.133724	 -0.338712	 -1.868614

	symmetry c1
}
set optking {
	frozen_dihedral = ("
		8 4 2 1
	")
}

ee,wfn = optimize('scf', return_wfn=True)
oeprop( wfn, 'DIPOLE', 'QUADRUPOLE', 'MULLIKEN_CHARGES')
f=open( 'psi4out.xyz', 'w' )
f.write( "14  " )
f.write( str(ee) + "\n" )
f.write( MOL.save_string_xyz() )
f.close()
--------------------------------------------------------------------------

    Molecular point group: c1
  Charge       = 0
  Multiplicity = 1
  Basis Set: CC-PVTZ
  Basis Set:
  @DF-RHF Final Energy:  -305.97024567414911
    Total Energy =                       -305.9702456741492824
    Molecular point group: c1
  Basis Set: CC-PVTZ
  Basis Set:
  Basis Set: CC-PVTZ
  Basis Set:
  @DF-RHF Final Energy:  -305.93507486347642
    Total Energy =                       -305.9350748634761885
  Basis Set: CC-PVTZ
  Basis Set:
  Basis Set: CC-PVTZ
  Basis Set:
  @DF-RHF Final Energy:  -305.93905319005398
    Total Energy =                       -305.9390531900538690
  Basis Set: CC-PVTZ
  Basis Set:
  Basis Set: CC-PVTZ
  Basis Set:
  @DF-RHF Final Energy:  -305.95609657680939
    Total Energy =                       -305.9560965768093865
  Basis Set: CC-PVTZ
  Basis Set:
  @DF-RHF Final Energy:  -305.95943369430313
    Total Energy =                       -305.9594336943030726
  @DF-RHF Final Energy:  -305.96628675456765
    Total Energy =                       -305.9662867545674771
  @DF-RHF Final Energy:  -305.96194283695837
    Total Energy =                       -305.9619428369583147
  @DF-RHF Final Energy:  -305.97147949811978
    Total Energy =                       -305.9714794981199475
  @DF-RHF Final Energy:  -305.97149641598020
    Total Energy =                       -305.9714964159801980
  @DF-RHF Final Energy:  -305.97172727542699
    Total Energy =                       -305.9717272754270425
  Basis Set: CC-PVTZ
  Basis Set:
  @DF-RHF Final Energy:  -305.97174876006318
    Total Energy =                       -305.9717487600629511
  Basis Set: CC-PVTZ
  Basis Set:
  Basis Set: CC-PVTZ
  Basis Set:
  @DF-RHF Final Energy:  -305.97175755127313
    Total Energy =                       -305.9717575512730718
  Basis Set: CC-PVTZ
  Basis Set:
  Basis Set: CC-PVTZ
  Basis Set:
  @DF-RHF Final Energy:  -305.97175864812982
    Total Energy =                       -305.9717586481299350
  Basis Set: CC-PVTZ
  Basis Set:
  Charge       = 0
  Multiplicity = 1
  Basis Set: CC-PVTZ
  Basis Set:

    Orbital Energies (a.u.)
    -----------------------

    Doubly Occupied:

       1A    -20.575581     2A    -20.545409     3A    -11.370797
       4A    -11.294685     5A    -11.236115     6A    -11.216903
       7A     -1.460761     8A     -1.369468     9A     -1.047298
      10A     -1.007277    11A     -0.883330    12A     -0.770673
      13A     -0.694562    14A     -0.683482    15A     -0.669939
      16A     -0.606276    17A     -0.593981    18A     -0.583152
      19A     -0.555348    20A     -0.541618    21A     -0.517007
      22A     -0.488672    23A     -0.454832    24A     -0.440003

  @DF-RHF Final Energy:  -305.97175881516046

   => Energetics <=

    Nuclear Repulsion Energy =            248.1685382093816088
    One-Electron Energy =                -909.0662525155637468
    Two-Electron Energy =                 354.9259554910217958
    DFT Exchange-Correlation Energy =       0.0000000000000000
    Empirical Dispersion Energy =           0.0000000000000000
    PCM Polarization Energy =               0.0000000000000000
    EFP Energy =                            0.0000000000000000
    Total Energy =                       -305.9717588151603422
    Molecular point group: c1
  Basis Set: CC-PVTZ
  Basis Set:

  -Total Gradient:
     Atom            X                  Y                   Z
    ------   -----------------  -----------------  -----------------
       1       -0.000359836616     0.001660396618     0.001408833207
       2        0.000302529243    -0.003024613861    -0.001441256789
       3       -0.000002700554     0.000029245962     0.000020322637
       4        0.000469072209     0.002487915022    -0.001219548180
       5        0.000003231424     0.000000477532    -0.000012076953
       6        0.000006354837    -0.000003809582    -0.000001902547
       7        0.000004801290    -0.000009125601    -0.000014796566
       8       -0.000394488048    -0.001163424026     0.001264262990
       9       -0.000017831623     0.000007544725    -0.000006167354
      10       -0.000007105379     0.000018582872     0.000002319282
      11       -0.000006011807     0.000000837225    -0.000002222040
      12       -0.000002811873    -0.000002333070     0.000005653639
      13        0.000011064688     0.000002932222    -0.000002197821
      14       -0.000006267793    -0.000004626034    -0.000001223509

  **** Optimization is complete! (in 14 steps) ****
    Final optimized geometry and variables:
    Molecular point group: c1

    Geometry (in Angstrom), charge = 0, multiplicity = 1:

    O           -1.169538208146     0.969065705569    -0.661905144398
    C           -0.812528392656     0.295991924002     0.234590061306
    C           -1.733646695059    -0.514862269907     1.103187947707
    O            0.475715533562     0.248555834196     0.627229085696
    H           -1.402192057855    -1.545022309580     1.144643615795
    H           -2.742633683588    -0.463898684479     0.727058845548
    H           -1.692287855960    -0.121951473144     2.111672394388
    C            1.319246002222    -0.723729741227     0.026164495164
    C            1.887332333095    -0.252394591522    -1.297023727069
    H            0.774285367333    -1.654368884442    -0.097629998107
    H            2.107908952473    -0.898317264811     0.742419743616
    H            2.556317707044    -1.007981829222    -1.694918318361
    H            1.102820498905    -0.070126300386    -2.018631341301
    H            2.443942080653     0.665726220485    -1.161071140929

  Mulliken Charges: (a.u.)
   Center  Symbol    Alpha    Beta     Spin     Total
       1     O     4.17204  4.17204  0.00000 -0.34408
       2     C     2.80392  2.80392  0.00000  0.39215
       3     C     3.13927  3.13927  0.00000 -0.27854
       4     O     4.17465  4.17465  0.00000 -0.34930
       5     H     0.45105  0.45105  0.00000  0.09789
       6     H     0.43738  0.43738  0.00000  0.12523
       7     H     0.44318  0.44318  0.00000  0.11365
       8     C     2.98306  2.98306  0.00000  0.03389
       9     C     3.13401  3.13401  0.00000 -0.26802
      10     H     0.46685  0.46685  0.00000  0.06630
      11     H     0.44444  0.44444  0.00000  0.11113
      12     H     0.45501  0.45501  0.00000  0.08998
      13     H     0.44614  0.44614  0.00000  0.10771
      14     H     0.44900  0.44900  0.00000  0.10200

   Total alpha = 24.00000, Total beta = 24.00000, Total charge = -0.00000

*** Psi4 exiting successfully. Buy a developer a beer!
