  ==> Input File <==

--------------------------------------------------------------------------
set {
	reference rhf
	basis 6-31G*
}

set_num_threads( 1 )
memory 2 gb

molecule MOL {
0 1

H	 -0.523538	 0.859076	 4.530027
C	 -1.164125	 0.071569	 4.113970
C	 -1.810976	 0.407160	 2.794283
O	 -1.306888	 -0.953054	 4.698366
C	 -0.796437	 0.885086	 1.746165
H	 -2.359014	 -0.462599	 2.450945
H	 -2.531175	 1.202109	 2.984086
C	 0.183211	 -0.204735	 1.303585
H	 -1.341938	 1.252380	 0.881984
H	 -0.244382	 1.737095	 2.139959
C	 1.180775	 0.282413	 0.250794
H	 -0.378239	 -1.048984	 0.908787
H	 0.728528	 -0.583214	 2.166094
C	 2.148627	 -0.814315	 -0.201312
H	 0.630545	 0.668635	 -0.603497
H	 1.749456	 1.119721	 0.653163
C	 3.580890	 -0.659131	 0.322722
H	 2.166869	 -0.852443	 -1.289387
H	 1.762857	 -1.776509	 0.128956
C	 4.324889	 0.564933	 -0.213704
H	 4.142010	 -1.551473	 0.056605
H	 3.564836	 -0.624694	 1.410140
H	 4.342616	 0.565491	 -1.300421
H	 3.866655	 1.493402	 0.110242
H	 5.353900	 0.572371	 0.132816

	symmetry c1
}
set optking {
	frozen_dihedral = ("
		6 3 5 8,
		6 3 2 4,
		3 5 8 12,
		12 8 11 14,
		20 17 14 18
	")
}

ee = energy('scf')
oeprop('DIPOLE', 'QUADRUPOLE', 'MULLIKEN_CHARGES')
f=open( 'psi4out.xyz', 'w' )
f.write( "25  " )
f.write( str(ee) + "\n" )
f.write( MOL.save_string_xyz() )
f.close()
--------------------------------------------------------------------------

    Molecular point group: c1

    Geometry (in Angstrom), charge = 0, multiplicity = 1:

       Center              X                  Y                   Z               Mass
    ------------   -----------------  -----------------  -----------------  -----------------
           H         -1.241243020317     0.907919073319     2.875105802035     1.007825032070
           C         -1.881830020317     0.120412073319     2.459048802035    12.000000000000
           C         -2.528681020317     0.456003073319     1.139361802035    12.000000000000
           O         -2.024593020317    -0.904210926681     3.043444802035    15.994914619560
           C         -1.514142020317     0.933929073319     0.091243802035    12.000000000000
           H         -3.076719020317    -0.413755926681     0.796023802035     1.007825032070
           H         -3.248880020317     1.250952073319     1.329164802035     1.007825032070
           C         -0.534494020317    -0.155891926681    -0.351336197965    12.000000000000
           H         -2.059643020317     1.301223073319    -0.772937197965     1.007825032070
           H         -0.962087020317     1.785938073319     0.485037802035     1.007825032070
           C          0.463069979683     0.331256073319    -1.404127197965    12.000000000000
           H         -1.095944020317    -1.000140926681    -0.746134197965     1.007825032070
           H          0.010822979683    -0.534370926681     0.511172802035     1.007825032070
           C          1.430921979683    -0.765471926681    -1.856233197965    12.000000000000
           H         -0.087160020317     0.717478073319    -2.258418197965     1.007825032070
           H          1.031750979683     1.168564073319    -1.001758197965     1.007825032070
           C          2.863184979683    -0.610287926681    -1.332199197965    12.000000000000
           H          1.449163979683    -0.803599926681    -2.944308197965     1.007825032070
           H          1.045151979683    -1.727665926681    -1.525965197965     1.007825032070
           C          3.607183979683     0.613776073319    -1.868625197965    12.000000000000
           H          3.424304979683    -1.502629926681    -1.598316197965     1.007825032070
           H          2.847130979683    -0.575850926681    -0.244781197965     1.007825032070
           H          3.624910979683     0.614334073319    -2.955342197965     1.007825032070
           H          3.148949979683     1.542245073319    -1.544679197965     1.007825032070
           H          4.636194979683     0.621214073319    -1.522105197965     1.007825032070

  Charge       = 0
  Multiplicity = 1
  Basis Set: 6-31G*
  Basis Set:

    Orbital Energies (a.u.)
    -----------------------

    Doubly Occupied:

       1A    -20.562025     2A    -11.326179     3A    -11.235019
       4A    -11.234436     5A    -11.224027     6A    -11.218425
       7A    -11.218044     8A    -11.215541     9A    -11.210839
      10A     -1.402017    11A     -1.104292    12A     -1.069607
      13A     -1.012538    14A     -0.942491    15A     -0.874944
      16A     -0.825066    17A     -0.788059    18A     -0.777207
      19A     -0.665246    20A     -0.659921    21A     -0.634277
      22A     -0.624059    23A     -0.608248    24A     -0.589495
      25A     -0.571581    26A     -0.556565    27A     -0.534347
      28A     -0.521872    29A     -0.513881    30A     -0.494672
      31A     -0.489590    32A     -0.483331    33A     -0.459454
      34A     -0.454136    35A     -0.442633    36A     -0.409567

  @DF-RHF Final Energy:  -387.11679149965033

   => Energetics <=

    Nuclear Repulsion Energy =            443.0754046318109545
    One-Electron Energy =               -1402.4771672971480712
    Two-Electron Energy =                 572.2849711656856471
    DFT Exchange-Correlation Energy =       0.0000000000000000
    Empirical Dispersion Energy =           0.0000000000000000
    PCM Polarization Energy =               0.0000000000000000
    EFP Energy =                            0.0000000000000000
    Total Energy =                       -387.1167914996515265

  Mulliken Charges: (a.u.)
   Center  Symbol    Alpha    Beta     Spin     Total
       1     H     0.43265  0.43265  0.00000  0.13471
       2     C     2.83086  2.83086  0.00000  0.33827
       3     C     3.20810  3.20810  0.00000 -0.41620
       4     O     4.23781  4.23781  0.00000 -0.47562
       5     C     3.16693  3.16693  0.00000 -0.33386
       6     H     0.39977  0.39977  0.00000  0.20047
       7     H     0.40675  0.40675  0.00000  0.18649
       8     C     3.15738  3.15738  0.00000 -0.31476
       9     H     0.41277  0.41277  0.00000  0.17446
      10     H     0.41969  0.41969  0.00000  0.16062
      11     C     3.15534  3.15534  0.00000 -0.31068
      12     H     0.41753  0.41753  0.00000  0.16494
      13     H     0.41822  0.41822  0.00000  0.16357
      14     C     3.15724  3.15724  0.00000 -0.31448
      15     H     0.42007  0.42007  0.00000  0.15987
      16     H     0.42068  0.42068  0.00000  0.15864
      17     C     3.15428  3.15428  0.00000 -0.30856
      18     H     0.42089  0.42089  0.00000  0.15821
      19     H     0.41795  0.41795  0.00000  0.16409
      20     C     3.24073  3.24073  0.00000 -0.48146
      21     H     0.42005  0.42005  0.00000  0.15989
      22     H     0.42314  0.42314  0.00000  0.15373
      23     H     0.42172  0.42172  0.00000  0.15657
      24     H     0.42109  0.42109  0.00000  0.15782
      25     H     0.41837  0.41837  0.00000  0.16325

   Total alpha = 36.00000, Total beta = 36.00000, Total charge = -0.00000
