  ==> Input File <==

--------------------------------------------------------------------------
set {
	reference rhf
	basis cc-pvtz
}

set_num_threads( 4 )
memory 2 gb

molecule MOL {
0 1

H	 3.459101	 0.139266	 -0.762951
C	 2.749156	 -0.051729	 0.031265
C	 1.322304	 0.099773	 -0.484271
H	 2.929445	 -1.053887	 0.403481
H	 2.954281	 0.646699	 0.834672
C	 0.308557	 -0.162619	 0.622645
H	 1.143368	 -0.594400	 -1.295960
H	 1.169532	 1.100095	 -0.870217
N	 -1.069352	 -0.004081	 0.085342
H	 0.371632	 -1.172932	 0.991288
H	 0.400391	 0.548875	 1.426218
O	 -1.755335	 0.822132	 0.586714
O	 -1.398520	 -0.734178	 -0.788471

	symmetry c1
}
set optking {
	frozen_dihedral = ("
		12 9 6 3
	")
}

ee = optimize('scf')
oeprop('DIPOLE', 'QUADRUPOLE', 'MULLIKEN_CHARGES')
f=open( 'psi4out.xyz', 'w' )
f.write( "13  " )
f.write( str(ee) + "\n" )
f.write( MOL.save_string_xyz() )
f.close()
--------------------------------------------------------------------------

    Molecular point group: c1
  Charge       = 0
  Multiplicity = 1
  Basis Set: CC-PVTZ
  Basis Set:
  @DF-RHF Final Energy:  -321.86104454402658
    Total Energy =                       -321.8610445440262424
    Molecular point group: c1
  Basis Set: CC-PVTZ
  Basis Set:
  Basis Set: CC-PVTZ
  Basis Set:
  @DF-RHF Final Energy:  -321.85512182543374
    Total Energy =                       -321.8551218254340256
  Basis Set: CC-PVTZ
  Basis Set:
  Basis Set: CC-PVTZ
  Basis Set:
  @DF-RHF Final Energy:  -321.86102642554380
    Total Energy =                       -321.8610264255439688
  Basis Set: CC-PVTZ
  Basis Set:
  Basis Set: CC-PVTZ
  Basis Set:
  @DF-RHF Final Energy:  -321.86125149811517
    Total Energy =                       -321.8612514981150525
  Basis Set: CC-PVTZ
  Basis Set:
  Basis Set: CC-PVTZ
  Basis Set:
  @DF-RHF Final Energy:  -321.86125861099151
    Total Energy =                       -321.8612586109913423
  Basis Set: CC-PVTZ
  Basis Set:
  Basis Set: CC-PVTZ
  Basis Set:
  @DF-RHF Final Energy:  -321.86126038260556
    Total Energy =                       -321.8612603826054510
  Basis Set: CC-PVTZ
  Basis Set:
  Charge       = 0
  Multiplicity = 1
  Basis Set: CC-PVTZ
  Basis Set:

    Orbital Energies (a.u.)
    -----------------------

    Doubly Occupied:

       1A    -20.592528     2A    -20.588974     3A    -15.837406
       4A    -11.297742     5A    -11.251966     6A    -11.236458
       7A     -1.636440     8A     -1.420639     9A     -1.133322
      10A     -1.027583    11A     -0.884344    12A     -0.832372
      13A     -0.762687    14A     -0.741264    15A     -0.728858
      16A     -0.669720    17A     -0.604694    18A     -0.585598
      19A     -0.551385    20A     -0.521712    21A     -0.511995
      22A     -0.487645    23A     -0.474672    24A     -0.453789

  @DF-RHF Final Energy:  -321.86126041803493

   => Energetics <=

    Nuclear Repulsion Energy =            247.8282185133967630
    One-Electron Energy =                -929.7113722384788161
    Two-Electron Energy =                 360.0218933070472076
    DFT Exchange-Correlation Energy =       0.0000000000000000
    Empirical Dispersion Energy =           0.0000000000000000
    PCM Polarization Energy =               0.0000000000000000
    EFP Energy =                            0.0000000000000000
    Total Energy =                       -321.8612604180348171
    Molecular point group: c1
  Basis Set: CC-PVTZ
  Basis Set:

  -Total Gradient:
     Atom            X                  Y                   Z
    ------   -----------------  -----------------  -----------------
       1        0.000002054645    -0.000002412284     0.000000710426
       2       -0.000001498902    -0.000003174637    -0.000004005294
       3       -0.000002014002    -0.000342241201    -0.000084541587
       4        0.000001064612     0.000000012062     0.000002736664
       5        0.000001130489     0.000001761237    -0.000001554053
       6       -0.000047184428     0.000365342155     0.000235771173
       7        0.000001749614     0.000006031612    -0.000005030348
       8       -0.000001437341    -0.000001094108     0.000001967212
       9        0.000222490877     0.000259359444    -0.000476896708
      10       -0.000003579640     0.000001119035     0.000000057702
      11        0.000001056992    -0.000003281882     0.000001949774
      12       -0.000167795294    -0.000303976224     0.000314999642
      13       -0.000006037624     0.000022554791     0.000013835396

  **** Optimization is complete! (in 7 steps) ****
    Final optimized geometry and variables:
    Molecular point group: c1

    Geometry (in Angstrom), charge = 0, multiplicity = 1:

    H            3.475446389347     0.137625879454    -0.766552473142
    C            2.759294780973    -0.045841795164     0.023822977123
    C            1.336262896894     0.097102732500    -0.505691487152
    H            2.937874928877    -1.044306252365     0.407253468580
    H            2.958703735099     0.659988509354     0.822230993945
    C            0.318592840457    -0.155798459900     0.596443237759
    H            1.163093849829    -0.599769958288    -1.313392090373
    H            1.187999618929     1.095511904561    -0.902017822392
    N           -1.072323350341    -0.000602862390     0.085965948550
    H            0.376688762942    -1.171334640957     0.959673683829
    H            0.412265513673     0.537891419003     1.413757754758
    O           -1.753874488665     0.824242252604     0.593883465418
    O           -1.407377969399    -0.721066132909    -0.794228190275

  Mulliken Charges: (a.u.)
   Center  Symbol    Alpha    Beta     Spin     Total
       1     H     0.44157  0.44157  0.00000  0.11685
       2     C     3.15132  3.15132  0.00000 -0.30264
       3     C     3.09619  3.09619  0.00000 -0.19239
       4     H     0.45205  0.45205  0.00000  0.09590
       5     H     0.45197  0.45197  0.00000  0.09607
       6     C     3.04008  3.04008  0.00000 -0.08016
       7     H     0.43362  0.43362  0.00000  0.13275
       8     H     0.44284  0.44284  0.00000  0.11431
       9     N     3.27685  3.27685  0.00000  0.44630
      10     H     0.43710  0.43710  0.00000  0.12579
      11     H     0.43266  0.43266  0.00000  0.13469
      12     O     4.16907  4.16907  0.00000 -0.33815
      13     O     4.17467  4.17467  0.00000 -0.34933

   Total alpha = 24.00000, Total beta = 24.00000, Total charge =  0.00000
