  ==> Input File <==

--------------------------------------------------------------------------
set {
	reference rhf
	basis 6-31G*
}

set_num_threads( 1 )
memory 2 gb

molecule MOL {
0 1

H	 2.591676	 2.013956	 0.335017
O	 3.341076	 1.666752	 -0.126416
C	 3.569581	 0.339145	 0.272707
C	 2.539767	 -0.640285	 -0.279495
H	 4.553106	 0.084646	 -0.100901
H	 3.608576	 0.269204	 1.359154
C	 3.077523	 -1.550472	 -1.386403
H	 2.165274	 -1.246201	 0.541473
H	 1.696618	 -0.066604	 -0.660751
C	 2.006170	 -2.484024	 -1.956933
H	 3.901567	 -2.140351	 -0.994791
H	 3.484379	 -0.939181	 -2.192091
C	 2.470796	 -3.357918	 -3.127733
H	 1.626036	 -3.121549	 -1.160750
H	 1.163912	 -1.881375	 -2.290273
C	 3.527226	 -4.406774	 -2.769493
H	 1.602138	 -3.867482	 -3.539549
H	 2.851523	 -2.719650	 -3.923659
C	 3.880918	 -5.321842	 -3.943797
H	 3.165029	 -5.012323	 -1.939895
H	 4.433889	 -3.920010	 -2.418315
C	 4.939917	 -6.365632	 -3.590684
H	 2.981200	 -5.824600	 -4.291978
H	 4.233847	 -4.717721	 -4.777081
H	 4.603297	 -7.007376	 -2.781316
H	 5.167355	 -6.999483	 -4.442236
H	 5.865688	 -5.893728	 -3.273482

	symmetry c1
}
set optking {
	frozen_dihedral = ("
		14 10 7 4,
		14 10 13 16,
		10 7 4 8,
		10 13 16 20,
		20 16 19 22,
		4 3 2 1
	")
}

ee = energy('scf')
oeprop('DIPOLE', 'QUADRUPOLE', 'MULLIKEN_CHARGES')
f=open( 'psi4out.xyz', 'w' )
f.write( "27  " )
f.write( str(ee) + "\n" )
f.write( MOL.save_string_xyz() )
f.close()
--------------------------------------------------------------------------

    Molecular point group: c1

    Geometry (in Angstrom), charge = 0, multiplicity = 1:

       Center              X                  Y                   Z               Mass
    ------------   -----------------  -----------------  -----------------  -----------------
           H         -0.679870656399     4.412977842299     2.181100010525     1.007825032070
           O          0.069529343601     4.065773842299     1.719667010525    15.994914619560
           C          0.298034343601     2.738166842299     2.118790010525    12.000000000000
           C         -0.731779656399     1.758736842299     1.566588010525    12.000000000000
           H          1.281559343601     2.483667842299     1.745182010525     1.007825032070
           H          0.337029343601     2.668225842299     3.205237010525     1.007825032070
           C         -0.194023656399     0.848549842299     0.459680010525    12.000000000000
           H         -1.106272656399     1.152820842299     2.387556010525     1.007825032070
           H         -1.574928656399     2.332417842299     1.185332010525     1.007825032070
           C         -1.265376656399    -0.085002157701    -0.110849989475    12.000000000000
           H          0.630020343601     0.258670842299     0.851292010525     1.007825032070
           H          0.212832343601     1.459840842299    -0.346007989475     1.007825032070
           C         -0.800750656399    -0.958896157701    -1.281649989475    12.000000000000
           H         -1.645510656399    -0.722527157701     0.685333010525     1.007825032070
           H         -2.107634656399     0.517646842299    -0.444189989475     1.007825032070
           C          0.255679343601    -2.007752157701    -0.923409989475    12.000000000000
           H         -1.669408656399    -1.468460157701    -1.693465989475     1.007825032070
           H         -0.420023656399    -0.320628157701    -2.077575989475     1.007825032070
           C          0.609371343601    -2.922820157701    -2.097713989475    12.000000000000
           H         -0.106517656399    -2.613301157701    -0.093811989475     1.007825032070
           H          1.162342343601    -1.520988157701    -0.572231989475     1.007825032070
           C          1.668370343601    -3.966610157701    -1.744600989475    12.000000000000
           H         -0.290346656399    -3.425578157701    -2.445894989475     1.007825032070
           H          0.962300343601    -2.318699157701    -2.930997989475     1.007825032070
           H          1.331750343601    -4.608354157701    -0.935232989475     1.007825032070
           H          1.895808343601    -4.600461157701    -2.596152989475     1.007825032070
           H          2.594141343601    -3.494706157701    -1.427398989475     1.007825032070

  Charge       = 0
  Multiplicity = 1
  Basis Set: 6-31G*
  Basis Set:

    Orbital Energies (a.u.)
    -----------------------

    Doubly Occupied:

       1A    -20.550949     2A    -11.265705     3A    -11.215103
       4A    -11.213955     5A    -11.213631     6A    -11.213487
       7A    -11.212736     8A    -11.211803     9A    -11.207666
      10A     -1.357999    11A     -1.092572    12A     -1.059921
      13A     -1.009902    14A     -0.944537    15A     -0.882354
      16A     -0.821568    17A     -0.802977    18A     -0.776036
      19A     -0.688847    20A     -0.648232    21A     -0.632815
      22A     -0.611259    23A     -0.606674    24A     -0.580645
      25A     -0.576731    26A     -0.554785    27A     -0.535863
      28A     -0.524180    29A     -0.509164    30A     -0.488254
      31A     -0.482077    32A     -0.473303    33A     -0.464218
      34A     -0.458639    35A     -0.452052    36A     -0.441253
      37A     -0.417834

  @DF-RHF Final Energy:  -388.27597585469380

   => Energetics <=

    Nuclear Repulsion Energy =            454.7897371958831627
    One-Electron Energy =               -1427.7322700731833720
    Two-Electron Energy =                 584.6665570226089130
    DFT Exchange-Correlation Energy =       0.0000000000000000
    Empirical Dispersion Energy =           0.0000000000000000
    PCM Polarization Energy =               0.0000000000000000
    EFP Energy =                            0.0000000000000000
    Total Energy =                       -388.2759758546912963

  Mulliken Charges: (a.u.)
   Center  Symbol    Alpha    Beta     Spin     Total
       1     H     0.28315  0.28315  0.00000  0.43371
       2     O     4.37006  4.37006  0.00000 -0.74012
       3     C     2.99864  2.99864  0.00000  0.00273
       4     C     3.16679  3.16679  0.00000 -0.33358
       5     H     0.41386  0.41386  0.00000  0.17228
       6     H     0.42978  0.42978  0.00000  0.14044
       7     C     3.16004  3.16004  0.00000 -0.32009
       8     H     0.42312  0.42312  0.00000  0.15377
       9     H     0.41763  0.41763  0.00000  0.16474
      10     C     3.15357  3.15357  0.00000 -0.30715
      11     H     0.42130  0.42130  0.00000  0.15739
      12     H     0.41741  0.41741  0.00000  0.16518
      13     C     3.15332  3.15332  0.00000 -0.30664
      14     H     0.42468  0.42468  0.00000  0.15063
      15     H     0.42151  0.42151  0.00000  0.15698
      16     C     3.15273  3.15273  0.00000 -0.30545
      17     H     0.42208  0.42208  0.00000  0.15585
      18     H     0.42305  0.42305  0.00000  0.15389
      19     C     3.15114  3.15114  0.00000 -0.30227
      20     H     0.42507  0.42507  0.00000  0.14985
      21     H     0.42225  0.42225  0.00000  0.15550
      22     C     3.23912  3.23912  0.00000 -0.47824
      23     H     0.42330  0.42330  0.00000  0.15339
      24     H     0.42279  0.42279  0.00000  0.15442
      25     H     0.42216  0.42216  0.00000  0.15568
      26     H     0.41947  0.41947  0.00000  0.16106
      27     H     0.42198  0.42198  0.00000  0.15604

   Total alpha = 37.00000, Total beta = 37.00000, Total charge =  0.00000
