                              Psi4 1.0.54 Driver

  ==> Input File <==

--------------------------------------------------------------------------
set {
	reference rhf
	basis cc-pvtz
}

set_num_threads( 4 )
memory 2 gb

molecule MOL {
0 1

O	 1.847685	 1.294399	 -0.000190
C	 1.704209	 0.119472	 -0.000093
C	 0.380337	 -0.600947	 -0.000234
O	 2.715427	 -0.733672	 0.000025
C	 -0.824290	 0.329213	 -0.000115
H	 0.371455	 -1.255476	 -0.865660
H	 0.371410	 -1.255787	 0.864952
C	 -2.146151	 -0.432825	 -0.000068
H	 -0.773936	 0.979158	 -0.866319
H	 -0.773838	 0.979034	 0.866186
C	 -3.366283	 0.483552	 0.000557
H	 -2.189286	 -1.084450	 -0.869996
H	 -2.188867	 -1.085083	 0.869399
C	 -3.353747	 1.498545	 -1.137443
H	 -3.419748	 1.007625	 0.950634
H	 -4.267192	 -0.120021	 -0.064428
H	 -2.481079	 2.140716	 -1.080000
H	 -4.232464	 2.132342	 -1.107579
H	 -3.335625	 1.004161	 -2.103099
C	 4.020999	 -0.192556	 0.000019
H	 4.182809	 0.412891	 -0.879449
H	 4.692590	 -1.035653	 0.000152
H	 4.182726	 0.413087	 0.879368

	symmetry c1
}
set optking {
	frozen_dihedral = ("
		15 11 8 12
	")
}

ee,wfn = optimize('scf', return_wfn=True)
oeprop( wfn, 'DIPOLE', 'QUADRUPOLE', 'MULLIKEN_CHARGES')
f=open( 'psi4out.xyz', 'w' )
f.write( "23  " )
f.write( str(ee) + "\n" )
f.write( MOL.save_string_xyz() )
f.close()
--------------------------------------------------------------------------

    Molecular point group: c1
  Charge       = 0
  Multiplicity = 1
  Basis Set: CC-PVTZ
  Basis Set:
  @DF-RHF Final Energy:  -423.12791855487711
    Total Energy =                       -423.1279185548767146
    Molecular point group: c1
  Basis Set: CC-PVTZ
  Basis Set:
  Basis Set: CC-PVTZ
  Basis Set:
  @DF-RHF Final Energy:  -423.12769458541021
    Total Energy =                       -423.1276945854102678
  Basis Set: CC-PVTZ
  Basis Set:
  Basis Set: CC-PVTZ
  Basis Set:
  @DF-RHF Final Energy:  -423.12905880841674
    Total Energy =                       -423.1290588084166302
  Basis Set: CC-PVTZ
  Basis Set:
  Basis Set: CC-PVTZ
  Basis Set:
  @DF-RHF Final Energy:  -423.12915194738554
    Total Energy =                       -423.1291519473854805
  Basis Set: CC-PVTZ
  Basis Set:
  Basis Set: CC-PVTZ
  Basis Set:
  @DF-RHF Final Energy:  -423.12915661896812
    Total Energy =                       -423.1291566189681816
  Basis Set: CC-PVTZ
  Basis Set:
  Basis Set: CC-PVTZ
  Basis Set:
  @DF-RHF Final Energy:  -423.12913434745565
    Total Energy =                       -423.1291343474561018
  Basis Set: CC-PVTZ
  Basis Set:
  Basis Set: CC-PVTZ
  Basis Set:
  @DF-RHF Final Energy:  -423.12915802722603
    Total Energy =                       -423.1291580272254578
  Basis Set: CC-PVTZ
  Basis Set:
  Charge       = 0
  Multiplicity = 1
  Basis Set: CC-PVTZ
  Basis Set:

    Orbital Energies (a.u.)
    -----------------------

    Doubly Occupied:

       1A    -20.596292     2A    -20.534111     3A    -11.364521
       4A    -11.278469     5A    -11.233705     6A    -11.216768
       7A    -11.215989     8A    -11.214838     9A    -11.206035
      10A     -1.472174    11A     -1.365742    12A     -1.094195
      13A     -1.043045    14A     -0.986122    15A     -0.932032
      16A     -0.857406    17A     -0.783180    18A     -0.768645
      19A     -0.698956    20A     -0.686500    21A     -0.676088
      22A     -0.645076    23A     -0.614331    24A     -0.598687
      25A     -0.590662    26A     -0.561649    27A     -0.535800
      28A     -0.527027    29A     -0.521940    30A     -0.515971
      31A     -0.491366    32A     -0.465685    33A     -0.463549
      34A     -0.461032    35A     -0.457727    36A     -0.438412

  @DF-RHF Final Energy:  -423.12915819041564

   => Energetics <=

    Nuclear Repulsion Energy =            458.0610081339781345
    One-Electron Energy =               -1484.1528804699864850
    Two-Electron Energy =                 602.9627141455927131
    DFT Exchange-Correlation Energy =       0.0000000000000000
    Empirical Dispersion Energy =           0.0000000000000000
    PCM Polarization Energy =               0.0000000000000000
    EFP Energy =                            0.0000000000000000
    Total Energy =                       -423.1291581904155237
    Molecular point group: c1
  Basis Set: CC-PVTZ
  Basis Set:

  -Total Gradient:
     Atom            X                  Y                   Z
    ------   -----------------  -----------------  -----------------
       1       -0.000009344474     0.000007784747     0.000006411444
       2        0.000003218993    -0.000003261121     0.000000110433
       3        0.000000589849     0.000000840275    -0.000021816212
       4       -0.000002016757    -0.000004292631    -0.000004701003
       5        0.000001749760     0.000000444285     0.000007630442
       6        0.000000236759    -0.000001882493     0.000008573085
       7        0.000000955562     0.000003162501     0.000008644499
       8        0.000819394043     0.001274351265    -0.001074108795
       9       -0.000000167401     0.000002235813    -0.000003160282
      10        0.000000610908    -0.000000941776    -0.000003046104
      11        0.000971077833     0.001439364895    -0.000666957092
      12       -0.000848545854    -0.001297023190     0.001012197813
      13        0.000000066709    -0.000001394217    -0.000000364646
      14       -0.000001039188     0.000003967603     0.000002013785
      15       -0.000944792068    -0.001418381155     0.000725085266
      16       -0.000000777753     0.000000420938     0.000001399580
      17       -0.000002369574    -0.000001132312    -0.000000418230
      18        0.000003287312    -0.000001564538    -0.000000527629
      19        0.000000223959     0.000000315630     0.000001643022
      20        0.000002358017    -0.000003435231     0.000000613206
      21        0.000001165713     0.000000619732    -0.000000013499
      22        0.000003148253    -0.000000969494     0.000000267185
      23        0.000000969410     0.000000770471     0.000000523729

  **** Optimization is complete! (in 8 steps) ****
    Final optimized geometry and variables:
    Molecular point group: c1

    Geometry (in Angstrom), charge = 0, multiplicity = 1:

    O            1.723761211590     1.095115701598     0.058797463981
    C            1.575739315179    -0.078028066830     0.113857424503
    C            0.249166239934    -0.793054246316     0.136594802961
    O            2.583716287887    -0.933587708809     0.163546272645
    C           -0.951521405578     0.141394287077     0.089982345455
    H            0.242439771906    -1.482489021324    -0.701457617246
    H            0.233035081775    -1.411721643428     1.027744593436
    C           -2.271777117905    -0.624748473683     0.101353168727
    H           -0.878698919305     0.761501580415    -0.793851370555
    H           -0.911551750973     0.817146528175     0.937592369732
    C           -3.524324304835     0.250543882105     0.176825364816
    H           -2.335318707175    -1.265741640346    -0.775398000272
    H           -2.280153813824    -1.296987932665     0.955905019527
    C           -3.672823832585     1.267035332091    -0.951598676860
    H           -3.547986138576     0.759220736325     1.136757392844
    H           -4.390530717215    -0.404511585115     0.171421845514
    H           -2.895588595698     2.020623332239    -0.924188149410
    H           -4.625582969572     1.778994700500    -0.881369930558
    H           -3.630441033376     0.781864143596    -1.921794678392
    C            3.891266111593    -0.397678427806     0.148521764222
    H            4.062771067586     0.164213650540    -0.757630810909
    H            4.559621429500    -1.242099247173     0.194821614441
    H            4.048187955737     0.248996493954     0.999070209200

  Mulliken Charges: (a.u.)
   Center  Symbol    Alpha    Beta     Spin     Total
       1     O     4.19722  4.19722  0.00000 -0.39444
       2     C     2.80614  2.80614  0.00000  0.38772
       3     C     3.10172  3.10172  0.00000 -0.20344
       4     O     4.14638  4.14638  0.00000 -0.29276
       5     C     3.08661  3.08661  0.00000 -0.17322
       6     H     0.44005  0.44005  0.00000  0.11991
       7     H     0.43916  0.43916  0.00000  0.12169
       8     C     3.09895  3.09895  0.00000 -0.19789
       9     H     0.44400  0.44400  0.00000  0.11200
      10     H     0.44604  0.44604  0.00000  0.10792
      11     C     3.08961  3.08961  0.00000 -0.17922
      12     H     0.45345  0.45345  0.00000  0.09310
      13     H     0.45106  0.45106  0.00000  0.09789
      14     C     3.15473  3.15473  0.00000 -0.30945
      15     H     0.45309  0.45309  0.00000  0.09383
      16     H     0.44919  0.44919  0.00000  0.10163
      17     H     0.44993  0.44993  0.00000  0.10014
      18     H     0.44597  0.44597  0.00000  0.10806
      19     H     0.45490  0.45490  0.00000  0.09020
      20     C     3.03775  3.03775  0.00000 -0.07549
      21     H     0.45435  0.45435  0.00000  0.09131
      22     H     0.44535  0.44535  0.00000  0.10930
      23     H     0.45438  0.45438  0.00000  0.09124

   Total alpha = 36.00000, Total beta = 36.00000, Total charge = -0.00000

*** Psi4 exiting successfully. Buy a developer a beer!
