  ==> Input File <==

--------------------------------------------------------------------------
set {
	reference rhf
	basis 6-31G*
}

set_num_threads( 1 )
memory 2 gb

molecule MOL {
0 1

H	 -3.161837	 0.500524	 -0.000234
C	 -2.367097	 -0.232926	 -0.000000
O	 -1.158440	 0.455814	 -0.000122
H	 -2.468853	 -0.861886	 -0.882833
H	 -2.468942	 -0.861421	 0.883154
C	 -0.029776	 -0.365156	 0.000148
C	 -0.069386	 -1.252553	 1.232065
H	 0.876265	 0.242290	 0.000033
H	 -0.008330	 -0.974129	 -0.904617
C	 1.134416	 -2.189939	 1.316026
H	 -0.112646	 -0.618156	 2.112026
H	 -0.991001	 -1.826130	 1.213734
H	 2.067111	 -1.634451	 1.360039
H	 1.080164	 -2.811284	 2.203625
H	 1.182959	 -2.850640	 0.454909

	symmetry c1
}
set optking {
	frozen_dihedral = ("
		6 3 2 4,
		11 7 6 8
	")
}

ee = energy('scf')
oeprop('DIPOLE', 'QUADRUPOLE', 'MULLIKEN_CHARGES')
f=open( 'psi4out.xyz', 'w' )
f.write( "15  " )
f.write( str(ee) + "\n" )
f.write( MOL.save_string_xyz() )
f.close()
--------------------------------------------------------------------------

    Molecular point group: c1

    Geometry (in Angstrom), charge = 0, multiplicity = 1:

       Center              X                  Y                   Z               Mass
    ------------   -----------------  -----------------  -----------------  -----------------
           H         -2.641436460383     1.215803021693    -0.500646593056     1.007825032070
           C         -1.846696460383     0.482353021693    -0.500412593056    12.000000000000
           O         -0.638039460383     1.171093021693    -0.500534593056    15.994914619560
           H         -1.948452460383    -0.146606978307    -1.383245593056     1.007825032070
           H         -1.948541460383    -0.146141978307     0.382741406944     1.007825032070
           C          0.490624539617     0.350123021693    -0.500264593056    12.000000000000
           C          0.451014539617    -0.537273978307     0.731652406944    12.000000000000
           H          1.396665539617     0.957569021693    -0.500379593056     1.007825032070
           H          0.512070539617    -0.258849978307    -1.405029593056     1.007825032070
           C          1.654816539617    -1.474659978307     0.815613406944    12.000000000000
           H          0.407754539617     0.097123021693     1.611613406944     1.007825032070
           H         -0.470600460383    -1.110850978307     0.713321406944     1.007825032070
           H          2.587511539617    -0.919171978307     0.859626406944     1.007825032070
           H          1.600564539617    -2.096004978307     1.703212406944     1.007825032070
           H          1.703359539617    -2.135360978307    -0.045503593056     1.007825032070

  Charge       = 0
  Multiplicity = 1
  Basis Set: 6-31G*
  Basis Set:

    Orbital Energies (a.u.)
    -----------------------

    Doubly Occupied:

       1A    -20.552230     2A    -11.267090     3A    -11.262541
       4A    -11.215011     5A    -11.214275     6A     -1.379188
       7A     -1.056056     8A     -0.959514     9A     -0.888689
      10A     -0.802838    11A     -0.673678    12A     -0.660948
      13A     -0.632091    14A     -0.602960    15A     -0.566818
      16A     -0.529704    17A     -0.528266    18A     -0.500751
      19A     -0.483956    20A     -0.450546    21A     -0.405707

  @DF-RHF Final Energy:  -232.12925279683986

   => Energetics <=

    Nuclear Repulsion Energy =            194.1473655096289122
    One-Electron Energy =                -699.2875262006489265
    Two-Electron Energy =                 273.0109078941785583
    DFT Exchange-Correlation Energy =       0.0000000000000000
    Empirical Dispersion Energy =           0.0000000000000000
    PCM Polarization Energy =               0.0000000000000000
    EFP Energy =                            0.0000000000000000
    Total Energy =                       -232.1292527968414561

  Mulliken Charges: (a.u.)
   Center  Symbol    Alpha    Beta     Spin     Total
       1     H     0.41106  0.41106  0.00000  0.17787
       2     C     3.08544  3.08544  0.00000 -0.17089
       3     O     4.30373  4.30373  0.00000 -0.60746
       4     H     0.43085  0.43085  0.00000  0.13830
       5     H     0.42700  0.42700  0.00000  0.14600
       6     C     2.98612  2.98612  0.00000  0.02775
       7     C     3.17295  3.17295  0.00000 -0.34589
       8     H     0.41490  0.41490  0.00000  0.17019
       9     H     0.43220  0.43220  0.00000  0.13560
      10     C     3.24550  3.24550  0.00000 -0.49101
      11     H     0.41379  0.41379  0.00000  0.17243
      12     H     0.41857  0.41857  0.00000  0.16287
      13     H     0.42031  0.42031  0.00000  0.15938
      14     H     0.41657  0.41657  0.00000  0.16685
      15     H     0.42100  0.42100  0.00000  0.15800

   Total alpha = 21.00000, Total beta = 21.00000, Total charge = -0.00000
