  ==> Input File <==

--------------------------------------------------------------------------
set {
	reference rhf
	basis cc-pvtz
}

set_num_threads( 4 )
memory 2 gb

molecule MOL {
0 1

O	 -2.817697	 1.304178	 0.001046
C	 -2.664672	 0.129869	 0.003507
C	 -3.797908	 -0.860100	 -0.001145
O	 -1.481217	 -0.452708	 0.001092
H	 -4.408836	 -0.679689	 -0.875387
H	 -3.443486	 -1.878443	 -0.002770
H	 -4.412123	 -0.683688	 0.871605
C	 -0.332055	 0.384012	 -0.000250
C	 0.892252	 -0.506059	 -0.000295
H	 -0.360822	 1.020205	 -0.874146
H	 -0.359817	 1.021310	 0.872861
C	 1.380162	 -0.811923	 -1.413360
H	 0.655861	 -1.429584	 0.518252
H	 1.679998	 -0.020987	 0.567003
C	 2.615105	 -1.708257	 -1.438392
H	 0.581965	 -1.288026	 -1.977439
H	 1.603961	 0.118674	 -1.928992
C	 3.103698	 -2.013179	 -2.850238
H	 2.392164	 -2.639239	 -0.924948
H	 3.413480	 -1.233451	 -0.875148
H	 2.338255	 -2.519705	 -3.428490
H	 3.980173	 -2.650351	 -2.832670
H	 3.367177	 -1.102981	 -3.378417

	symmetry c1
}
set optking {
	frozen_dihedral = ("
		13 9 8 10
	")
}

ee = optimize('scf')
oeprop('DIPOLE', 'QUADRUPOLE', 'MULLIKEN_CHARGES')
f=open( 'psi4out.xyz', 'w' )
f.write( "23  " )
f.write( str(ee) + "\n" )
f.write( MOL.save_string_xyz() )
f.close()
--------------------------------------------------------------------------

    Molecular point group: c1
  Charge       = 0
  Multiplicity = 1
  Basis Set: CC-PVTZ
  Basis Set:
  @DF-RHF Final Energy:  -423.13164279397517
    Total Energy =                       -423.1316427939754021
    Molecular point group: c1
  Basis Set: CC-PVTZ
  Basis Set:
  Basis Set: CC-PVTZ
  Basis Set:
  @DF-RHF Final Energy:  -423.13178094881232
    Total Energy =                       -423.1317809488127750
  Basis Set: CC-PVTZ
  Basis Set:
  Basis Set: CC-PVTZ
  Basis Set:
  @DF-RHF Final Energy:  -423.13044344861464
    Total Energy =                       -423.1304434486144146
  Basis Set: CC-PVTZ
  Basis Set:
  Basis Set: CC-PVTZ
  Basis Set:
  @DF-RHF Final Energy:  -423.13207713162535
    Total Energy =                       -423.1320771316253513
  Basis Set: CC-PVTZ
  Basis Set:
  Basis Set: CC-PVTZ
  Basis Set:
  @DF-RHF Final Energy:  -423.13209411163774
    Total Energy =                       -423.1320941116373433
  Basis Set: CC-PVTZ
  Basis Set:
  Basis Set: CC-PVTZ
  Basis Set:
  @DF-RHF Final Energy:  -423.13210190235054
    Total Energy =                       -423.1321019023509962
  Basis Set: CC-PVTZ
  Basis Set:
  Charge       = 0
  Multiplicity = 1
  Basis Set: CC-PVTZ
  Basis Set:

    Orbital Energies (a.u.)
    -----------------------

    Doubly Occupied:

       1A    -20.595537     2A    -20.529335     3A    -11.366146
       4A    -11.280295     5A    -11.230810     6A    -11.222838
       7A    -11.218262     8A    -11.217638     9A    -11.210020
      10A     -1.470468    11A     -1.363439    12A     -1.093191
      13A     -1.042175    14A     -1.003275    15A     -0.931440
      16A     -0.843192    17A     -0.799501    18A     -0.781738
      19A     -0.690766    20A     -0.684892    21A     -0.669212
      22A     -0.645280    23A     -0.609484    24A     -0.584798
      25A     -0.577986    26A     -0.576787    27A     -0.559497
      28A     -0.534695    29A     -0.529267    30A     -0.505615
      31A     -0.499247    32A     -0.473979    33A     -0.471072
      34A     -0.464805    35A     -0.447983    36A     -0.439869

  @DF-RHF Final Energy:  -423.13210246556093

   => Energetics <=

    Nuclear Repulsion Energy =            456.5339117610527637
    One-Electron Energy =               -1481.0029645979325323
    Two-Electron Energy =                 601.3369503713187214
    DFT Exchange-Correlation Energy =       0.0000000000000000
    Empirical Dispersion Energy =           0.0000000000000000
    PCM Polarization Energy =               0.0000000000000000
    EFP Energy =                            0.0000000000000000
    Total Energy =                       -423.1321024655609335
    Molecular point group: c1
  Basis Set: CC-PVTZ
  Basis Set:

  -Total Gradient:
     Atom            X                  Y                   Z
    ------   -----------------  -----------------  -----------------
       1        0.000014583098    -0.000031529555    -0.000002986645
       2       -0.000045391001     0.000053605630     0.000008632737
       3        0.000007259272    -0.000005320872     0.000004432164
       4        0.000068719666    -0.000010273853     0.000001707395
       5       -0.000002952371    -0.000004681608    -0.000002246345
       6       -0.000000148800     0.000003331520    -0.000001291620
       7       -0.000001620479     0.000002906702    -0.000002905279
       8        0.002587155097     0.003656606600     0.001988207048
       9        0.001094557913     0.001360413743     0.004125060095
      10       -0.002319573423    -0.003218123812    -0.002259230056
      11        0.000024238084    -0.000006956479    -0.000010739720
      12       -0.000024969717     0.000000201606    -0.000014741586
      13       -0.001377602573    -0.001804184560    -0.003849872284
      14       -0.000012670937     0.000009906480     0.000011518698
      15       -0.000019063373    -0.000012571647     0.000013911710
      16       -0.000001181174    -0.000004626230    -0.000004900978
      17       -0.000000374125    -0.000003354931    -0.000004857982
      18        0.000009082789     0.000020334580    -0.000001026548
      19       -0.000002107276    -0.000004863753    -0.000001783184
      20       -0.000001713679    -0.000006890445     0.000001529076
      21        0.000001418152    -0.000001556597     0.000008668076
      22        0.000003641629     0.000006477986     0.000001551108
      23       -0.000001286773     0.000001149490    -0.000008635878

  **** Optimization is complete! (in 7 steps) ****
    Final optimized geometry and variables:
    Molecular point group: c1

    Geometry (in Angstrom), charge = 0, multiplicity = 1:

    O           -2.468434124365     1.785715739354     0.628807043026
    C           -2.290862299492     0.614630434125     0.624168425509
    C           -3.404239303907    -0.397577333915     0.590150891523
    O           -1.096545389941     0.056558633048     0.649829512387
    H           -4.000651186107    -0.223288440415    -0.295354192947
    H           -3.030172903308    -1.408938781139     0.589606980834
    H           -4.039515748402    -0.238965021300     1.451246188459
    C            0.038585153437     0.920855839053     0.682108837128
    C            1.283334025261     0.047236476167     0.647512549483
    H           -0.021419859537     1.565872351255    -0.182840979703
    H           -0.013488661011     1.526738769732     1.574121648044
    C            1.745741308124    -0.286413675139    -0.770188123746
    H            1.059558976195    -0.879504446222     1.163443750699
    H            2.082564934661     0.544456673740     1.186375933890
    C            2.949928931891    -1.222239775329    -0.804273523952
    H            0.922278112264    -0.739292930375    -1.315884476025
    H            1.991819662440     0.634142415142    -1.293811729474
    C            3.418595450544    -1.543020959825    -2.219495495251
    H            2.700678782660    -2.145881737877    -0.289234941361
    H            3.768417775813    -0.774613710216    -0.246730838251
    H            2.632321641017    -2.023369363723    -2.792201953861
    H            4.273457199807    -2.209190198442    -2.208287133251
    H            3.708525669440    -0.641955800761    -2.749606680503

  Mulliken Charges: (a.u.)
   Center  Symbol    Alpha    Beta     Spin     Total
       1     O     4.20293  4.20293  0.00000 -0.40587
       2     C     2.81325  2.81325  0.00000  0.37351
       3     C     3.13940  3.13940  0.00000 -0.27881
       4     O     4.14994  4.14994  0.00000 -0.29988
       5     H     0.44211  0.44211  0.00000  0.11577
       6     H     0.44242  0.44242  0.00000  0.11516
       7     H     0.44185  0.44185  0.00000  0.11631
       8     C     2.98726  2.98726  0.00000  0.02548
       9     C     3.08812  3.08812  0.00000 -0.17625
      10     H     0.45300  0.45300  0.00000  0.09399
      11     H     0.44473  0.44473  0.00000  0.11054
      12     C     3.08986  3.08986  0.00000 -0.17972
      13     H     0.45004  0.45004  0.00000  0.09992
      14     H     0.44851  0.44851  0.00000  0.10299
      15     C     3.08614  3.08614  0.00000 -0.17229
      16     H     0.45116  0.45116  0.00000  0.09768
      17     H     0.45421  0.45421  0.00000  0.09159
      18     C     3.14962  3.14962  0.00000 -0.29925
      19     H     0.45340  0.45340  0.00000  0.09320
      20     H     0.45468  0.45468  0.00000  0.09064
      21     H     0.45471  0.45471  0.00000  0.09058
      22     H     0.44792  0.44792  0.00000  0.10416
      23     H     0.45473  0.45473  0.00000  0.09055

   Total alpha = 36.00000, Total beta = 36.00000, Total charge =  0.00000
