  ==> Input File <==

--------------------------------------------------------------------------
set {
	reference rhf
	basis 6-31G*
}

set_num_threads( 1 )
memory 2 gb

molecule MOL {
0 1

O	 3.225979	 0.970355	 -0.599647
C	 2.701189	 0.057885	 -0.047330
C	 1.245376	 -0.013843	 0.345420
O	 3.347903	 -1.046386	 0.304773
C	 0.850614	 1.037882	 1.379901
H	 0.664865	 0.074923	 -0.566896
H	 1.060502	 -1.018052	 0.718358
C	 -0.596963	 0.911712	 1.866828
H	 1.014194	 2.027988	 0.965111
H	 1.519648	 0.955205	 2.229596
C	 -1.662399	 1.192608	 0.803318
H	 -0.736927	 1.607390	 2.690942
H	 -0.754485	 -0.082725	 2.281907
C	 -3.085560	 1.161950	 1.364275
H	 -1.473176	 2.167322	 0.356163
H	 -1.587260	 0.466743	 -0.003184
C	 -4.158915	 1.436153	 0.309357
H	 -3.172986	 1.895667	 2.163807
H	 -3.271731	 0.191192	 1.821078
C	 -5.577018	 1.407521	 0.878447
H	 -3.973799	 2.405400	 -0.148831
H	 -4.075924	 0.701123	 -0.488530
H	 -6.314934	 1.605165	 0.107069
H	 -5.702665	 2.155985	 1.655757
H	 -5.805252	 0.438751	 1.313956
C	 4.728119	 -1.109107	 -0.004993
H	 4.882018	 -1.033965	 -1.071845
H	 5.068212	 -2.067527	 0.355250
H	 5.265056	 -0.311663	 0.488280

	symmetry c1
}
set optking {
	frozen_dihedral = ("
		21 17 14 11,
		17 14 11 15,
		15 11 8 5,
		6 3 5 9,
		11 8 5 9,
		2 4 26 27,
		1 2 4 26
	")
}

ee = energy('scf')
oeprop('DIPOLE', 'QUADRUPOLE', 'MULLIKEN_CHARGES')
f=open( 'psi4out.xyz', 'w' )
f.write( "29  " )
f.write( str(ee) + "\n" )
f.write( MOL.save_string_xyz() )
f.close()
--------------------------------------------------------------------------

    Molecular point group: c1

    Geometry (in Angstrom), charge = 0, multiplicity = 1:

       Center              X                  Y                   Z               Mass
    ------------   -----------------  -----------------  -----------------  -----------------
           O          3.093485800791     0.438824716317    -1.187834707391    15.994914619560
           C          2.568695800791    -0.473645283683    -0.635517707391    12.000000000000
           C          1.112882800791    -0.545373283683    -0.242767707391    12.000000000000
           O          3.215409800791    -1.577916283683    -0.283414707391    15.994914619560
           C          0.718120800791     0.506351716317     0.791713292609    12.000000000000
           H          0.532371800791    -0.456607283683    -1.155083707391     1.007825032070
           H          0.928008800791    -1.549582283683     0.130170292609     1.007825032070
           C         -0.729456199209     0.380181716317     1.278640292609    12.000000000000
           H          0.881700800791     1.496457716317     0.376923292609     1.007825032070
           H          1.387154800791     0.423674716317     1.641408292609     1.007825032070
           C         -1.794892199209     0.661077716317     0.215130292609    12.000000000000
           H         -0.869420199209     1.075859716317     2.102754292609     1.007825032070
           H         -0.886978199209    -0.614255283683     1.693719292609     1.007825032070
           C         -3.218053199209     0.630419716317     0.776087292609    12.000000000000
           H         -1.605669199209     1.635791716317    -0.232024707391     1.007825032070
           H         -1.719753199209    -0.064787283683    -0.591371707391     1.007825032070
           C         -4.291408199209     0.904622716317    -0.278830707391    12.000000000000
           H         -3.305479199209     1.364136716317     1.575619292609     1.007825032070
           H         -3.404224199209    -0.340338283683     1.232890292609     1.007825032070
           C         -5.709511199209     0.875990716317     0.290259292609    12.000000000000
           H         -4.106292199209     1.873869716317    -0.737018707391     1.007825032070
           H         -4.208417199209     0.169592716317    -1.076717707391     1.007825032070
           H         -6.447427199209     1.073634716317    -0.481118707391     1.007825032070
           H         -5.835158199209     1.624454716317     1.067569292609     1.007825032070
           H         -5.937745199209    -0.092779283683     0.725768292609     1.007825032070
           C          4.595625800791    -1.640637283683    -0.593180707391    12.000000000000
           H          4.749524800791    -1.565495283683    -1.660032707391     1.007825032070
           H          4.935718800791    -2.599057283683    -0.232937707391     1.007825032070
           H          5.132562800791    -0.843193283683    -0.099907707391     1.007825032070

  Charge       = 0
  Multiplicity = 1
  Basis Set: 6-31G*
  Basis Set:

    Orbital Energies (a.u.)
    -----------------------

    Doubly Occupied:

       1A    -20.604597     2A    -20.542739     3A    -11.370987
       4A    -11.279972     5A    -11.232533     6A    -11.227331
       7A    -11.221045     8A    -11.217257     9A    -11.216319
      10A    -11.215401    11A    -11.209370    12A     -1.468626
      13A     -1.361200    14A     -1.100487    15A     -1.068163
      16A     -1.019811    17A     -0.976833    18A     -0.929700
      19A     -0.863930    20A     -0.800297    21A     -0.791304
      22A     -0.769133    23A     -0.698037    24A     -0.679395
      25A     -0.672246    26A     -0.652131    27A     -0.626543
      28A     -0.604353    29A     -0.594143    30A     -0.579957
      31A     -0.572564    32A     -0.543729    33A     -0.541839
      34A     -0.531079    35A     -0.519376    36A     -0.511612
      37A     -0.496319    38A     -0.480247    39A     -0.471356
      40A     -0.463521    41A     -0.462276    42A     -0.453006
      43A     -0.445994    44A     -0.429003

  @DF-RHF Final Energy:  -501.04183045058915

   => Energetics <=

    Nuclear Repulsion Energy =            610.1055028959777928
    One-Electron Energy =               -1891.2629868703729699
    Two-Electron Energy =                 780.1156535238076231
    DFT Exchange-Correlation Energy =       0.0000000000000000
    Empirical Dispersion Energy =           0.0000000000000000
    PCM Polarization Energy =               0.0000000000000000
    EFP Energy =                            0.0000000000000000
    Total Energy =                       -501.0418304505876677

  Mulliken Charges: (a.u.)
   Center  Symbol    Alpha    Beta     Spin     Total
       1     O     4.28601  4.28601  0.00000 -0.57202
       2     C     2.61039  2.61039  0.00000  0.77922
       3     C     3.20529  3.20529  0.00000 -0.41057
       4     O     4.30310  4.30310  0.00000 -0.60621
       5     C     3.16199  3.16199  0.00000 -0.32398
       6     H     0.39983  0.39983  0.00000  0.20034
       7     H     0.40148  0.40148  0.00000  0.19704
       8     C     3.15553  3.15553  0.00000 -0.31106
       9     H     0.40670  0.40670  0.00000  0.18660
      10     H     0.41418  0.41418  0.00000  0.17164
      11     C     3.15509  3.15509  0.00000 -0.31018
      12     H     0.41814  0.41814  0.00000  0.16373
      13     H     0.42195  0.42195  0.00000  0.15611
      14     C     3.15063  3.15063  0.00000 -0.30126
      15     H     0.42105  0.42105  0.00000  0.15790
      16     H     0.42272  0.42272  0.00000  0.15456
      17     C     3.15159  3.15159  0.00000 -0.30318
      18     H     0.42343  0.42343  0.00000  0.15315
      19     H     0.42389  0.42389  0.00000  0.15222
      20     C     3.23942  3.23942  0.00000 -0.47884
      21     H     0.42231  0.42231  0.00000  0.15538
      22     H     0.42312  0.42312  0.00000  0.15377
      23     H     0.41897  0.41897  0.00000  0.16207
      24     H     0.42159  0.42159  0.00000  0.15682
      25     H     0.42185  0.42185  0.00000  0.15631
      26     C     3.09329  3.09329  0.00000 -0.18658
      27     H     0.40882  0.40882  0.00000  0.18236
      28     H     0.40868  0.40868  0.00000  0.18265
      29     H     0.40898  0.40898  0.00000  0.18204

   Total alpha = 44.00000, Total beta = 44.00000, Total charge =  0.00000
