  ==> Input File <==

--------------------------------------------------------------------------
set {
	reference rhf
	basis cc-pvtz
}

set_num_threads( 4 )
memory 2 gb

molecule MOL {
0 1

H	 -0.000105	 1.988529	 0.748933
O	 -0.000098	 1.879786	 -0.188206
C	 -0.000014	 0.545691	 -0.532416
C	 1.155693	 0.247110	 -1.488955
C	 -1.377241	 0.135368	 -1.056492
H	 0.178508	 -0.028564	 0.364814
F	 2.289580	 0.549176	 -0.905932
F	 1.204060	 -1.015206	 -1.832366
F	 1.066987	 0.967381	 -2.586551
F	 -2.275498	 0.347766	 -0.126504
F	 -1.428395	 -1.131336	 -1.382926
F	 -1.719021	 0.844485	 -2.110871

	symmetry c1
}
set optking {
	frozen_dihedral = ("
		6 3 2 1
	")
}

ee = optimize('scf')
oeprop('DIPOLE', 'QUADRUPOLE', 'MULLIKEN_CHARGES')
f=open( 'psi4out.xyz', 'w' )
f.write( "12  " )
f.write( str(ee) + "\n" )
f.write( MOL.save_string_xyz() )
f.close()
--------------------------------------------------------------------------

    Molecular point group: c1
  Charge       = 0
  Multiplicity = 1
  Basis Set: CC-PVTZ
  Basis Set:
  @DF-RHF Final Energy:  -786.58568384945090
    Total Energy =                       -786.5856838494510157
    Molecular point group: c1
  Basis Set: CC-PVTZ
  Basis Set:
  Basis Set: CC-PVTZ
  Basis Set:
  @DF-RHF Final Energy:  -786.58709229928809
    Total Energy =                       -786.5870922992880878
  Basis Set: CC-PVTZ
  Basis Set:
  Basis Set: CC-PVTZ
  Basis Set:
  @DF-RHF Final Energy:  -786.58737382673223
    Total Energy =                       -786.5873738267323461
  Basis Set: CC-PVTZ
  Basis Set:
  Basis Set: CC-PVTZ
  Basis Set:
  @DF-RHF Final Energy:  -786.58739846974777
    Total Energy =                       -786.5873984697478818
  Basis Set: CC-PVTZ
  Basis Set:
  Basis Set: CC-PVTZ
  Basis Set:
  @DF-RHF Final Energy:  -786.58740378326183
    Total Energy =                       -786.5874037832612657
  Basis Set: CC-PVTZ
  Basis Set:
  Charge       = 0
  Multiplicity = 1
  Basis Set: CC-PVTZ
  Basis Set:

    Orbital Energies (a.u.)
    -----------------------

    Doubly Occupied:

       1A    -26.351786     2A    -26.351357     3A    -26.351001
       4A    -26.349457     5A    -26.349291     6A    -26.348382
       7A    -20.609502     8A    -11.514861     9A    -11.514567
      10A    -11.351845    11A     -1.765923    12A     -1.760554
      13A     -1.660540    14A     -1.658291    15A     -1.656045
      16A     -1.655795    17A     -1.439194    18A     -1.103332
      19A     -0.996666    20A     -0.938992    21A     -0.866223
      22A     -0.862052    23A     -0.857081    24A     -0.845738
      25A     -0.835034    26A     -0.785858    27A     -0.771434
      28A     -0.732135    29A     -0.725706    30A     -0.723995
      31A     -0.719546    32A     -0.685163    33A     -0.680456
      34A     -0.673801    35A     -0.672354    36A     -0.662610
      37A     -0.657545    38A     -0.624819    39A     -0.622273
      40A     -0.560574    41A     -0.508691

  @DF-RHF Final Energy:  -786.58740458867476

   => Energetics <=

    Nuclear Repulsion Energy =            670.1091623238731927
    One-Electron Energy =               -2427.7921963109015451
    Two-Electron Energy =                 971.0956293983535943
    DFT Exchange-Correlation Energy =       0.0000000000000000
    Empirical Dispersion Energy =           0.0000000000000000
    PCM Polarization Energy =               0.0000000000000000
    EFP Energy =                            0.0000000000000000
    Total Energy =                       -786.5874045886748718
    Molecular point group: c1
  Basis Set: CC-PVTZ
  Basis Set:

  -Total Gradient:
     Atom            X                  Y                   Z
    ------   -----------------  -----------------  -----------------
       1        0.000515298454     0.000026836764     0.000017621563
       2       -0.000781854346    -0.000023120768     0.000047586666
       3        0.000710970199     0.000131090416    -0.000091672130
       4       -0.000052558105     0.000145831746    -0.000143889168
       5       -0.000022119496     0.000026645435    -0.000149351435
       6       -0.000479156919    -0.000007295971     0.000052268747
       7        0.000038141867    -0.000031542728     0.000049564236
       8       -0.000001669565    -0.000128483045    -0.000013664147
       9       -0.000006894353    -0.000048424220     0.000080561609
      10       -0.000027722107     0.000071529282     0.000069205078
      11        0.000073912882    -0.000152726511    -0.000045166503
      12        0.000033651498    -0.000010340407     0.000126935482

  **** Optimization is complete! (in 6 steps) ****
    Final optimized geometry and variables:
    Molecular point group: c1

    Geometry (in Angstrom), charge = 0, multiplicity = 1:

    H            0.116293776114     1.673824521498     1.965719299835
    O            0.113494497036     1.540404703924     1.036127256531
    C            0.114211118154     0.196836084077     0.718684647721
    C            1.266520194123    -0.058055097298    -0.251725037392
    C           -1.265038309354    -0.186611617526     0.181641006754
    H            0.290866679170    -0.439798360995     1.576344916657
    F            2.398413461923     0.231512691856     0.348368347239
    F            1.318349643166    -1.319535132507    -0.611049077949
    F            1.182065213775     0.671851423716    -1.331688671353
    F           -2.161831882171     0.073659633273     1.108082405484
    F           -1.336272512729    -1.468636001015    -0.089687830875
    F           -1.590950296216     0.479016662622    -0.893925303706

  Mulliken Charges: (a.u.)
   Center  Symbol    Alpha    Beta     Spin     Total
       1     H     0.38061  0.38061  0.00000  0.23879
       2     O     4.18706  4.18706  0.00000 -0.37412
       3     C     3.00190  3.00190  0.00000 -0.00380
       4     C     2.67819  2.67819  0.00000  0.64363
       5     C     2.67954  2.67954  0.00000  0.64092
       6     H     0.44469  0.44469  0.00000  0.11061
       7     F     4.60676  4.60676  0.00000 -0.21352
       8     F     4.60536  4.60536  0.00000 -0.21071
       9     F     4.60073  4.60073  0.00000 -0.20146
      10     F     4.60907  4.60907  0.00000 -0.21813
      11     F     4.60543  4.60543  0.00000 -0.21086
      12     F     4.60067  4.60067  0.00000 -0.20134

   Total alpha = 41.00000, Total beta = 41.00000, Total charge = -0.00000
