                              Psi4 1.0.54 Driver

  ==> Input File <==

--------------------------------------------------------------------------
set {
	reference rhf
	basis cc-pvtz
}

set_num_threads( 4 )
memory 2 gb

molecule MOL {
0 1

H	 0.078996	 -2.551763	 0.299844
C	 -0.800025	 -1.908713	 0.372347
N	 -0.537714	 -0.645117	 0.000000
O	 -1.851563	 -2.324024	 0.744508
C	 -1.522613	 0.412524	 0.000000
H	 0.386299	 -0.438420	 -0.288896
H	 -2.150256	 0.356137	 -0.880771
H	 -1.005621	 1.357208	 0.000000
H	 -2.150256	 0.356137	 0.880771

	symmetry c1
}
set optking {
	frozen_dihedral = ("
		6 3 5 7
	")
}

ee,wfn = optimize('scf', return_wfn=True)
oeprop( wfn, 'DIPOLE', 'QUADRUPOLE', 'MULLIKEN_CHARGES')
f=open( 'psi4out.xyz', 'w' )
f.write( "9  " )
f.write( str(ee) + "\n" )
f.write( MOL.save_string_xyz() )
f.close()
--------------------------------------------------------------------------

    Molecular point group: c1
  Charge       = 0
  Multiplicity = 1
  Basis Set: CC-PVTZ
  Basis Set:
  @DF-RHF Final Energy:  -208.04343150196971
    Total Energy =                       -208.0434315019696783
    Molecular point group: c1
  Basis Set: CC-PVTZ
  Basis Set:
  Basis Set: CC-PVTZ
  Basis Set:
  @DF-RHF Final Energy:  -208.04362165142464
    Total Energy =                       -208.0436216514246439
  Basis Set: CC-PVTZ
  Basis Set:
  Basis Set: CC-PVTZ
  Basis Set:
  @DF-RHF Final Energy:  -208.04362290094150
    Total Energy =                       -208.0436229009415001
  Basis Set: CC-PVTZ
  Basis Set:
  Basis Set: CC-PVTZ
  Basis Set:
  @DF-RHF Final Energy:  -208.04365322413514
    Total Energy =                       -208.0436532241350847
  Basis Set: CC-PVTZ
  Basis Set:
  Basis Set: CC-PVTZ
  Basis Set:
  @DF-RHF Final Energy:  -208.04367180617385
    Total Energy =                       -208.0436718061739043
  Basis Set: CC-PVTZ
  Basis Set:
  Basis Set: CC-PVTZ
  Basis Set:
  @DF-RHF Final Energy:  -208.04367948531512
    Total Energy =                       -208.0436794853151241
  Basis Set: CC-PVTZ
  Basis Set:
  Basis Set: CC-PVTZ
  Basis Set:
  @DF-RHF Final Energy:  -208.04368067118122
    Total Energy =                       -208.0436806711812778
  Basis Set: CC-PVTZ
  Basis Set:
  Charge       = 0
  Multiplicity = 1
  Basis Set: CC-PVTZ
  Basis Set:

    Orbital Energies (a.u.)
    -----------------------

    Doubly Occupied:

       1A    -20.516786     2A    -15.584453     3A    -11.336260
       4A    -11.260312     5A     -1.394091     6A     -1.239426
       7A     -0.969782     8A     -0.809019     9A     -0.749019
      10A     -0.645990    11A     -0.629943    12A     -0.596189
      13A     -0.558939    14A     -0.537678    15A     -0.428464
      16A     -0.396772

  @DF-RHF Final Energy:  -208.04368070393593

   => Energetics <=

    Nuclear Repulsion Energy =            122.9042342980082907
    One-Electron Energy =                -526.5895823364842272
    Two-Electron Energy =                 195.6416673345401591
    DFT Exchange-Correlation Energy =       0.0000000000000000
    Empirical Dispersion Energy =           0.0000000000000000
    PCM Polarization Energy =               0.0000000000000000
    EFP Energy =                            0.0000000000000000
    Total Energy =                       -208.0436807039357632
    Molecular point group: c1
  Basis Set: CC-PVTZ
  Basis Set:

  -Total Gradient:
     Atom            X                  Y                   Z
    ------   -----------------  -----------------  -----------------
       1       -0.000001584665    -0.000002697458     0.000000941516
       2        0.000010810667     0.000015061736    -0.000007625056
       3       -0.000007632864    -0.000022642222    -0.000020062735
       4       -0.000010409530    -0.000009332569     0.000005497907
       5        0.000005922892     0.000025284214    -0.000008062389
       6        0.000005874248     0.000008784812     0.000020907806
       7       -0.000008986955    -0.000010119820     0.000009811123
       8        0.000000306200    -0.000001258011    -0.000001259481
       9        0.000005700007    -0.000003080684    -0.000000148690

  **** Optimization is complete! (in 8 steps) ****
    Final optimized geometry and variables:
    Molecular point group: c1

    Geometry (in Angstrom), charge = 0, multiplicity = 1:

    H            1.248221544197    -1.470723638251     0.032121508394
    C            0.381047276918    -0.810124678324     0.089587920234
    N            0.673439808570     0.460856811886    -0.227367971560
    O           -0.694591527514    -1.204937704183     0.411983313391
    C           -0.331469509654     1.499937451020    -0.262996547213
    H            1.588180634072     0.660932857806    -0.546715318941
    H           -0.985420452638     1.396753391795    -1.120294577106
    H            0.160778588748     2.460654860424    -0.310489600795
    H           -0.935411286327     1.458829819143     0.630780886376

  Mulliken Charges: (a.u.)
   Center  Symbol    Alpha    Beta     Spin     Total
       1     H     0.46421  0.46421  0.00000  0.07158
       2     C     2.87987  2.87987  0.00000  0.24027
       3     N     3.60583  3.60583  0.00000 -0.21166
       4     O     4.21412  4.21412  0.00000 -0.42824
       5     C     3.07602  3.07602  0.00000 -0.15203
       6     H     0.41030  0.41030  0.00000  0.17940
       7     H     0.45326  0.45326  0.00000  0.09348
       8     H     0.45426  0.45426  0.00000  0.09148
       9     H     0.44213  0.44213  0.00000  0.11573

   Total alpha = 16.00000, Total beta = 16.00000, Total charge = -0.00000

*** Psi4 exiting successfully. Buy a developer a beer!
