                              Psi4 1.0.54 Driver

  ==> Input File <==

--------------------------------------------------------------------------
set {
	reference rhf
	basis cc-pvtz
}

set_num_threads( 4 )
memory 2 gb

molecule MOL {
0 1

H	 -2.368080	 1.542835	 -2.583121
O	 -1.571728	 1.034274	 -2.613255
C	 -1.022608	 1.039659	 -1.401903
C	 0.257323	 0.249378	 -1.366353
O	 -1.513227	 1.612655	 -0.491443
C	 0.926581	 0.227233	 0.000178
H	 0.913811	 0.671022	 -2.120652
H	 0.022492	 -0.753802	 -1.707239
C	 2.220156	 -0.582071	 -0.000088
H	 1.129317	 1.244455	 0.315760
H	 0.236904	 -0.182119	 0.729697
C	 3.466689	 0.296012	 -0.000457
H	 2.239073	 -1.234095	 -0.869382
H	 2.239505	 -1.233985	 0.869270
H	 3.493549	 0.935857	 -0.875887
H	 4.368821	 -0.304526	 -0.001199
H	 3.494559	 0.935166	 0.875458

	symmetry c1
}
set optking {
	frozen_dihedral = ("
		10 6 9 13
	")
}

ee,wfn = optimize('scf', return_wfn=True)
oeprop( wfn, 'DIPOLE', 'QUADRUPOLE', 'MULLIKEN_CHARGES')
f=open( 'psi4out.xyz', 'w' )
f.write( "17  " )
f.write( str(ee) + "\n" )
f.write( MOL.save_string_xyz() )
f.close()
--------------------------------------------------------------------------

    Molecular point group: c1
  Charge       = 0
  Multiplicity = 1
  Basis Set: CC-PVTZ
  Basis Set:
  @DF-RHF Final Energy:  -345.04367108448929
    Total Energy =                       -345.0436710844892332
    Molecular point group: c1
  Basis Set: CC-PVTZ
  Basis Set:
  Basis Set: CC-PVTZ
  Basis Set:
  @DF-RHF Final Energy:  -345.04391876416457
    Total Energy =                       -345.0439187641642889
  Basis Set: CC-PVTZ
  Basis Set:
  Basis Set: CC-PVTZ
  Basis Set:
  @DF-RHF Final Energy:  -345.04384540943397
    Total Energy =                       -345.0438454094336862
  Basis Set: CC-PVTZ
  Basis Set:
  Basis Set: CC-PVTZ
  Basis Set:
  @DF-RHF Final Energy:  -345.04405872766301
    Total Energy =                       -345.0440587276630708
  Basis Set: CC-PVTZ
  Basis Set:
  Basis Set: CC-PVTZ
  Basis Set:
  @DF-RHF Final Energy:  -345.04406157650749
    Total Energy =                       -345.0440615765073744
  Basis Set: CC-PVTZ
  Basis Set:
  Charge       = 0
  Multiplicity = 1
  Basis Set: CC-PVTZ
  Basis Set:

    Orbital Energies (a.u.)
    -----------------------

    Doubly Occupied:

       1A    -20.604110     2A    -20.540788     3A    -11.373505
       4A    -11.239683     5A    -11.221269     6A    -11.220644
       7A    -11.212162     8A     -1.477667     9A     -1.369206
      10A     -1.091521    11A     -1.018137    12A     -0.915744
      13A     -0.828178    14A     -0.787954    15A     -0.703844
      16A     -0.691966    17A     -0.667602    18A     -0.621098
      19A     -0.610166    20A     -0.589029    21A     -0.564821
      22A     -0.531066    23A     -0.525436    24A     -0.484684
      25A     -0.478651    26A     -0.477264    27A     -0.469030
      28A     -0.445850

  @DF-RHF Final Energy:  -345.04406176842082

   => Energetics <=

    Nuclear Repulsion Energy =            306.5054929939034878
    One-Electron Energy =               -1077.5769604209338013
    Two-Electron Energy =                 426.0274056586097231
    DFT Exchange-Correlation Energy =       0.0000000000000000
    Empirical Dispersion Energy =           0.0000000000000000
    PCM Polarization Energy =               0.0000000000000000
    EFP Energy =                            0.0000000000000000
    Total Energy =                       -345.0440617684205336
    Molecular point group: c1
  Basis Set: CC-PVTZ
  Basis Set:

  -Total Gradient:
     Atom            X                  Y                   Z
    ------   -----------------  -----------------  -----------------
       1       -0.000002831436    -0.000000416533    -0.000001182999
       2        0.000001774423     0.000007751905    -0.000008633928
       3       -0.000001388780    -0.000014008473     0.000002651761
       4        0.000014619053     0.000006392350    -0.000000341546
       5       -0.000003049546    -0.000000505185     0.000005779800
       6       -0.000319392880    -0.000498525990     0.003304475243
       7       -0.000004210070    -0.000007116991    -0.000001756175
       8       -0.000008183999    -0.000003428024    -0.000007361931
       9       -0.001590180171    -0.002622236902     0.001331633511
      10        0.000537421106     0.000837233998    -0.002973585311
      11        0.000010383970    -0.000002529220    -0.000005190997
      12       -0.000010847248     0.000003133616     0.000007104346
      13        0.001370818938     0.002281193026    -0.001646042035
      14       -0.000004533483     0.000007872929    -0.000003988010
      15        0.000003442543     0.000001272801    -0.000002229180
      16        0.000001925895    -0.000002891293     0.000000075519
      17        0.000004231679     0.000006807987    -0.000001408073

  **** Optimization is complete! (in 6 steps) ****
    Final optimized geometry and variables:
    Molecular point group: c1

    Geometry (in Angstrom), charge = 0, multiplicity = 1:

    H           -2.673042673215     1.030613458425    -1.757386574054
    O           -1.892173493910     0.497933684766    -1.773430790815
    C           -1.364232101080     0.488571065928    -0.552606494882
    C           -0.111215216298    -0.342530950272    -0.492972483677
    O           -1.854027042301     1.076444211302     0.348866817896
    C            0.528155185750    -0.392564302302     0.890148846235
    H            0.574361623962     0.061800816145    -1.230956583328
    H           -0.370227546217    -1.335967298712    -0.843690986070
    C            1.844839392091    -1.190822015505     0.895791936054
    H            0.712634542273     0.625655976514     1.209475849153
    H           -0.181641231884    -0.813905288849     1.589507244735
    C            3.084868783274    -0.298953544115     0.875280645238
    H            1.883811110834    -1.841262957863     0.027299555538
    H            1.884681518728    -1.832197222575     1.768097928714
    H            3.084276001720     0.356267197787     0.009927016805
    H            3.992816234244    -0.890046716922     0.839332832301
    H            3.129305899980     0.326345949907     1.760079893069

  Mulliken Charges: (a.u.)
   Center  Symbol    Alpha    Beta     Spin     Total
       1     H     0.38236  0.38236  0.00000  0.23528
       2     O     4.16020  4.16020  0.00000 -0.32040
       3     C     2.80591  2.80591  0.00000  0.38817
       4     C     3.11000  3.11000  0.00000 -0.22001
       5     O     4.19102  4.19102  0.00000 -0.38204
       6     C     3.09004  3.09004  0.00000 -0.18008
       7     H     0.43799  0.43799  0.00000  0.12402
       8     H     0.43735  0.43735  0.00000  0.12530
       9     C     3.09234  3.09234  0.00000 -0.18468
      10     H     0.44657  0.44657  0.00000  0.10686
      11     H     0.44030  0.44030  0.00000  0.11940
      12     C     3.14690  3.14690  0.00000 -0.29379
      13     H     0.45653  0.45653  0.00000  0.08694
      14     H     0.44523  0.44523  0.00000  0.10955
      15     H     0.45615  0.45615  0.00000  0.08770
      16     H     0.44851  0.44851  0.00000  0.10298
      17     H     0.45260  0.45260  0.00000  0.09481

   Total alpha = 28.00000, Total beta = 28.00000, Total charge = -0.00000

*** Psi4 exiting successfully. Buy a developer a beer!
