  ==> Input File <==

--------------------------------------------------------------------------
set {
	reference rhf
	basis cc-pvtz
}

set_num_threads( 4 )
memory 2 gb

molecule MOL {
0 1

H	 1.597384	 1.422011	 -2.163896
C	 0.870819	 1.247184	 -1.381068
C	 1.322304	 0.099773	 -0.484271
H	 0.761288	 2.167488	 -0.818562
H	 -0.079794	 1.027531	 -1.853750
C	 0.308557	 -0.162619	 0.622645
H	 2.280062	 0.331948	 -0.035353
H	 1.445783	 -0.803745	 -1.068520
N	 -1.069352	 -0.004081	 0.085342
H	 0.371632	 -1.172932	 0.991288
H	 0.400391	 0.548875	 1.426218
O	 -1.584901	 -0.965470	 -0.377818
O	 -1.548033	 1.079343	 0.130056

	symmetry c1
}
set optking {
	frozen_dihedral = ("
		7 3 6 9
	")
}

ee = optimize('scf')
oeprop('DIPOLE', 'QUADRUPOLE', 'MULLIKEN_CHARGES')
f=open( 'psi4out.xyz', 'w' )
f.write( "13  " )
f.write( str(ee) + "\n" )
f.write( MOL.save_string_xyz() )
f.close()
--------------------------------------------------------------------------

    Molecular point group: c1
  Charge       = 0
  Multiplicity = 1
  Basis Set: CC-PVTZ
  Basis Set:
  @DF-RHF Final Energy:  -321.85513104396887
    Total Energy =                       -321.8551310439685267
    Molecular point group: c1
  Basis Set: CC-PVTZ
  Basis Set:
  Basis Set: CC-PVTZ
  Basis Set:
  @DF-RHF Final Energy:  -321.85505699508121
    Total Energy =                       -321.8550569950812701
  Basis Set: CC-PVTZ
  Basis Set:
  Basis Set: CC-PVTZ
  Basis Set:
  @DF-RHF Final Energy:  -321.85627501482236
    Total Energy =                       -321.8562750148221312
  Basis Set: CC-PVTZ
  Basis Set:
  Basis Set: CC-PVTZ
  Basis Set:
  @DF-RHF Final Energy:  -321.85835866015310
    Total Energy =                       -321.8583586601531579
  Basis Set: CC-PVTZ
  Basis Set:
  @DF-RHF Final Energy:  -321.85868449805247
    Total Energy =                       -321.8586844980526394
  Basis Set: CC-PVTZ
  Basis Set:
  @DF-RHF Final Energy:  -321.85885666183151
    Total Energy =                       -321.8588566618313962
  Basis Set: CC-PVTZ
  Basis Set:
  Basis Set: CC-PVTZ
  Basis Set:
  @DF-RHF Final Energy:  -321.85897490661773
    Total Energy =                       -321.8589749066177319
  Basis Set: CC-PVTZ
  Basis Set:
  Basis Set: CC-PVTZ
  Basis Set:
  @DF-RHF Final Energy:  -321.85900411460972
    Total Energy =                       -321.8590041146096610
  Basis Set: CC-PVTZ
  Basis Set:
  Charge       = 0
  Multiplicity = 1
  Basis Set: CC-PVTZ
  Basis Set:

    Orbital Energies (a.u.)
    -----------------------

    Doubly Occupied:

       1A    -20.593388     2A    -20.588672     3A    -15.836866
       4A    -11.297499     5A    -11.253876     6A    -11.228007
       7A     -1.636618     8A     -1.420737     9A     -1.131685
      10A     -1.021135    11A     -0.895487    12A     -0.822517
      13A     -0.757282    14A     -0.740671    15A     -0.729549
      16A     -0.662717    17A     -0.611027    18A     -0.591938
      19A     -0.533496    20A     -0.518790    21A     -0.512605
      22A     -0.485130    23A     -0.475035    24A     -0.454448

  @DF-RHF Final Energy:  -321.85900507118185

   => Energetics <=

    Nuclear Repulsion Energy =            254.7714903592189160
    One-Electron Energy =                -943.6626474947463521
    Two-Electron Energy =                 367.0321520643457802
    DFT Exchange-Correlation Energy =       0.0000000000000000
    Empirical Dispersion Energy =           0.0000000000000000
    PCM Polarization Energy =               0.0000000000000000
    EFP Energy =                            0.0000000000000000
    Total Energy =                       -321.8590050711816843
    Molecular point group: c1
  Basis Set: CC-PVTZ
  Basis Set:

  -Total Gradient:
     Atom            X                  Y                   Z
    ------   -----------------  -----------------  -----------------
       1       -0.000002767562     0.000000896224    -0.000016011879
       2       -0.000057313547     0.000031657329    -0.000009726020
       3        0.001550555890    -0.004678824572     0.000404642361
       4        0.000015178931    -0.000014864664    -0.000020807462
       5        0.000008876321     0.000016378643     0.000003981867
       6       -0.000295077075    -0.004285070808    -0.001081818917
       7       -0.001314849602     0.005067207635    -0.000063857869
       8       -0.000002215195    -0.000003117197     0.000012610869
       9        0.000141891125     0.004047018632     0.000948909550
      10       -0.000003859701     0.000015132147     0.000006572541
      11        0.000041781432    -0.000003456133     0.000005738919
      12       -0.000118129836     0.000008017940    -0.000056202148
      13        0.000035928818    -0.000200975179    -0.000134031812

  **** Optimization is complete! (in 9 steps) ****
    Final optimized geometry and variables:
    Molecular point group: c1

    Geometry (in Angstrom), charge = 0, multiplicity = 1:

    H            2.053732639669     1.184203926689    -1.964587856000
    C            1.262153265318     1.034671914501    -1.241522788228
    C            1.630471308186    -0.116122523640    -0.305893437849
    H            1.128224069834     1.960995849379    -0.695391427100
    H            0.350880816830     0.831622943821    -1.788897533366
    C            0.636868731475    -0.347214862927     0.834110634752
    H            2.572355119656     0.133305071629     0.168975415116
    H            1.761216269348    -1.028883412589    -0.869711335073
    N           -0.769871190463    -0.225809189033     0.362017621538
    H            0.725964518279    -1.339204429540     1.246517643165
    H            0.738895205204     0.393670982531     1.608096261261
    O           -1.166477117085    -1.075523748205    -0.365196334072
    O           -1.395439810599     0.710006668075     0.728015702600

  Mulliken Charges: (a.u.)
   Center  Symbol    Alpha    Beta     Spin     Total
       1     H     0.44568  0.44568  0.00000  0.10863
       2     C     3.14985  3.14985  0.00000 -0.29971
       3     C     3.09530  3.09530  0.00000 -0.19060
       4     H     0.44796  0.44796  0.00000  0.10408
       5     H     0.44325  0.44325  0.00000  0.11349
       6     C     3.04622  3.04622  0.00000 -0.09244
       7     H     0.44616  0.44616  0.00000  0.10768
       8     H     0.44013  0.44013  0.00000  0.11974
       9     N     3.28014  3.28014  0.00000  0.43971
      10     H     0.42874  0.42874  0.00000  0.14252
      11     H     0.43239  0.43239  0.00000  0.13523
      12     O     4.17451  4.17451  0.00000 -0.34901
      13     O     4.16966  4.16966  0.00000 -0.33933

   Total alpha = 24.00000, Total beta = 24.00000, Total charge = -0.00000
