  ==> Input File <==

--------------------------------------------------------------------------
set {
	reference rhf
	basis 6-31G*
}

set_num_threads( 1 )
memory 2 gb

molecule MOL {
0 1

H	 -2.805052	 -0.420090	 0.902062
C	 -2.681853	 0.085726	 -0.053507
O	 -1.338273	 0.223604	 -0.386855
H	 -3.150420	 -0.507547	 -0.826561
H	 -3.182526	 1.051571	 0.000332
C	 -0.599664	 0.977001	 0.522044
C	 0.855189	 0.964506	 0.115286
H	 -0.958280	 2.006954	 0.539029
H	 -0.694322	 0.572175	 1.527608
O	 1.392611	 -0.295398	 0.366430
H	 0.934499	 1.215727	 -0.940463
H	 1.392713	 1.724912	 0.683215
C	 2.706965	 -0.449871	 -0.062409
H	 2.756559	 -0.644779	 -1.131878
H	 3.305899	 0.433456	 0.155466
H	 3.125548	 -1.294566	 0.467107

	symmetry c1
}
set optking {
	frozen_dihedral = ("
		3 6 7 11,
		2 3 6 7
	")
}

ee = energy('scf')
oeprop('DIPOLE', 'QUADRUPOLE', 'MULLIKEN_CHARGES')
f=open( 'psi4out.xyz', 'w' )
f.write( "16  " )
f.write( str(ee) + "\n" )
f.write( MOL.save_string_xyz() )
f.close()
--------------------------------------------------------------------------

    Molecular point group: c1

    Geometry (in Angstrom), charge = 0, multiplicity = 1:

       Center              X                  Y                   Z               Mass
    ------------   -----------------  -----------------  -----------------  -----------------
           H         -2.860199882068    -0.663796724141     0.820823946526     1.007825032070
           C         -2.737000882068    -0.157980724141    -0.134745053474    12.000000000000
           O         -1.393420882068    -0.020102724141    -0.468093053474    15.994914619560
           H         -3.205567882068    -0.751253724141    -0.907799053474     1.007825032070
           H         -3.237673882068     0.807864275859    -0.080906053474     1.007825032070
           C         -0.654811882068     0.733294275859     0.440805946526    12.000000000000
           C          0.800041117932     0.720799275859     0.034047946526    12.000000000000
           H         -1.013427882068     1.763247275859     0.457790946526     1.007825032070
           H         -0.749469882068     0.328468275859     1.446369946526     1.007825032070
           O          1.337463117932    -0.539104724141     0.285191946526    15.994914619560
           H          0.879351117932     0.972020275859    -1.021701053474     1.007825032070
           H          1.337565117932     1.481205275859     0.601976946526     1.007825032070
           C          2.651817117932    -0.693577724141    -0.143647053474    12.000000000000
           H          2.701411117932    -0.888485724141    -1.213116053474     1.007825032070
           H          3.250751117932     0.189749275859     0.074227946526     1.007825032070
           H          3.070400117932    -1.538272724141     0.385868946526     1.007825032070

  Charge       = 0
  Multiplicity = 1
  Basis Set: 6-31G*
  Basis Set:

    Orbital Energies (a.u.)
    -----------------------

    Doubly Occupied:

       1A    -20.553530     2A    -20.552813     3A    -11.269103
       4A    -11.268405     5A    -11.263485     6A    -11.263277
       7A     -1.388125     8A     -1.370509     9A     -1.030731
      10A     -0.935896    11A     -0.891998    12A     -0.824164
      13A     -0.683844    14A     -0.680347    15A     -0.657089
      16A     -0.634802    17A     -0.630047    18A     -0.596753
      19A     -0.550714    20A     -0.537009    21A     -0.508010
      22A     -0.477744    23A     -0.462915    24A     -0.418835
      25A     -0.409964

  @DF-RHF Final Energy:  -306.97679041359635

   => Energetics <=

    Nuclear Repulsion Energy =            258.8404064431649090
    One-Electron Energy =                -931.9140839874960420
    Two-Electron Energy =                 366.0968871307351833
    DFT Exchange-Correlation Energy =       0.0000000000000000
    Empirical Dispersion Energy =           0.0000000000000000
    PCM Polarization Energy =               0.0000000000000000
    EFP Energy =                            0.0000000000000000
    Total Energy =                       -306.9767904135958929

  Mulliken Charges: (a.u.)
   Center  Symbol    Alpha    Beta     Spin     Total
       1     H     0.42807  0.42807  0.00000  0.14385
       2     C     3.07952  3.07952  0.00000 -0.15903
       3     O     4.30085  4.30085  0.00000 -0.60169
       4     H     0.41130  0.41130  0.00000  0.17741
       5     H     0.43190  0.43190  0.00000  0.13621
       6     C     2.99336  2.99336  0.00000  0.01328
       7     C     2.99398  2.99398  0.00000  0.01203
       8     H     0.43233  0.43233  0.00000  0.13535
       9     H     0.42279  0.42279  0.00000  0.15441
      10     O     4.30125  4.30125  0.00000 -0.60251
      11     H     0.42289  0.42289  0.00000  0.15423
      12     H     0.43180  0.43180  0.00000  0.13641
      13     C     3.07869  3.07869  0.00000 -0.15738
      14     H     0.42551  0.42551  0.00000  0.14898
      15     H     0.43274  0.43274  0.00000  0.13452
      16     H     0.41304  0.41304  0.00000  0.17393

   Total alpha = 25.00000, Total beta = 25.00000, Total charge = -0.00000
