  ==> Input File <==

--------------------------------------------------------------------------
set {
	reference rhf
	basis 6-31G*
}

set_num_threads( 4 )
memory 2 gb

molecule MOL {
0 1

H	 1.364315	 -2.651211	 -2.883700
O	 2.240962	 -2.327475	 -3.031200
C	 2.186058	 -1.125148	 -3.756078
C	 1.688220	 0.054057	 -2.927610
H	 3.198336	 -0.936069	 -4.089573
H	 1.569601	 -1.244705	 -4.646284
C	 0.243340	 -0.091166	 -2.443772
H	 2.348454	 0.178392	 -2.073211
H	 1.778372	 0.955130	 -3.532016
C	 -0.244089	 1.131745	 -1.661646
H	 0.163124	 -0.976719	 -1.819491
H	 -0.411130	 -0.251136	 -3.300754
C	 -1.713153	 1.074513	 -1.227002
H	 0.385544	 1.270005	 -0.784553
H	 -0.101920	 2.016427	 -2.278757
C	 -2.037799	 -0.007733	 -0.193645
H	 -1.984611	 2.042855	 -0.811742
H	 -2.342500	 0.935588	 -2.104760
C	 -3.489788	 0.042957	 0.286558
H	 -1.373359	 0.102252	 0.662237
H	 -1.839516	 -0.993004	 -0.608649
C	 -4.216917	 1.317354	 -0.141063
H	 -4.025645	 -0.823308	 -0.095450
H	 -3.513059	 -0.038752	 1.371301
H	 -4.239342	 1.411634	 -1.223113
H	 -5.243387	 1.322503	 0.212445
H	 -3.726170	 2.201406	 0.256408

	symmetry c1
}
set optking {
	frozen_dihedral = ("
		20 16 19 22
	")
}

ee = optimize('scf')
oeprop('DIPOLE', 'QUADRUPOLE', 'MULLIKEN_CHARGES')
f=open( 'psi4out.xyz', 'w' )
f.write( "27  " )
f.write( str(ee) + "\n" )
f.write( MOL.save_string_xyz() )
f.close()
--------------------------------------------------------------------------

    Molecular point group: c1
  Charge       = 0
  Multiplicity = 1
  Basis Set: 6-31G*
  Basis Set:
  @DF-RHF Final Energy:  -388.26797012399169
    Total Energy =                       -388.2679701239915175
    Molecular point group: c1
  Basis Set: 6-31G*
  Basis Set:
  Basis Set: 6-31G*
  Basis Set:
  @DF-RHF Final Energy:  -388.26804746014039
    Total Energy =                       -388.2680474601411333
  Basis Set: 6-31G*
  Basis Set:
  Basis Set: 6-31G*
  Basis Set:
  @DF-RHF Final Energy:  -388.27181448201588
    Total Energy =                       -388.2718144820165662
  Basis Set: 6-31G*
  Basis Set:
  Basis Set: 6-31G*
  Basis Set:
  @DF-RHF Final Energy:  -388.27243534882285
    Total Energy =                       -388.2724353488229099
  Basis Set: 6-31G*
  Basis Set:
  Basis Set: 6-31G*
  Basis Set:
  @DF-RHF Final Energy:  -388.27241739260035
    Total Energy =                       -388.2724173926002322
  Basis Set: 6-31G*
  Basis Set:
  Basis Set: 6-31G*
  Basis Set:
  @DF-RHF Final Energy:  -388.27239118031531
    Total Energy =                       -388.2723911803154806
  Basis Set: 6-31G*
  Basis Set:
  Basis Set: 6-31G*
  Basis Set:
  @DF-RHF Final Energy:  -388.27253406812900
    Total Energy =                       -388.2725340681295165
  Basis Set: 6-31G*
  Basis Set:
  Charge       = 0
  Multiplicity = 1
  Basis Set: 6-31G*
  Basis Set:

    Orbital Energies (a.u.)
    -----------------------

    Doubly Occupied:

       1A    -20.552292     2A    -11.267036     3A    -11.219719
       4A    -11.217283     5A    -11.216798     6A    -11.215564
       7A    -11.215185     8A    -11.214565     9A    -11.208983
      10A     -1.359047    11A     -1.093770    12A     -1.058243
      13A     -1.008913    14A     -0.946138    15A     -0.895477
      16A     -0.830857    17A     -0.798217    18A     -0.763850
      19A     -0.693575    20A     -0.648468    21A     -0.636386
      22A     -0.614341    23A     -0.606383    24A     -0.586769
      25A     -0.578834    26A     -0.555274    27A     -0.535734
      28A     -0.526345    29A     -0.511808    30A     -0.498425
      31A     -0.484941    32A     -0.476462    33A     -0.468139
      34A     -0.451189    35A     -0.446732    36A     -0.440507
      37A     -0.423205

  @DF-RHF Final Energy:  -388.27253435262850

   => Energetics <=

    Nuclear Repulsion Energy =            462.1681885609778533
    One-Electron Energy =               -1442.3505345127446162
    Two-Electron Energy =                 591.9098115991378108
    DFT Exchange-Correlation Energy =       0.0000000000000000
    Empirical Dispersion Energy =           0.0000000000000000
    PCM Polarization Energy =               0.0000000000000000
    EFP Energy =                            0.0000000000000000
    Total Energy =                       -388.2725343526290089
    Molecular point group: c1
  Basis Set: 6-31G*
  Basis Set:

  -Total Gradient:
     Atom            X                  Y                   Z
    ------   -----------------  -----------------  -----------------
       1       -0.000007548255     0.000001572335     0.000005029937
       2       -0.000010435445     0.000002771204     0.000002866644
       3        0.000016760098     0.000006155460     0.000006597915
       4       -0.000008733418    -0.000003283103    -0.000028597444
       5        0.000001627772     0.000001107202     0.000001126319
       6        0.000000495889     0.000003235635     0.000001411858
       7        0.000006497757    -0.000003166485     0.000006967830
       8       -0.000007542278     0.000000502341    -0.000005055265
       9        0.000003583665     0.000001582584    -0.000009107659
      10        0.000039904739     0.000005693298     0.000063965960
      11        0.000007078558     0.000002544957    -0.000012941713
      12        0.000004073158     0.000004655930    -0.000000365980
      13       -0.000042351709    -0.000025472235    -0.000076176083
      14        0.000027086755     0.000026728239     0.000002442448
      15        0.000012143513    -0.000037098032    -0.000010533432
      16       -0.000692408137     0.004710192040    -0.001616517315
      17        0.000010655155    -0.000035761290     0.000014116797
      18       -0.000057844889     0.000037943491    -0.000012737980
      19        0.001416353655     0.000975857007     0.004117724816
      20        0.000196066264    -0.004308037588     0.000352841186
      21       -0.000007529580     0.000017897459     0.000004928219
      22       -0.000906498976    -0.001387750634    -0.002797238682
      23       -0.000018618324     0.000006845650     0.000006201833
      24        0.000003235650    -0.000000774932    -0.000003175683
      25        0.000011071489     0.000000920192    -0.000020779691
      26        0.000001908091    -0.000001718436     0.000002358008
      27        0.000000968798    -0.000003142285     0.000004647159

  **** Optimization is complete! (in 8 steps) ****
    Final optimized geometry and variables:
    Molecular point group: c1

    Geometry (in Angstrom), charge = 0, multiplicity = 1:

    H            1.890635422378    -2.647499152636    -1.174856661200
    O            2.777259363850    -2.347780400080    -1.313214339873
    C            2.762730515873    -1.148437302544    -2.044902874692
    C            2.287221217345     0.048116452957    -1.228297981420
    H            3.783500379846    -0.988337570404    -2.367452328559
    H            2.153644958781    -1.256381834649    -2.941642507297
    C            0.833981767091    -0.056709714376    -0.759171273607
    H            2.941335289558     0.160019021200    -0.367503280693
    H            2.407447645751     0.943027364439    -1.836594603420
    C            0.373018638171     1.181727279674     0.014970356278
    H            0.724063406971    -0.938944191916    -0.135116091798
    H            0.184464725196    -0.200190918145    -1.622828306470
    C           -1.105336529990     1.179804273779     0.425105509280
    H            0.992871914327     1.301415628073     0.901757605498
    H            0.554678976689     2.059590484465    -0.601519650591
    C           -1.460101039572     0.116555993030     1.469356075469
    H           -1.345973946822     2.164506286959     0.814167100945
    H           -1.719536333101     1.045386903116    -0.463206168819
    C           -2.929860900012     0.084484808168     1.970352098984
    H           -0.791932844700     0.213380638072     2.322277404386
    H           -1.233707726548    -0.862873123868     1.058547050616
    C           -3.799138991641     1.305913364142     1.657802208376
    H           -3.424370729785    -0.782821545955     1.540958402128
    H           -2.931312816342    -0.080013697956     3.043571957561
    H           -3.895395743600     1.471974396465     0.590538421838
    H           -4.798172886118     1.159545762830     2.057129464923
    H           -3.402543837205     2.214362229356     2.101110097643

  Mulliken Charges: (a.u.)
   Center  Symbol    Alpha    Beta     Spin     Total
       1     H     0.27989  0.27989  0.00000  0.44021
       2     O     4.37093  4.37093  0.00000 -0.74187
       3     C     2.99738  2.99738  0.00000  0.00524
       4     C     3.16089  3.16089  0.00000 -0.32177
       5     H     0.41443  0.41443  0.00000  0.17113
       6     H     0.43206  0.43206  0.00000  0.13588
       7     C     3.16335  3.16335  0.00000 -0.32670
       8     H     0.41497  0.41497  0.00000  0.17006
       9     H     0.42435  0.42435  0.00000  0.15130
      10     C     3.15232  3.15232  0.00000 -0.30463
      11     H     0.42294  0.42294  0.00000  0.15412
      12     H     0.42551  0.42551  0.00000  0.14898
      13     C     3.15546  3.15546  0.00000 -0.31092
      14     H     0.42151  0.42151  0.00000  0.15698
      15     H     0.42140  0.42140  0.00000  0.15719
      16     C     3.15814  3.15814  0.00000 -0.31629
      17     H     0.41868  0.41868  0.00000  0.16264
      18     H     0.42394  0.42394  0.00000  0.15213
      19     C     3.15416  3.15416  0.00000 -0.30832
      20     H     0.42158  0.42158  0.00000  0.15684
      21     H     0.42149  0.42149  0.00000  0.15702
      22     C     3.24230  3.24230  0.00000 -0.48461
      23     H     0.42200  0.42200  0.00000  0.15601
      24     H     0.41956  0.41956  0.00000  0.16088
      25     H     0.42006  0.42006  0.00000  0.15988
      26     H     0.41922  0.41922  0.00000  0.16155
      27     H     0.42146  0.42146  0.00000  0.15708

   Total alpha = 37.00000, Total beta = 37.00000, Total charge = -0.00000
