  ==> Input File <==

--------------------------------------------------------------------------
set {
	reference rhf
	basis 6-31G*
}

set_num_threads( 4 )
memory 2 gb

molecule MOL {
0 1

O	 -0.682937	 1.318834	 -0.186099
C	 -0.860635	 0.152188	 -0.042321
C	 -2.173363	 -0.477127	 0.338347
O	 0.083258	 -0.765189	 -0.202595
H	 -2.477673	 -1.180929	 -0.427595
H	 -2.923125	 0.290956	 0.455536
H	 -2.058825	 -1.029004	 1.264191
C	 1.391937	 -0.334737	 -0.569838
C	 2.013260	 0.536960	 0.505684
H	 1.342674	 0.183835	 -1.515246
H	 1.952083	 -1.249751	 -0.698229
H	 3.034230	 0.785436	 0.232535
H	 1.458592	 1.459448	 0.622852
H	 2.032330	 0.014718	 1.456113

	symmetry c1
}
set optking {
	frozen_dihedral = ("
		10 8 4 2
	")
}

ee = optimize('scf')
oeprop('DIPOLE', 'QUADRUPOLE', 'MULLIKEN_CHARGES')
f=open( 'psi4out.xyz', 'w' )
f.write( "14  " )
f.write( str(ee) + "\n" )
f.write( MOL.save_string_xyz() )
f.close()
--------------------------------------------------------------------------

    Molecular point group: c1
  Charge       = 0
  Multiplicity = 1
  Basis Set: 6-31G*
  Basis Set:
  @DF-RHF Final Energy:  -305.87276125137714
    Total Energy =                       -305.8727612513771419
    Molecular point group: c1
  Basis Set: 6-31G*
  Basis Set:
  Basis Set: 6-31G*
  Basis Set:
  @DF-RHF Final Energy:  -305.87394391312273
    Total Energy =                       -305.8739439131228437
  Basis Set: 6-31G*
  Basis Set:
  Basis Set: 6-31G*
  Basis Set:
  @DF-RHF Final Energy:  -305.87269082522937
    Total Energy =                       -305.8726908252294834
  Basis Set: 6-31G*
  Basis Set:
  Basis Set: 6-31G*
  Basis Set:
  @DF-RHF Final Energy:  -305.87410093062647
    Total Energy =                       -305.8741009306263550
  Basis Set: 6-31G*
  Basis Set:
  Basis Set: 6-31G*
  Basis Set:
  @DF-RHF Final Energy:  -305.87411159009298
    Total Energy =                       -305.8741115900930367
  Basis Set: 6-31G*
  Basis Set:
  Charge       = 0
  Multiplicity = 1
  Basis Set: 6-31G*
  Basis Set:

    Orbital Energies (a.u.)
    -----------------------

    Doubly Occupied:

       1A    -20.601751     2A    -20.544362     3A    -11.375604
       4A    -11.287094     5A    -11.233082     6A    -11.217003
       7A     -1.467093     8A     -1.362754     9A     -1.054572
      10A     -0.998405    11A     -0.886307    12A     -0.759439
      13A     -0.698351    14A     -0.681635    15A     -0.659247
      16A     -0.610921    17A     -0.588137    18A     -0.570260
      19A     -0.555564    20A     -0.530646    21A     -0.514685
      22A     -0.493965    23A     -0.451894    24A     -0.436396

  @DF-RHF Final Energy:  -305.87411204229284

   => Energetics <=

    Nuclear Repulsion Energy =            249.5457203774755897
    One-Electron Energy =                -911.6813309843140587
    Two-Electron Energy =                 356.2614985645453771
    DFT Exchange-Correlation Energy =       0.0000000000000000
    Empirical Dispersion Energy =           0.0000000000000000
    PCM Polarization Energy =               0.0000000000000000
    EFP Energy =                            0.0000000000000000
    Total Energy =                       -305.8741120422930635
    Molecular point group: c1
  Basis Set: 6-31G*
  Basis Set:

  -Total Gradient:
     Atom            X                  Y                   Z
    ------   -----------------  -----------------  -----------------
       1        0.000038710149    -0.000040634335    -0.000013635320
       2        0.000764980058     0.000265726437     0.003496592635
       3       -0.000000422590     0.000015480432     0.000063073963
       4       -0.001036350878    -0.001250399604    -0.005541207343
       5       -0.000005423725     0.000006518870    -0.000018839427
       6       -0.000008943835    -0.000002431155    -0.000003789391
       7       -0.000008616138    -0.000016501003    -0.000018548015
       8       -0.000482815237     0.004516799122     0.004006863061
       9        0.000016498133    -0.000000920488    -0.000030946071
      10        0.000716486592    -0.003501949839    -0.001956359412
      11        0.000015616545     0.000016933745     0.000008690843
      12        0.000003922878     0.000002504601     0.000007793251
      13       -0.000009620838    -0.000009955202    -0.000001757466
      14       -0.000004021111    -0.000001171583     0.000002068692

  **** Optimization is complete! (in 6 steps) ****
    Final optimized geometry and variables:
    Molecular point group: c1

    Geometry (in Angstrom), charge = 0, multiplicity = 1:

    O           -0.715088331427     1.236901302890    -0.258088779815
    C           -0.847524239108     0.075249424037    -0.043190627651
    C           -2.129869919981    -0.574995515988     0.401623852948
    O            0.119888981431    -0.819579433054    -0.184709539840
    H           -2.423380543067    -1.333064049178    -0.315216092916
    H           -2.904133714838     0.172555812893     0.488614004153
    H           -1.978895449195    -1.066751416985     1.355700197100
    C            1.434358883752    -0.374707691100    -0.514672254710
    C            2.093800755262     0.441340325819     0.582205445319
    H            1.402471584194     0.147787442644    -1.461050840097
    H            1.978806524051    -1.295653264886    -0.668948145692
    H            3.130762550009     0.621662983878     0.315439776303
    H            1.604397637497     1.394004538477     0.722371463722
    H            2.078346806949    -0.106735228290     1.518711161996

  Mulliken Charges: (a.u.)
   Center  Symbol    Alpha    Beta     Spin     Total
       1     O     4.28437  4.28437  0.00000 -0.56874
       2     C     2.61895  2.61895  0.00000  0.76210
       3     C     3.28150  3.28150  0.00000 -0.56301
       4     O     4.30871  4.30871  0.00000 -0.61741
       5     H     0.39999  0.39999  0.00000  0.20001
       6     H     0.39719  0.39719  0.00000  0.20563
       7     H     0.40095  0.40095  0.00000  0.19811
       8     C     3.00110  3.00110  0.00000 -0.00220
       9     C     3.26164  3.26164  0.00000 -0.52328
      10     H     0.40851  0.40851  0.00000  0.18298
      11     H     0.40992  0.40992  0.00000  0.18017
      12     H     0.41737  0.41737  0.00000  0.16527
      13     H     0.39430  0.39430  0.00000  0.21139
      14     H     0.41551  0.41551  0.00000  0.16898

   Total alpha = 24.00000, Total beta = 24.00000, Total charge =  0.00000
