  ==> Input File <==

--------------------------------------------------------------------------
set {
	reference rhf
	basis 6-31G*
}

set_num_threads( 1 )
memory 2 gb

molecule MOL {
0 1

H	 1.851500	 2.728414	 -1.978470
O	 2.702019	 2.342799	 -2.130095
C	 3.229212	 1.867043	 -0.917751
C	 2.537998	 0.603958	 -0.416188
H	 4.273596	 1.659463	 -1.112292
H	 3.190808	 2.643603	 -0.154692
C	 1.061234	 0.800368	 -0.064817
H	 2.632771	 -0.166332	 -1.177133
H	 3.074768	 0.249810	 0.462347
C	 0.410347	 -0.471375	 0.486395
H	 0.524046	 1.128344	 -0.950382
H	 0.967413	 1.597932	 0.672360
C	 -1.046564	 -0.306878	 0.934382
H	 0.469519	 -1.257859	 -0.263798
H	 0.994542	 -0.818865	 1.335905
C	 -2.037799	 -0.007733	 -0.193645
H	 -1.355933	 -1.222627	 1.433893
H	 -1.105233	 0.480434	 1.684406
C	 -3.489788	 0.042957	 0.286558
H	 -1.942468	 -0.769017	 -0.966606
H	 -1.791350	 0.939623	 -0.667018
C	 -4.216917	 1.317354	 -0.141063
H	 -4.025645	 -0.823308	 -0.095450
H	 -3.513059	 -0.038752	 1.371301
H	 -4.239342	 1.411634	 -1.223113
H	 -5.243387	 1.322503	 0.212445
H	 -3.726170	 2.201406	 0.256408

	symmetry c1
}
set optking {
	frozen_dihedral = ("
		14 10 7 4,
		14 10 13 16,
		10 7 4 8,
		8 4 3 2,
		10 13 16 20,
		4 3 2 1
	")
}

ee = energy('scf')
oeprop('DIPOLE', 'QUADRUPOLE', 'MULLIKEN_CHARGES')
f=open( 'psi4out.xyz', 'w' )
f.write( "27  " )
f.write( str(ee) + "\n" )
f.write( MOL.save_string_xyz() )
f.close()
--------------------------------------------------------------------------

    Molecular point group: c1

    Geometry (in Angstrom), charge = 0, multiplicity = 1:

       Center              X                  Y                   Z               Mass
    ------------   -----------------  -----------------  -----------------  -----------------
           H          1.916374751588     1.998593386732    -1.705269156470     1.007825032070
           O          2.766893751588     1.612978386732    -1.856894156470    15.994914619560
           C          3.294086751588     1.137222386732    -0.644550156470    12.000000000000
           C          2.602872751588    -0.125862613268    -0.142987156470    12.000000000000
           H          4.338470751588     0.929642386732    -0.839091156470     1.007825032070
           H          3.255682751588     1.913782386732     0.118508843530     1.007825032070
           C          1.126108751588     0.070547386732     0.208383843530    12.000000000000
           H          2.697645751588    -0.896152613268    -0.903932156470     1.007825032070
           H          3.139642751588    -0.480010613268     0.735547843530     1.007825032070
           C          0.475221751588    -1.201195613268     0.759595843530    12.000000000000
           H          0.588920751588     0.398523386732    -0.677181156470     1.007825032070
           H          1.032287751588     0.868111386732     0.945560843530     1.007825032070
           C         -0.981689248412    -1.036698613268     1.207582843530    12.000000000000
           H          0.534393751588    -1.987679613268     0.009402843530     1.007825032070
           H          1.059416751588    -1.548685613268     1.609105843530     1.007825032070
           C         -1.972924248412    -0.737553613268     0.079555843530    12.000000000000
           H         -1.291058248412    -1.952447613268     1.707093843530     1.007825032070
           H         -1.040358248412    -0.249386613268     1.957606843530     1.007825032070
           C         -3.424913248412    -0.686863613268     0.559758843530    12.000000000000
           H         -1.877593248412    -1.498837613268    -0.693405156470     1.007825032070
           H         -1.726475248412     0.209802386732    -0.393817156470     1.007825032070
           C         -4.152042248412     0.587533386732     0.132137843530    12.000000000000
           H         -3.960770248412    -1.553128613268     0.177750843530     1.007825032070
           H         -3.448184248412    -0.768572613268     1.644501843530     1.007825032070
           H         -4.174467248412     0.681813386732    -0.949912156470     1.007825032070
           H         -5.178512248412     0.592682386732     0.485645843530     1.007825032070
           H         -3.661295248412     1.471585386732     0.529608843530     1.007825032070

  Charge       = 0
  Multiplicity = 1
  Basis Set: 6-31G*
  Basis Set:

    Orbital Energies (a.u.)
    -----------------------

    Doubly Occupied:

       1A    -20.552235     2A    -11.266990     3A    -11.219707
       4A    -11.216914     5A    -11.216093     6A    -11.215138
       7A    -11.214540     8A    -11.212796     9A    -11.209912
      10A     -1.358977    11A     -1.095300    12A     -1.061579
      13A     -1.011131    14A     -0.948091    15A     -0.888568
      16A     -0.821422    17A     -0.801622    18A     -0.777633
      19A     -0.693669    20A     -0.650034    21A     -0.629576
      22A     -0.614299    23A     -0.610806    24A     -0.585202
      25A     -0.581176    26A     -0.550844    27A     -0.537909
      28A     -0.533236    29A     -0.506211    30A     -0.492149
      31A     -0.488376    32A     -0.473866    33A     -0.470951
      34A     -0.455565    35A     -0.451533    36A     -0.440230
      37A     -0.422673

  @DF-RHF Final Energy:  -388.27612539920102

   => Energetics <=

    Nuclear Repulsion Energy =            461.3661563904489071
    One-Electron Energy =               -1440.7304994134212848
    Two-Electron Energy =                 591.0882176237749945
    DFT Exchange-Correlation Energy =       0.0000000000000000
    Empirical Dispersion Energy =           0.0000000000000000
    PCM Polarization Energy =               0.0000000000000000
    EFP Energy =                            0.0000000000000000
    Total Energy =                       -388.2761253991974399

  Mulliken Charges: (a.u.)
   Center  Symbol    Alpha    Beta     Spin     Total
       1     H     0.27990  0.27990  0.00000  0.44020
       2     O     4.37096  4.37096  0.00000 -0.74191
       3     C     2.99736  2.99736  0.00000  0.00527
       4     C     3.16086  3.16086  0.00000 -0.32172
       5     H     0.41446  0.41446  0.00000  0.17109
       6     H     0.43207  0.43207  0.00000  0.13586
       7     C     3.16325  3.16325  0.00000 -0.32651
       8     H     0.41498  0.41498  0.00000  0.17004
       9     H     0.42435  0.42435  0.00000  0.15130
      10     C     3.15263  3.15263  0.00000 -0.30526
      11     H     0.42278  0.42278  0.00000  0.15444
      12     H     0.42557  0.42557  0.00000  0.14886
      13     C     3.15623  3.15623  0.00000 -0.31246
      14     H     0.42163  0.42163  0.00000  0.15674
      15     H     0.42165  0.42165  0.00000  0.15669
      16     C     3.15578  3.15578  0.00000 -0.31156
      17     H     0.42050  0.42050  0.00000  0.15901
      18     H     0.42404  0.42404  0.00000  0.15192
      19     C     3.15373  3.15373  0.00000 -0.30745
      20     H     0.42104  0.42104  0.00000  0.15792
      21     H     0.42088  0.42088  0.00000  0.15823
      22     C     3.24066  3.24066  0.00000 -0.48132
      23     H     0.42018  0.42018  0.00000  0.15964
      24     H     0.42022  0.42022  0.00000  0.15957
      25     H     0.42139  0.42139  0.00000  0.15722
      26     H     0.42027  0.42027  0.00000  0.15945
      27     H     0.42263  0.42263  0.00000  0.15474

   Total alpha = 37.00000, Total beta = 37.00000, Total charge =  0.00000
