  ==> Input File <==

--------------------------------------------------------------------------
set {
	reference rhf
	basis 6-31G*
}

set_num_threads( 4 )
memory 2 gb

molecule MOL {
0 1

H	 -3.339037	 -0.751789	 -0.786236
O	 -3.517110	 -0.026191	 -0.205115
C	 -2.306886	 0.532354	 0.237577
C	 -1.177863	 -0.397191	 -0.171080
H	 -2.156308	 1.517575	 -0.201710
H	 -2.315015	 0.655684	 1.319734
C	 0.198102	 0.111031	 0.262842
H	 -1.208843	 -0.518759	 -1.250427
H	 -1.368741	 -1.376554	 0.258909
C	 1.331804	 -0.827780	 -0.158768
H	 0.361943	 1.100838	 -0.156218
H	 0.217265	 0.229072	 1.345532
C	 2.723619	 -0.410569	 0.329459
H	 1.342964	 -0.912588	 -1.244120
H	 1.116806	 -1.824343	 0.220779
C	 3.243875	 0.895854	 -0.272975
H	 3.424222	 -1.207124	 0.091250
H	 2.714788	 -0.329854	 1.414619
H	 3.251977	 0.848779	 -1.358681
H	 2.637085	 1.747371	 0.016682
H	 4.259473	 1.094070	 0.055697

	symmetry c1
}
set optking {
	frozen_dihedral = ("
		1 2 3 5
	")
}

ee = optimize('scf')
oeprop('DIPOLE', 'QUADRUPOLE', 'MULLIKEN_CHARGES')
f=open( 'psi4out.xyz', 'w' )
f.write( "21  " )
f.write( str(ee) + "\n" )
f.write( MOL.save_string_xyz() )
f.close()
--------------------------------------------------------------------------

    Molecular point group: c1
  Charge       = 0
  Multiplicity = 1
  Basis Set: 6-31G*
  Basis Set:
  @DF-RHF Final Energy:  -310.20868575050474
    Total Energy =                       -310.2086857505044009
    Molecular point group: c1
  Basis Set: 6-31G*
  Basis Set:
  Basis Set: 6-31G*
  Basis Set:
  @DF-RHF Final Energy:  -310.21009217166716
    Total Energy =                       -310.2100921716670427
  Basis Set: 6-31G*
  Basis Set:
  Basis Set: 6-31G*
  Basis Set:
  @DF-RHF Final Energy:  -310.21045483014501
    Total Energy =                       -310.2104548301450677
  Basis Set: 6-31G*
  Basis Set:
  Basis Set: 6-31G*
  Basis Set:
  @DF-RHF Final Energy:  -310.21045983094746
    Total Energy =                       -310.2104598309475136
  Basis Set: 6-31G*
  Basis Set:
  Basis Set: 6-31G*
  Basis Set:
  @DF-RHF Final Energy:  -310.21045377976264
    Total Energy =                       -310.2104537797628723
  Basis Set: 6-31G*
  Basis Set:
  Basis Set: 6-31G*
  Basis Set:
  @DF-RHF Final Energy:  -310.21046118694068
    Total Energy =                       -310.2104611869409609
  Basis Set: 6-31G*
  Basis Set:
  Charge       = 0
  Multiplicity = 1
  Basis Set: 6-31G*
  Basis Set:

    Orbital Energies (a.u.)
    -----------------------

    Doubly Occupied:

       1A    -20.548670     2A    -11.265889     3A    -11.224546
       4A    -11.223104     5A    -11.220124     6A    -11.219383
       7A    -11.211673     8A     -1.356063     9A     -1.092750
      10A     -1.037890    11A     -0.957066    12A     -0.881560
      13A     -0.826592    14A     -0.784167    15A     -0.671990
      16A     -0.656038    17A     -0.626537    18A     -0.621664
      19A     -0.591343    20A     -0.575532    21A     -0.549182
      22A     -0.529912    23A     -0.507831    24A     -0.499722
      25A     -0.486604    26A     -0.467067    27A     -0.461733
      28A     -0.443275    29A     -0.429768

  @DF-RHF Final Energy:  -310.21046119018104

   => Energetics <=

    Nuclear Repulsion Energy =            312.4308039474555017
    One-Electron Energy =               -1039.3471751433210102
    Two-Electron Energy =                 416.7059100056845864
    DFT Exchange-Correlation Energy =       0.0000000000000000
    Empirical Dispersion Energy =           0.0000000000000000
    PCM Polarization Energy =               0.0000000000000000
    EFP Energy =                            0.0000000000000000
    Total Energy =                       -310.2104611901809221
    Molecular point group: c1
  Basis Set: 6-31G*
  Basis Set:

  -Total Gradient:
     Atom            X                  Y                   Z
    ------   -----------------  -----------------  -----------------
       1        0.000022633910    -0.000889861750     0.001049555059
       2       -0.000145017330     0.001218349230    -0.001045714018
       3        0.000597859479    -0.000825684312    -0.000968989685
       4        0.000012503579    -0.000004857438     0.000003127416
       5       -0.000476878088     0.000499372376     0.000968571133
       6       -0.000000801015     0.000000609711     0.000000742009
       7        0.000000482245     0.000002443677    -0.000007769489
       8        0.000001225252     0.000001721807     0.000000228281
       9       -0.000000199992    -0.000003372046    -0.000000484094
      10       -0.000001031812    -0.000006312205     0.000001443363
      11       -0.000000151520     0.000002688578    -0.000003334268
      12        0.000003373081    -0.000000043974    -0.000001795288
      13       -0.000004778330     0.000001277324     0.000004778254
      14        0.000001423487     0.000001252559    -0.000000791348
      15       -0.000007904630     0.000000003321    -0.000000326523
      16       -0.000002092423     0.000001720866     0.000001014494
      17       -0.000004493541     0.000000787806    -0.000003132819
      18        0.000004552722    -0.000001915093     0.000002100241
      19        0.000001007128    -0.000001060407     0.000001489857
      20       -0.000001467273     0.000001585374    -0.000001841515
      21       -0.000000244923     0.000001294595     0.000001128940

  **** Optimization is complete! (in 7 steps) ****
    Final optimized geometry and variables:
    Molecular point group: c1

    Geometry (in Angstrom), charge = 0, multiplicity = 1:

    H           -3.481033839325    -0.679023750837    -0.764701907549
    O           -3.576463534516     0.037648217437    -0.155024132463
    C           -2.311470244936     0.521864413095     0.224027936749
    C           -1.172628870711    -0.406770264723    -0.176035820983
    H           -2.163381969707     1.507563923144    -0.209990213449
    H           -2.322786505740     0.647316448653     1.301777690922
    C            0.200322394771     0.109117320338     0.258617441850
    H           -1.185191992066    -0.535235475069    -1.258292096535
    H           -1.352619664931    -1.387669016778     0.259982786788
    C            1.341065432918    -0.824472538114    -0.155224266634
    H            0.356657289058     1.097970917674    -0.164021778302
    H            0.211738606275     0.231044262307     1.340311669530
    C            2.727464457479    -0.396051975200     0.338734491009
    H            1.358645011254    -0.912115014114    -1.240387123406
    H            1.131064962745    -1.821301945841     0.226698122004
    C            3.240434816606     0.913277409461    -0.263533722717
    H            3.434510836434    -1.188006578622     0.104781772195
    H            2.712829308439    -0.314037701294     1.423605297977
    H            3.253968991542     0.864647610499    -1.349107278587
    H            2.626496375002     1.760908815118     0.022290590930
    H            4.252950488945     1.119124056089     0.069476558019

  Mulliken Charges: (a.u.)
   Center  Symbol    Alpha    Beta     Spin     Total
       1     H     0.28001  0.28001  0.00000  0.43999
       2     O     4.37915  4.37915  0.00000 -0.75831
       3     C     2.96875  2.96875  0.00000  0.06250
       4     C     3.18734  3.18734  0.00000 -0.37467
       5     H     0.42810  0.42810  0.00000  0.14380
       6     H     0.42348  0.42348  0.00000  0.15303
       7     C     3.15963  3.15963  0.00000 -0.31925
       8     H     0.42298  0.42298  0.00000  0.15405
       9     H     0.41778  0.41778  0.00000  0.16444
      10     C     3.15245  3.15245  0.00000 -0.30489
      11     H     0.41829  0.41829  0.00000  0.16342
      12     H     0.42046  0.42046  0.00000  0.15908
      13     C     3.15289  3.15289  0.00000 -0.30578
      14     H     0.42338  0.42338  0.00000  0.15324
      15     H     0.42119  0.42119  0.00000  0.15762
      16     C     3.24165  3.24165  0.00000 -0.48330
      17     H     0.41996  0.41996  0.00000  0.16007
      18     H     0.42248  0.42248  0.00000  0.15505
      19     H     0.42192  0.42192  0.00000  0.15616
      20     H     0.41990  0.41990  0.00000  0.16020
      21     H     0.41823  0.41823  0.00000  0.16355

   Total alpha = 29.00000, Total beta = 29.00000, Total charge = -0.00000
