  ==> Input File <==

--------------------------------------------------------------------------
set {
	reference rhf
	basis 6-31G*
}

set_num_threads( 4 )
memory 2 gb

molecule MOL {
0 1

H	 3.096052	 -0.756172	 -1.344963
C	 2.380965	 -0.978658	 -0.561332
C	 1.322923	 0.120767	 -0.479465
H	 1.934176	 -1.942535	 -0.784254
H	 2.929169	 -1.069599	 0.371296
C	 0.306652	 -0.176050	 0.621399
H	 0.799737	 0.206169	 -1.426254
H	 1.789257	 1.077609	 -0.276367
N	 -1.068537	 -0.011044	 0.085269
H	 0.372515	 -1.192590	 0.973735
H	 0.391664	 0.520566	 1.441230
O	 -1.656956	 -0.997225	 -0.235017
O	 -1.478635	 1.104830	 -0.018026

	symmetry c1
}
set optking {
	frozen_dihedral = ("
		7 3 6 9
	")
}

ee = optimize('scf')
oeprop('DIPOLE', 'QUADRUPOLE', 'MULLIKEN_CHARGES')
f=open( 'psi4out.xyz', 'w' )
f.write( "13  " )
f.write( str(ee) + "\n" )
f.write( MOL.save_string_xyz() )
f.close()
--------------------------------------------------------------------------

    Molecular point group: c1
  Charge       = 0
  Multiplicity = 1
  Basis Set: 6-31G*
  Basis Set:
  @DF-RHF Final Energy:  -321.73001651724570
    Total Energy =                       -321.7300165172457014
    Molecular point group: c1
  Basis Set: 6-31G*
  Basis Set:
  Basis Set: 6-31G*
  Basis Set:
  @DF-RHF Final Energy:  -321.72149591679795
    Total Energy =                       -321.7214959167980624
  Basis Set: 6-31G*
  Basis Set:
  Basis Set: 6-31G*
  Basis Set:
  @DF-RHF Final Energy:  -321.72661136484709
    Total Energy =                       -321.7266113648472583
  Basis Set: 6-31G*
  Basis Set:
  Basis Set: 6-31G*
  Basis Set:
  @DF-RHF Final Energy:  -321.73037276200381
    Total Energy =                       -321.7303727620038671
  Basis Set: 6-31G*
  Basis Set:
  Basis Set: 6-31G*
  Basis Set:
  @DF-RHF Final Energy:  -321.73045603575827
    Total Energy =                       -321.7304560357580954
  Basis Set: 6-31G*
  Basis Set:
  Basis Set: 6-31G*
  Basis Set:
  @DF-RHF Final Energy:  -321.73046504733065
    Total Energy =                       -321.7304650473307106
  Basis Set: 6-31G*
  Basis Set:
  Charge       = 0
  Multiplicity = 1
  Basis Set: 6-31G*
  Basis Set:

    Orbital Energies (a.u.)
    -----------------------

    Doubly Occupied:

       1A    -20.601178     2A    -20.599078     3A    -15.846632
       4A    -11.299229     5A    -11.258283     6A    -11.237794
       7A     -1.630279     8A     -1.415675     9A     -1.132782
      10A     -1.028001    11A     -0.884721    12A     -0.833132
      13A     -0.759053    14A     -0.734004    15A     -0.723035
      16A     -0.659156    17A     -0.613043    18A     -0.594566
      19A     -0.539834    20A     -0.523136    21A     -0.513853
      22A     -0.481566    23A     -0.473137    24A     -0.448418

  @DF-RHF Final Energy:  -321.73046597100290

   => Energetics <=

    Nuclear Repulsion Energy =            247.9625057718456844
    One-Electron Energy =                -929.7267711010027824
    Two-Electron Energy =                 360.0337993581543401
    DFT Exchange-Correlation Energy =       0.0000000000000000
    Empirical Dispersion Energy =           0.0000000000000000
    PCM Polarization Energy =               0.0000000000000000
    EFP Energy =                            0.0000000000000000
    Total Energy =                       -321.7304659710027295
    Molecular point group: c1
  Basis Set: 6-31G*
  Basis Set:

  -Total Gradient:
     Atom            X                  Y                   Z
    ------   -----------------  -----------------  -----------------
       1       -0.000002771627    -0.000021306797    -0.000008797539
       2        0.000028390403    -0.000025247582     0.000028896148
       3        0.000346445918    -0.003744255872    -0.000632750234
       4        0.000012972683    -0.000020039182     0.000031867280
       5        0.000047830385    -0.000017901107    -0.000011094108
       6        0.000028725359     0.003096081004     0.000629757352
       7       -0.000279679335     0.002657726467     0.000389877897
       8       -0.000059047137    -0.000034736768     0.000008879598
       9       -0.000023996239    -0.002172748538    -0.000480326888
      10       -0.000017806604     0.000054069383    -0.000004732190
      11        0.000024623512     0.000037272276     0.000054828396
      12       -0.000082714373     0.000127105639    -0.000004608759
      13       -0.000022972941     0.000063981074    -0.000001796953

  **** Optimization is complete! (in 7 steps) ****
    Final optimized geometry and variables:
    Molecular point group: c1

    Geometry (in Angstrom), charge = 0, multiplicity = 1:

    H            3.189882549526    -0.591736416929    -1.242790497963
    C            2.467785975415    -0.827566396113    -0.469150392072
    C            1.389779500533     0.251589924376    -0.396865106055
    H            2.035237290331    -1.796211650592    -0.697081060320
    H            3.005766809151    -0.911972437134     0.470460806162
    C            0.362860105401    -0.021834326727     0.721170687003
    H            0.874984555102     0.335227624846    -1.347078104531
    H            1.843791370421     1.219888553863    -0.222947643914
    N           -1.013052028711     0.154012224405     0.194240708354
    H            0.407966275009    -1.039287121119     1.073408770055
    H            0.456729856146     0.666464220305     1.545417036771
    O           -1.597952268831    -0.824160399273    -0.155826306049
    O           -1.425888247939     1.271257673837     0.120944763528

  Mulliken Charges: (a.u.)
   Center  Symbol    Alpha    Beta     Spin     Total
       1     H     0.40949  0.40949  0.00000  0.18102
       2     C     3.24772  3.24772  0.00000 -0.49544
       3     C     3.17108  3.17108  0.00000 -0.34216
       4     H     0.41040  0.41040  0.00000  0.17921
       5     H     0.41648  0.41648  0.00000  0.16705
       6     C     3.08748  3.08748  0.00000 -0.17496
       7     H     0.39606  0.39606  0.00000  0.20788
       8     H     0.40301  0.40301  0.00000  0.19398
       9     N     3.22576  3.22576  0.00000  0.54847
      10     H     0.38647  0.38647  0.00000  0.22706
      11     H     0.38618  0.38618  0.00000  0.22764
      12     O     4.22914  4.22914  0.00000 -0.45827
      13     O     4.23074  4.23074  0.00000 -0.46148

   Total alpha = 24.00000, Total beta = 24.00000, Total charge =  0.00000
