  ==> Input File <==

--------------------------------------------------------------------------
set {
	reference rhf
	basis cc-pvtz
}

set_num_threads( 4 )
memory 2 gb

molecule MOL {
0 1

H	 -2.281709	 -0.136073	 0.666962
C	 -1.928933	 -0.600403	 -0.248238
O	 -0.775228	 0.000056	 -0.739966
H	 -2.691409	 -0.475601	 -1.004020
H	 -1.800950	 -1.663208	 -0.070197
C	 0.406133	 -0.000384	 0.036994
C	 1.526415	 -0.003194	 -0.997339
C	 0.498772	 1.259027	 0.900673
C	 0.495883	 -1.257378	 0.904465
H	 1.452279	 0.872071	 -1.630204
H	 1.451276	 -0.881020	 -1.626529
H	 2.497919	 -0.002741	 -0.517601
H	 0.368981	 2.144239	 0.289753
H	 1.470064	 1.313479	 1.377660
H	 -0.248448	 1.271586	 1.684297
H	 0.363971	 -2.144195	 0.296316
H	 1.467114	 -1.312636	 1.381470
H	 -0.251246	 -1.265768	 1.688235

	symmetry c1
}
set optking {
	frozen_dihedral = ("
		2 3 6 7
	")
}

ee = optimize('scf')
oeprop('DIPOLE', 'QUADRUPOLE', 'MULLIKEN_CHARGES')
f=open( 'psi4out.xyz', 'w' )
f.write( "18  " )
f.write( str(ee) + "\n" )
f.write( MOL.save_string_xyz() )
f.close()
--------------------------------------------------------------------------

    Molecular point group: c1
  Charge       = 0
  Multiplicity = 1
  Basis Set: CC-PVTZ
  Basis Set:
  @DF-RHF Final Energy:  -271.27389714840319
    Total Energy =                       -271.2738971484033073
    Molecular point group: c1
  Basis Set: CC-PVTZ
  Basis Set:
  Basis Set: CC-PVTZ
  Basis Set:
  @DF-RHF Final Energy:  -271.27454715491137
    Total Energy =                       -271.2745471549111471
  Basis Set: CC-PVTZ
  Basis Set:
  Basis Set: CC-PVTZ
  Basis Set:
  @DF-RHF Final Energy:  -271.27496618204663
    Total Energy =                       -271.2749661820469100
  Basis Set: CC-PVTZ
  Basis Set:
  Basis Set: CC-PVTZ
  Basis Set:
  @DF-RHF Final Energy:  -271.27499886860159
    Total Energy =                       -271.2749988686018696
  Basis Set: CC-PVTZ
  Basis Set:
  Basis Set: CC-PVTZ
  Basis Set:
  @DF-RHF Final Energy:  -271.27500207239268
    Total Energy =                       -271.2750020723926809
  Basis Set: CC-PVTZ
  Basis Set:
  Basis Set: CC-PVTZ
  Basis Set:
  @DF-RHF Final Energy:  -271.27500311971954
    Total Energy =                       -271.2750031197193152
  Basis Set: CC-PVTZ
  Basis Set:
  Charge       = 0
  Multiplicity = 1
  Basis Set: CC-PVTZ
  Basis Set:

    Orbital Energies (a.u.)
    -----------------------

    Doubly Occupied:

       1A    -20.539063     2A    -11.280354     3A    -11.259059
       4A    -11.210250     5A    -11.204257     6A    -11.201932
       7A     -1.371902     8A     -1.075006     9A     -0.949721
      10A     -0.938284    11A     -0.912402    12A     -0.752876
      13A     -0.657459    14A     -0.647962    15A     -0.639216
      16A     -0.588293    17A     -0.575418    18A     -0.552035
      19A     -0.537732    20A     -0.526070    21A     -0.515407
      22A     -0.492243    23A     -0.485527    24A     -0.441950
      25A     -0.403254

  @DF-RHF Final Energy:  -271.27500355133867

   => Energetics <=

    Nuclear Repulsion Energy =            272.5074818501242930
    One-Electron Energy =                -908.0496253885338547
    Two-Electron Energy =                 364.2671399870709479
    DFT Exchange-Correlation Energy =       0.0000000000000000
    Empirical Dispersion Energy =           0.0000000000000000
    PCM Polarization Energy =               0.0000000000000000
    EFP Energy =                            0.0000000000000000
    Total Energy =                       -271.2750035513386706
    Molecular point group: c1
  Basis Set: CC-PVTZ
  Basis Set:

  -Total Gradient:
     Atom            X                  Y                   Z
    ------   -----------------  -----------------  -----------------
       1        0.000004351851     0.000003808325     0.000003161403
       2        0.000844511702    -0.002887264915    -0.001424718990
       3       -0.001246698992     0.003571171176     0.002147869975
       4        0.000005426216     0.000000368120    -0.000005243707
       5       -0.000002879124     0.000009025959    -0.000002699255
       6        0.000458615609     0.001995376894    -0.000675235301
       7       -0.000053462479    -0.002688222080    -0.000035038803
       8       -0.000007441231     0.000009094171    -0.000004879177
       9        0.000005197233    -0.000009318827     0.000004529922
      10       -0.000000035866     0.000003912087     0.000000546007
      11        0.000003315006    -0.000000520715    -0.000007598658
      12       -0.000008825522    -0.000004767379     0.000001453744
      13        0.000002793527     0.000007573987    -0.000001036162
      14       -0.000002816406    -0.000008862071    -0.000005238289
      15        0.000000599311     0.000001812662    -0.000000732422
      16        0.000005791082     0.000000410055     0.000000477323
      17       -0.000002256657    -0.000001242030    -0.000000001078
      18       -0.000006185258    -0.000002355418     0.000004383469

  **** Optimization is complete! (in 7 steps) ****
    Final optimized geometry and variables:
    Molecular point group: c1

    Geometry (in Angstrom), charge = 0, multiplicity = 1:

    H           -2.248852203679    -0.071219486722     0.754837723791
    C           -1.960635800712    -0.462705240888    -0.217417146240
    O           -0.797771122627     0.121334397895    -0.705545424750
    H           -2.746652674271    -0.224855936385    -0.920209178520
    H           -1.883777456947    -1.542036157822    -0.145475941110
    C            0.397811872354     0.093920526999     0.055288995171
    C            1.517649801217     0.085996178158    -0.979957178211
    C            0.455575344348     1.356294681071     0.913921092261
    C            0.519129392055    -1.154285468121     0.932327833448
    H            1.414656683873     0.932349252930    -1.647376795629
    H            1.471935605717    -0.818199852369    -1.573698143127
    H            2.489622568176     0.139705437308    -0.503192043872
    H            0.389319226362     2.235934389589     0.286200058441
    H            1.380241947258     1.403465825116     1.477907345594
    H           -0.367131464029     1.382843108088     1.619323039218
    H            0.437337522107    -2.057324450065     0.339664326966
    H            1.488949132053    -1.159380562335     1.414056578739
    H           -0.232203963012    -1.185120954586     1.711125613997

  Mulliken Charges: (a.u.)
   Center  Symbol    Alpha    Beta     Spin     Total
       1     H     0.47038  0.47038  0.00000  0.05925
       2     C     3.04297  3.04297  0.00000 -0.08594
       3     O     4.19518  4.19518  0.00000 -0.39036
       4     H     0.44227  0.44227  0.00000  0.11547
       5     H     0.46701  0.46701  0.00000  0.06598
       6     C     2.87397  2.87397  0.00000  0.25207
       7     C     3.14069  3.14069  0.00000 -0.28138
       8     C     3.14847  3.14847  0.00000 -0.29694
       9     C     3.17450  3.17450  0.00000 -0.34901
      10     H     0.44755  0.44755  0.00000  0.10491
      11     H     0.45139  0.45139  0.00000  0.09721
      12     H     0.45929  0.45929  0.00000  0.08141
      13     H     0.44798  0.44798  0.00000  0.10405
      14     H     0.45382  0.45382  0.00000  0.09235
      15     H     0.45042  0.45042  0.00000  0.09916
      16     H     0.44520  0.44520  0.00000  0.10959
      17     H     0.44397  0.44397  0.00000  0.11207
      18     H     0.44494  0.44494  0.00000  0.11011

   Total alpha = 25.00000, Total beta = 25.00000, Total charge = -0.00000
