                              Psi4 1.0.54 Driver

  ==> Input File <==

--------------------------------------------------------------------------
set {
	reference rhf
	basis cc-pvtz
}

set_num_threads( 4 )
memory 2 gb

molecule MOL {
0 1

H	 -2.613114	 -0.044862	 -0.644133
O	 -2.041679	 -0.058866	 0.103463
C	 -0.959304	 0.780994	 -0.094939
C	 0.354905	 0.037902	 -0.006215
H	 -0.985899	 1.279578	 -1.057596
H	 -0.969809	 1.529522	 0.682889
F	 0.412060	 -0.931028	 -0.902708
F	 1.359641	 0.856111	 -0.239961
F	 0.545380	 -0.506387	 1.171682

	symmetry c1
}
set optking {
	frozen_dihedral = ("
		1 2 3 5
	")
}

ee,wfn = optimize('scf', return_wfn=True)
oeprop( wfn, 'DIPOLE', 'QUADRUPOLE', 'MULLIKEN_CHARGES')
f=open( 'psi4out.xyz', 'w' )
f.write( "9  " )
f.write( str(ee) + "\n" )
f.write( MOL.save_string_xyz() )
f.close()
--------------------------------------------------------------------------

    Molecular point group: c1
  Charge       = 0
  Multiplicity = 1
  Basis Set: CC-PVTZ
  Basis Set:
  @DF-RHF Final Energy:  -450.84424158652200
    Total Energy =                       -450.8442415865220028
    Molecular point group: c1
  Basis Set: CC-PVTZ
  Basis Set:
  Basis Set: CC-PVTZ
  Basis Set:
  @DF-RHF Final Energy:  -450.84475882688031
    Total Energy =                       -450.8447588268803088
  Basis Set: CC-PVTZ
  Basis Set:
  Basis Set: CC-PVTZ
  Basis Set:
  @DF-RHF Final Energy:  -450.84489201909173
    Total Energy =                       -450.8448920190917875
  Basis Set: CC-PVTZ
  Basis Set:
  Basis Set: CC-PVTZ
  Basis Set:
  @DF-RHF Final Energy:  -450.84489853371122
    Total Energy =                       -450.8448985337111026
  Basis Set: CC-PVTZ
  Basis Set:
  Charge       = 0
  Multiplicity = 1
  Basis Set: CC-PVTZ
  Basis Set:

    Orbital Energies (a.u.)
    -----------------------

    Doubly Occupied:

       1A    -26.334246     2A    -26.331868     3A    -26.330514
       4A    -20.582690     5A    -11.489176     6A    -11.310410
       7A     -1.742247     8A     -1.638750     9A     -1.637326
      10A     -1.406050    11A     -1.050062    12A     -0.924862
      13A     -0.833132    14A     -0.831630    15A     -0.794394
      16A     -0.742027    17A     -0.713620    18A     -0.703985
      19A     -0.669462    20A     -0.658944    21A     -0.643269
      22A     -0.637975    23A     -0.602223    24A     -0.535744
      25A     -0.483064

  @DF-RHF Final Energy:  -450.84489916236447

   => Energetics <=

    Nuclear Repulsion Energy =            277.5259380577545585
    One-Electron Energy =               -1177.4863334345504882
    Two-Electron Energy =                 449.1154962144316869
    DFT Exchange-Correlation Energy =       0.0000000000000000
    Empirical Dispersion Energy =           0.0000000000000000
    PCM Polarization Energy =               0.0000000000000000
    EFP Energy =                            0.0000000000000000
    Total Energy =                       -450.8448991623642996
    Molecular point group: c1
  Basis Set: CC-PVTZ
  Basis Set:

  -Total Gradient:
     Atom            X                  Y                   Z
    ------   -----------------  -----------------  -----------------
       1       -0.000740773092     0.001037247751     0.000527465681
       2        0.001106663034    -0.001546735532    -0.000837894757
       3       -0.001006798048     0.001408080384     0.000764216036
       4        0.000067998553     0.000179473726     0.000122039261
       5        0.000616078596    -0.000926602596    -0.000449885022
       6        0.000002634997    -0.000015402026    -0.000022051421
       7        0.000013215103    -0.000017007325    -0.000015730005
       8       -0.000051547753    -0.000103984324    -0.000034125135
       9       -0.000007471388    -0.000015070061    -0.000054034642

  **** Optimization is complete! (in 5 steps) ****
    Final optimized geometry and variables:
    Molecular point group: c1

    Geometry (in Angstrom), charge = 0, multiplicity = 1:

    H           -2.584243664630    -0.096959417620    -0.619759910300
    O           -2.016185092228    -0.064741591973     0.126038822647
    C           -0.947959144689     0.792129631054    -0.098389265587
    C            0.353269938272     0.027080677589    -0.013757757416
    H           -0.976272900936     1.251867843610    -1.078112538724
    H           -0.921730584513     1.569647752366     0.653640458640
    F            0.429837303502    -0.907170874932    -0.936917586542
    F            1.367787435807     0.850842365830    -0.195832853612
    F            0.513216821667    -0.551136405161     1.152867247011

  Mulliken Charges: (a.u.)
   Center  Symbol    Alpha    Beta     Spin     Total
       1     H     0.38563  0.38563  0.00000  0.22874
       2     O     4.19170  4.19170  0.00000 -0.38340
       3     C     2.99129  2.99129  0.00000  0.01742
       4     C     2.67724  2.67724  0.00000  0.64553
       5     H     0.46245  0.46245  0.00000  0.07510
       6     H     0.45632  0.45632  0.00000  0.08736
       7     F     4.61286  4.61286  0.00000 -0.22572
       8     F     4.61462  4.61462  0.00000 -0.22925
       9     F     4.60789  4.60789  0.00000 -0.21579

   Total alpha = 25.00000, Total beta = 25.00000, Total charge = -0.00000

*** Psi4 exiting successfully. Buy a developer a beer!
