                              Psi4 1.0.54 Driver

  ==> Input File <==

--------------------------------------------------------------------------
set {
	reference rhf
	basis cc-pvtz
}

set_num_threads( 4 )
memory 2 gb

molecule MOL {
0 1

H	 2.342730	 0.877684	 -1.045694
C	 2.360424	 0.000000	 -0.411793
C	 1.173749	 0.000000	 0.526870
H	 3.286567	 0.000000	 0.151574
H	 2.342730	 -0.877684	 -1.045694
O	 0.000000	 0.000000	 -0.223739
H	 1.203779	 0.876757	 1.172538
H	 1.203779	 -0.876757	 1.172538
C	 -1.173749	 0.000000	 0.526870
C	 -1.604015	 1.429876	 0.771026
H	 -1.010650	 -0.511676	 1.474540
H	 -1.955203	 -0.543695	 -0.002486
H	 -0.836125	 1.970321	 1.310227
H	 -2.517280	 1.454218	 1.354529
H	 -1.781677	 1.938268	 -0.168360

	symmetry c1
}
set optking {
	frozen_dihedral = ("
		11 9 6 3
	")
}

ee,wfn = optimize('scf', return_wfn=True)
oeprop( wfn, 'DIPOLE', 'QUADRUPOLE', 'MULLIKEN_CHARGES')
f=open( 'psi4out.xyz', 'w' )
f.write( "15  " )
f.write( str(ee) + "\n" )
f.write( MOL.save_string_xyz() )
f.close()
--------------------------------------------------------------------------

    Molecular point group: c1
  Charge       = 0
  Multiplicity = 1
  Basis Set: CC-PVTZ
  Basis Set:
  @DF-RHF Final Energy:  -232.22932837456645
    Total Energy =                       -232.2293283745664212
    Molecular point group: c1
  Basis Set: CC-PVTZ
  Basis Set:
  Basis Set: CC-PVTZ
  Basis Set:
  @DF-RHF Final Energy:  -232.22805375086222
    Total Energy =                       -232.2280537508623297
  Basis Set: CC-PVTZ
  Basis Set:
  Basis Set: CC-PVTZ
  Basis Set:
  @DF-RHF Final Energy:  -232.23046928410622
    Total Energy =                       -232.2304692841060501
  Basis Set: CC-PVTZ
  Basis Set:
  Basis Set: CC-PVTZ
  Basis Set:
  @DF-RHF Final Energy:  -232.23051986017893
    Total Energy =                       -232.2305198601789016
  Basis Set: CC-PVTZ
  Basis Set:
  Charge       = 0
  Multiplicity = 1
  Basis Set: CC-PVTZ
  Basis Set:

    Orbital Energies (a.u.)
    -----------------------

    Doubly Occupied:

       1A    -20.543121     2A    -11.266416     3A    -11.266055
       4A    -11.208299     5A    -11.206874     6A     -1.377600
       7A     -1.042023     8A     -0.985937     9A     -0.859274
      10A     -0.816913    11A     -0.673234    12A     -0.652703
      13A     -0.641932    14A     -0.572492    15A     -0.553884
      16A     -0.543036    17A     -0.523522    18A     -0.501433
      19A     -0.488067    20A     -0.460681    21A     -0.408925

  @DF-RHF Final Energy:  -232.23052276825914

   => Energetics <=

    Nuclear Repulsion Energy =            192.4785824333140170
    One-Electron Energy =                -696.2333698022127919
    Two-Electron Energy =                 271.5242646006395262
    DFT Exchange-Correlation Energy =       0.0000000000000000
    Empirical Dispersion Energy =           0.0000000000000000
    PCM Polarization Energy =               0.0000000000000000
    EFP Energy =                            0.0000000000000000
    Total Energy =                       -232.2305227682592204
    Molecular point group: c1
  Basis Set: CC-PVTZ
  Basis Set:

  -Total Gradient:
     Atom            X                  Y                   Z
    ------   -----------------  -----------------  -----------------
       1        0.000000380180     0.000035794233    -0.000014537512
       2       -0.000064133895     0.000000311345    -0.000010340401
       3       -0.000059301353    -0.000790129871     0.000056684667
       4        0.000021182903    -0.000007333289     0.000027115266
       5        0.000001878263    -0.000037745065    -0.000040829039
       6        0.000181508300     0.001428384707     0.000112745923
       7       -0.000026345623     0.000046657320     0.000014556012
       8       -0.000008082693    -0.000032736469     0.000007049123
       9       -0.000509368327    -0.001356851942    -0.000509314782
      10        0.000038773909    -0.000022769715    -0.000069153298
      11        0.000423953674     0.000706733739     0.000496335646
      12       -0.000039572752    -0.000004758676    -0.000043626209
      13        0.000039755170     0.000016796182     0.000020482089
      14        0.000003905381    -0.000038106584    -0.000014039514
      15       -0.000004533137     0.000055754084    -0.000033127968

  **** Optimization is complete! (in 5 steps) ****
    Final optimized geometry and variables:
    Molecular point group: c1

    Geometry (in Angstrom), charge = 0, multiplicity = 1:

    H            2.202959647813     0.354953060010    -1.366620705056
    C            2.119413607627    -0.568231542044    -0.806736171466
    C            1.005548671761    -0.472020739534     0.212799146157
    H            3.065912118615    -0.759792193317    -0.313709829750
    H            1.924946238697    -1.372735091988    -1.505084327319
    O           -0.197284825332    -0.241796837865    -0.455358723002
    H            1.214203770059     0.331213107397     0.916913688521
    H            0.939582163518    -1.395518196987     0.785740424069
    C           -1.329233436860    -0.094606366527     0.351240295087
    C           -1.609418941503     1.360345491046     0.689619280472
    H           -1.219223765710    -0.674464102260     1.264828863678
    H           -2.163996979310    -0.510100563189    -0.199368966006
    H           -0.796594801328     1.799573783346     1.256147349323
    H           -2.513802991382     1.441048736187     1.283325925561
    H           -1.741292130460     1.938479536052    -0.216729283991

  Mulliken Charges: (a.u.)
   Center  Symbol    Alpha    Beta     Spin     Total
       1     H     0.45164  0.45164  0.00000  0.09673
       2     C     3.13626  3.13626  0.00000 -0.27252
       3     C     2.96712  2.96712  0.00000  0.06576
       4     H     0.45928  0.45928  0.00000  0.08143
       5     H     0.45123  0.45123  0.00000  0.09754
       6     O     4.18478  4.18478  0.00000 -0.36955
       7     H     0.47368  0.47368  0.00000  0.05264
       8     H     0.47049  0.47049  0.00000  0.05902
       9     C     2.98061  2.98061  0.00000  0.03878
      10     C     3.13973  3.13973  0.00000 -0.27946
      11     H     0.47179  0.47179  0.00000  0.05642
      12     H     0.45085  0.45085  0.00000  0.09830
      13     H     0.45672  0.45672  0.00000  0.08656
      14     H     0.45495  0.45495  0.00000  0.09009
      15     H     0.45088  0.45088  0.00000  0.09824

   Total alpha = 21.00000, Total beta = 21.00000, Total charge =  0.00000

*** Psi4 exiting successfully. Buy a developer a beer!
