                              Psi4 1.0.54 Driver

  ==> Input File <==

--------------------------------------------------------------------------
set {
	reference rhf
	basis cc-pvtz
}

set_num_threads( 4 )
memory 2 gb

molecule MOL {
0 1

H	 -2.588028	 -0.502302	 -0.186332
N	 -1.851927	 0.161443	 -0.071573
C	 -0.561396	 -0.500007	 0.035200
H	 -2.053496	 0.685169	 0.754513
C	 0.575129	 0.507849	 -0.048832
H	 -0.478089	 -1.200753	 -0.788956
H	 -0.456191	 -1.081816	 0.952176
C	 1.951750	 -0.141983	 0.035101
H	 0.478254	 1.061643	 -0.975981
H	 0.467676	 1.231891	 0.755499
H	 2.101550	 -0.848142	 -0.774949
H	 2.738260	 0.600794	 -0.026526
H	 2.078939	 -0.679792	 0.968824

	symmetry c1
}
set optking {
	frozen_dihedral = ("
		1 2 3 6
	")
}

ee,wfn = optimize('scf', return_wfn=True)
oeprop( wfn, 'DIPOLE', 'QUADRUPOLE', 'MULLIKEN_CHARGES')
f=open( 'psi4out.xyz', 'w' )
f.write( "13  " )
f.write( str(ee) + "\n" )
f.write( MOL.save_string_xyz() )
f.close()
--------------------------------------------------------------------------

    Molecular point group: c1
  Charge       = 0
  Multiplicity = 1
  Basis Set: CC-PVTZ
  Basis Set:
  @DF-RHF Final Energy:  -173.35249844637534
    Total Energy =                       -173.3524984463753356
    Molecular point group: c1
  Basis Set: CC-PVTZ
  Basis Set:
  Basis Set: CC-PVTZ
  Basis Set:
  @DF-RHF Final Energy:  -173.35251188596595
    Total Energy =                       -173.3525118859660381
  Basis Set: CC-PVTZ
  Basis Set:
  Basis Set: CC-PVTZ
  Basis Set:
  @DF-RHF Final Energy:  -173.35251370330695
    Total Energy =                       -173.3525137033069257
  Basis Set: CC-PVTZ
  Basis Set:
  Charge       = 0
  Multiplicity = 1
  Basis Set: CC-PVTZ
  Basis Set:

    Orbital Energies (a.u.)
    -----------------------

    Doubly Occupied:

       1A    -15.526488     2A    -11.238436     3A    -11.209419
       4A    -11.206542     5A     -1.178110     6A     -1.035979
       7A     -0.899255     8A     -0.799357     9A     -0.666127
      10A     -0.627895    11A     -0.604289    12A     -0.567424
      13A     -0.529319    14A     -0.492189    15A     -0.478820
      16A     -0.468322    17A     -0.383422

  @DF-RHF Final Energy:  -173.35251383281914

   => Energetics <=

    Nuclear Repulsion Energy =            131.9398663031569470
    One-Electron Energy =                -494.7619726951792245
    Two-Electron Energy =                 189.4695925592033063
    DFT Exchange-Correlation Energy =       0.0000000000000000
    Empirical Dispersion Energy =           0.0000000000000000
    PCM Polarization Energy =               0.0000000000000000
    EFP Energy =                            0.0000000000000000
    Total Energy =                       -173.3525138328189996
    Molecular point group: c1
  Basis Set: CC-PVTZ
  Basis Set:

  -Total Gradient:
     Atom            X                  Y                   Z
    ------   -----------------  -----------------  -----------------
       1        0.000109148656     0.000043739619    -0.000883738486
       2       -0.000224857384    -0.000160331170     0.001214844360
       3        0.000467589547     0.000706137890    -0.000772293470
       4        0.000008144103    -0.000005340284    -0.000010463651
       5       -0.000015523858    -0.000004349418    -0.000007603371
       6       -0.000329318940    -0.000568721314     0.000454756206
       7        0.000001477739    -0.000000390163    -0.000001269460
       8       -0.000008042478    -0.000002034660     0.000010811700
       9       -0.000005607459    -0.000004295651    -0.000002163458
      10        0.000000371962    -0.000007966993    -0.000003271939
      11       -0.000004028593     0.000004575853     0.000000026935
      12        0.000000960124     0.000001674628     0.000001747911
      13       -0.000000313420    -0.000002698338    -0.000001383276

  **** Optimization is complete! (in 4 steps) ****
    Final optimized geometry and variables:
    Molecular point group: c1

    Geometry (in Angstrom), charge = 0, multiplicity = 1:

    H           -2.586766884143    -0.515831032060    -0.178445115584
    N           -1.853275650426     0.150970269427    -0.068849458855
    C           -0.557639149276    -0.500964105101     0.032233552663
    H           -2.053579684825     0.686865206371     0.749102252537
    C            0.573666589870     0.512814378281    -0.049687603942
    H           -0.473828731870    -1.202605652600    -0.791007848218
    H           -0.447942340876    -1.085716572381     0.946966461172
    C            1.953489181081    -0.129337808364     0.039981018641
    H            0.476237080704     1.064933874935    -0.977669411543
    H            0.458596746077     1.237228972555     0.753026722730
    H            2.109280628287    -0.837412296474    -0.767373856211
    H            2.736288857870     0.617347250858    -0.021972113719
    H            2.081078355597    -0.663539600818     0.975766664804

  Mulliken Charges: (a.u.)
   Center  Symbol    Alpha    Beta     Spin     Total
       1     H     0.42887  0.42887  0.00000  0.14226
       2     N     3.69114  3.69114  0.00000 -0.38227
       3     C     3.02412  3.02412  0.00000 -0.04825
       4     H     0.43031  0.43031  0.00000  0.13937
       5     C     3.07579  3.07579  0.00000 -0.15158
       6     H     0.45738  0.45738  0.00000  0.08524
       7     H     0.46927  0.46927  0.00000  0.06146
       8     C     3.15314  3.15314  0.00000 -0.30629
       9     H     0.44978  0.44978  0.00000  0.10044
      10     H     0.45999  0.45999  0.00000  0.08003
      11     H     0.45539  0.45539  0.00000  0.08922
      12     H     0.44777  0.44777  0.00000  0.10446
      13     H     0.45705  0.45705  0.00000  0.08591

   Total alpha = 17.00000, Total beta = 17.00000, Total charge = -0.00000

*** Psi4 exiting successfully. Buy a developer a beer!
