  ==> Input File <==

--------------------------------------------------------------------------
set {
	reference rhf
	basis 6-31G*
}

set_num_threads( 1 )
memory 2 gb

molecule MOL {
0 1

H	 3.759537	 -0.230507	 0.749350
O	 2.857837	 -0.426989	 0.984053
C	 2.077727	 -0.067559	 -0.035091
C	 0.624473	 -0.343591	 0.253101
O	 2.518352	 0.408664	 -1.030117
C	 -0.265902	 0.883932	 0.072916
H	 0.324016	 -1.163849	 -0.390541
H	 0.565024	 -0.726111	 1.268924
C	 -1.728698	 0.646073	 0.462102
H	 -0.209144	 1.219470	 -0.958188
H	 0.135059	 1.692851	 0.673903
C	 -2.482460	 -0.343073	 -0.431425
H	 -2.245265	 1.602650	 0.432430
H	 -1.779332	 0.308348	 1.496285
C	 -3.960546	 -0.461025	 -0.060175
H	 -2.395034	 -0.026811	 -1.468912
H	 -2.024850	 -1.327147	 -0.371646
H	 -4.472726	 -1.168004	 -0.705284
H	 -4.465146	 0.496508	 -0.151489
H	 -4.081218	 -0.800940	 0.964585

	symmetry c1
}
set optking {
	frozen_dihedral = ("
		16 12 9 6,
		7 4 6 10,
		12 9 6 10,
		1 2 3 5
	")
}

ee = energy('scf')
oeprop('DIPOLE', 'QUADRUPOLE', 'MULLIKEN_CHARGES')
f=open( 'psi4out.xyz', 'w' )
f.write( "20  " )
f.write( str(ee) + "\n" )
f.write( MOL.save_string_xyz() )
f.close()
--------------------------------------------------------------------------

    Molecular point group: c1

    Geometry (in Angstrom), charge = 0, multiplicity = 1:

       Center              X                  Y                   Z               Mass
    ------------   -----------------  -----------------  -----------------  -----------------
           H          3.758282944421    -0.259447045951     0.715307251260     1.007825032070
           O          2.856582944421    -0.455929045951     0.950010251260    15.994914619560
           C          2.076472944421    -0.096499045951    -0.069133748740    12.000000000000
           C          0.623218944421    -0.372531045951     0.219058251260    12.000000000000
           O          2.517097944421     0.379723954049    -1.064159748740    15.994914619560
           C         -0.267156055579     0.854991954049     0.038873251260    12.000000000000
           H          0.322761944421    -1.192789045951    -0.424583748740     1.007825032070
           H          0.563769944421    -0.755051045951     1.234881251260     1.007825032070
           C         -1.729952055579     0.617132954049     0.428059251260    12.000000000000
           H         -0.210398055579     1.190529954049    -0.992230748740     1.007825032070
           H          0.133804944421     1.663910954049     0.639860251260     1.007825032070
           C         -2.483714055579    -0.372013045951    -0.465467748740    12.000000000000
           H         -2.246519055579     1.573709954049     0.398387251260     1.007825032070
           H         -1.780586055579     0.279407954049     1.462242251260     1.007825032070
           C         -3.961800055579    -0.489965045951    -0.094217748740    12.000000000000
           H         -2.396288055579    -0.055751045951    -1.502954748740     1.007825032070
           H         -2.026104055579    -1.356087045951    -0.405688748740     1.007825032070
           H         -4.473980055579    -1.196944045951    -0.739326748740     1.007825032070
           H         -4.466400055579     0.467567954049    -0.185531748740     1.007825032070
           H         -4.082472055579    -0.829880045951     0.930542251260     1.007825032070

  Charge       = 0
  Multiplicity = 1
  Basis Set: 6-31G*
  Basis Set:

    Orbital Energies (a.u.)
    -----------------------

    Doubly Occupied:

       1A    -20.613553     2A    -20.549278     3A    -11.380506
       4A    -11.238449     5A    -11.229544     6A    -11.223182
       7A    -11.221433     8A    -11.213295     9A     -1.474186
      10A     -1.364573    11A     -1.098485    12A     -1.041810
      13A     -0.961814    14A     -0.868814    15A     -0.819172
      16A     -0.782357    17A     -0.701280    18A     -0.687517
      19A     -0.655051    20A     -0.631411    21A     -0.612596
      22A     -0.594686    23A     -0.577377    24A     -0.557317
      25A     -0.538692    26A     -0.517530    27A     -0.495975
      28A     -0.483145    29A     -0.470949    30A     -0.468507
      31A     -0.460169    32A     -0.438242

  @DF-RHF Final Energy:  -383.94658522993024

   => Energetics <=

    Nuclear Repulsion Energy =            375.7104986806122611
    One-Electron Energy =               -1267.3724889651989542
    Two-Electron Energy =                 507.7154050546573671
    DFT Exchange-Correlation Energy =       0.0000000000000000
    Empirical Dispersion Energy =           0.0000000000000000
    PCM Polarization Energy =               0.0000000000000000
    EFP Energy =                            0.0000000000000000
    Total Energy =                       -383.9465852299292692

  Mulliken Charges: (a.u.)
   Center  Symbol    Alpha    Beta     Spin     Total
       1     H     0.26874  0.26874  0.00000  0.46253
       2     O     4.34859  4.34859  0.00000 -0.69718
       3     C     2.62475  2.62475  0.00000  0.75050
       4     C     3.21104  3.21104  0.00000 -0.42207
       5     O     4.27937  4.27937  0.00000 -0.55873
       6     C     3.16115  3.16115  0.00000 -0.32231
       7     H     0.39713  0.39713  0.00000  0.20574
       8     H     0.39940  0.39940  0.00000  0.20120
       9     C     3.15457  3.15457  0.00000 -0.30915
      10     H     0.40557  0.40557  0.00000  0.18886
      11     H     0.41347  0.41347  0.00000  0.17306
      12     C     3.15491  3.15491  0.00000 -0.30982
      13     H     0.41773  0.41773  0.00000  0.16454
      14     H     0.42211  0.42211  0.00000  0.15578
      15     C     3.23951  3.23951  0.00000 -0.47902
      16     H     0.42009  0.42009  0.00000  0.15983
      17     H     0.42226  0.42226  0.00000  0.15548
      18     H     0.41780  0.41780  0.00000  0.16440
      19     H     0.42063  0.42063  0.00000  0.15874
      20     H     0.42118  0.42118  0.00000  0.15764

   Total alpha = 32.00000, Total beta = 32.00000, Total charge =  0.00000
