  ==> Input File <==

--------------------------------------------------------------------------
set {
	reference rhf
	basis 6-31G*
}

set_num_threads( 4 )
memory 2 gb

molecule MOL {
0 1

H	 -3.448398	 -0.644163	 -0.694648
O	 -3.116345	 -0.173231	 0.057402
C	 -1.777121	 -0.063496	 0.007364
C	 -1.028346	 -0.593430	 -1.039300
C	 -1.152057	 0.607161	 1.051194
H	 -1.520645	 -1.111786	 -1.844446
C	 0.343287	 -0.450462	 -1.037870
H	 -1.751293	 1.006989	 1.847011
C	 0.220566	 0.741993	 1.038431
H	 0.933405	 -0.854306	 -1.838976
C	 0.984182	 0.218375	 0.000000
H	 0.705445	 1.261623	 1.847096
C	 2.452467	 0.370529	 0.000000
O	 3.228994	 -0.533774	 0.000000
H	 2.809473	 1.405765	 0.000000

	symmetry c1
}
set optking {
	frozen_dihedral = ("
		7 11 13 14
	")
}

ee = optimize('scf')
oeprop('DIPOLE', 'QUADRUPOLE', 'MULLIKEN_CHARGES')
f=open( 'psi4out.xyz', 'w' )
f.write( "15  " )
f.write( str(ee) + "\n" )
f.write( MOL.save_string_xyz() )
f.close()
--------------------------------------------------------------------------

    Molecular point group: c1
  Charge       = 0
  Multiplicity = 1
  Basis Set: 6-31G*
  Basis Set:
  @DF-RHF Final Energy:  -418.27754473019087
    Total Energy =                       -418.2775447301910390
    Molecular point group: c1
  Basis Set: 6-31G*
  Basis Set:
  Basis Set: 6-31G*
  Basis Set:
  @DF-RHF Final Energy:  -418.27706761560103
    Total Energy =                       -418.2770676156007994
  Basis Set: 6-31G*
  Basis Set:
  Basis Set: 6-31G*
  Basis Set:
  @DF-RHF Final Energy:  -418.27814481218087
    Total Energy =                       -418.2781448121810399
  Basis Set: 6-31G*
  Basis Set:
  Basis Set: 6-31G*
  Basis Set:
  @DF-RHF Final Energy:  -418.27854716956688
    Total Energy =                       -418.2785471695666502
  Basis Set: 6-31G*
  Basis Set:
  @DF-RHF Final Energy:  -418.27855100959141
    Total Energy =                       -418.2785510095916379
  @DF-RHF Final Energy:  -418.27855282648432
    Total Energy =                       -418.2785528264838604
  @DF-RHF Final Energy:  -418.27256418871269
    Total Energy =                       -418.2725641887126358
  Basis Set: 6-31G*
  Basis Set:
  @DF-RHF Final Energy:  -418.27553278033281
    Total Energy =                       -418.2755327803326963
  Basis Set: 6-31G*
  Basis Set:
  Basis Set: 6-31G*
  Basis Set:
  @DF-RHF Final Energy:  -418.27849561350070
    Total Energy =                       -418.2784956135008088
  Basis Set: 6-31G*
  Basis Set:
  Basis Set: 6-31G*
  Basis Set:
  @DF-RHF Final Energy:  -418.27855254686904
    Total Energy =                       -418.2785525468691503
  Basis Set: 6-31G*
  Basis Set:
  Charge       = 0
  Multiplicity = 1
  Basis Set: 6-31G*
  Basis Set:

    Orbital Energies (a.u.)
    -----------------------

    Doubly Occupied:

       1A    -20.605858     2A    -20.566231     3A    -11.332396
       4A    -11.316906     5A    -11.256375     6A    -11.256317
       7A    -11.243340     8A    -11.242817     9A    -11.238471
      10A     -1.426019    11A     -1.405443    12A     -1.169350
      13A     -1.038996    14A     -1.037405    15A     -0.887160
      16A     -0.863943    17A     -0.797464    18A     -0.753736
      19A     -0.710870    20A     -0.670501    21A     -0.649973
      22A     -0.628812    23A     -0.606329    24A     -0.603741
      25A     -0.588467    26A     -0.561448    27A     -0.532622
      28A     -0.504191    29A     -0.489529    30A     -0.421137
      31A     -0.355541    32A     -0.324591

  @DF-RHF Final Energy:  -418.27855298364216

   => Energetics <=

    Nuclear Repulsion Energy =            400.3210176047937239
    One-Electron Energy =               -1363.0271793287504352
    Two-Electron Energy =                 544.4276087403145539
    DFT Exchange-Correlation Energy =       0.0000000000000000
    Empirical Dispersion Energy =           0.0000000000000000
    PCM Polarization Energy =               0.0000000000000000
    EFP Energy =                            0.0000000000000000
    Total Energy =                       -418.2785529836421574
    Molecular point group: c1
  Basis Set: 6-31G*
  Basis Set:

  -Total Gradient:
     Atom            X                  Y                   Z
    ------   -----------------  -----------------  -----------------
       1       -0.000002262753    -0.000018748061     0.000014049323
       2       -0.000007405060     0.000016166541    -0.000032236287
       3       -0.000023570709    -0.000022319909     0.000044815894
       4        0.000013774085    -0.000013522975    -0.000010156887
       5       -0.000042214062     0.000028799290    -0.000024485186
       6       -0.000012772585     0.000003902902    -0.000002802196
       7       -0.000939245333     0.006092520567    -0.003219356960
       8       -0.000000207211    -0.000012145539     0.000005145215
       9        0.000074158063    -0.000028954650     0.000007342060
      10        0.000000743764     0.000023355874    -0.000003919720
      11        0.001460700506    -0.009111239428     0.008539143670
      12        0.000009496956     0.000010419387    -0.000009499726
      13       -0.000798106973     0.003410377021    -0.013794270805
      14        0.000255784077    -0.000381326781     0.008470118831
      15        0.000011127228     0.000002715760     0.000016112774

  **** Optimization is complete! (in 11 steps) ****
    Final optimized geometry and variables:
    Molecular point group: c1

    Geometry (in Angstrom), charge = 0, multiplicity = 1:

    H           -3.463940889017    -0.636063321321    -0.686863259625
    O           -3.130132979660    -0.155152327886     0.057757033543
    C           -1.786120376959    -0.062823614115     0.008948499448
    C           -1.039841050643    -0.592663390318    -1.032449154274
    C           -1.154284242552     0.606371062204     1.050546122622
    H           -1.530482040108    -1.095128282443    -1.848611679442
    C            0.339265118337    -0.471708516863    -1.019875847894
    H           -1.750522885072     1.018783524169     1.842523613135
    C            0.217872744707     0.741011846711     1.038040724013
    H            0.916965837081    -0.891220370445    -1.823510530507
    C            0.983956588108     0.171675737926     0.024692204039
    H            0.699029559778     1.282536584149     1.834437873872
    C            2.460289098404     0.381916358251    -0.006880330966
    O            3.261713909969    -0.494664547918    -0.067999845238
    H            2.788980458639     1.420897492889     0.094190096255

  Mulliken Charges: (a.u.)
   Center  Symbol    Alpha    Beta     Spin     Total
       1     H     0.26955  0.26955  0.00000  0.46091
       2     O     4.37513  4.37513  0.00000 -0.75027
       3     C     2.79014  2.79014  0.00000  0.41971
       4     C     3.14399  3.14399  0.00000 -0.28798
       5     C     3.12301  3.12301  0.00000 -0.24603
       6     H     0.39901  0.39901  0.00000  0.20197
       7     C     3.08938  3.08938  0.00000 -0.17876
       8     H     0.38669  0.38669  0.00000  0.22662
       9     C     3.09617  3.09617  0.00000 -0.19233
      10     H     0.38424  0.38424  0.00000  0.23153
      11     C     3.04763  3.04763  0.00000 -0.09525
      12     H     0.39099  0.39099  0.00000  0.21801
      13     C     2.84801  2.84801  0.00000  0.30398
      14     O     4.23149  4.23149  0.00000 -0.46298
      15     H     0.42456  0.42456  0.00000  0.15087

   Total alpha = 32.00000, Total beta = 32.00000, Total charge = -0.00000
