                              Psi4 1.0.54 Driver

  ==> Input File <==

--------------------------------------------------------------------------
set {
	reference rhf
	basis cc-pvtz
}

set_num_threads( 4 )
memory 2 gb

molecule MOL {
0 1

H	 3.808265	 4.738066	 -1.656742
C	 3.299249	 3.853382	 -1.324458
C	 1.973309	 3.924737	 -0.936602
C	 3.970717	 2.646076	 -1.285387
H	 1.452764	 4.862179	 -0.967192
C	 1.319897	 2.787489	 -0.509736
H	 4.998982	 2.591796	 -1.586380
C	 3.317822	 1.506455	 -0.858199
H	 0.293565	 2.824752	 -0.205906
C	 1.989525	 1.574305	 -0.468924
H	 3.834931	 0.569898	 -0.826744
C	 1.238974	 0.374429	 0.000004
O	 1.968286	 -0.725612	 -0.000027
O	 0.103535	 0.398048	 0.339707
C	 3.373556	 -0.568203	 0.000011
H	 3.695416	 -0.031588	 -0.879663
H	 3.782700	 -1.565294	 -0.000152
H	 3.695405	 -0.031851	 0.879862

	symmetry c1
}
set optking {
	frozen_dihedral = ("
		10 12 13 15
	")
}

ee,wfn = optimize('scf', return_wfn=True)
oeprop( wfn, 'DIPOLE', 'QUADRUPOLE', 'MULLIKEN_CHARGES')
f=open( 'psi4out.xyz', 'w' )
f.write( "18  " )
f.write( str(ee) + "\n" )
f.write( MOL.save_string_xyz() )
f.close()
--------------------------------------------------------------------------

    Molecular point group: c1
  Charge       = 0
  Multiplicity = 1
  Basis Set: CC-PVTZ
  Basis Set:
  @DF-RHF Final Energy:  -457.22681981154699
    Total Energy =                       -457.2268198115467612
    Molecular point group: c1
  Basis Set: CC-PVTZ
  Basis Set:
  Basis Set: CC-PVTZ
  Basis Set:
  @DF-RHF Final Energy:  -457.35695795329599
    Total Energy =                       -457.3569579532955913
  Basis Set: CC-PVTZ
  Basis Set:
  Basis Set: CC-PVTZ
  Basis Set:
  @DF-RHF Final Energy:  -457.41080219245663
    Total Energy =                       -457.4108021924569130
  Basis Set: CC-PVTZ
  Basis Set:
  Basis Set: CC-PVTZ
  Basis Set:
  @DF-RHF Final Energy:  -457.44638567165958
    Total Energy =                       -457.4463856716593000
  Basis Set: CC-PVTZ
  Basis Set:
  @DF-RHF Final Energy:  -457.46566079353897
    Total Energy =                       -457.4656607935387456
  @DF-RHF Final Energy:  -457.47504141271042
    Total Energy =                       -457.4750414127104250
  @DF-RHF Final Energy:  -457.47724096204740
    Total Energy =                       -457.4772409620477447
  @DF-RHF Final Energy:  -457.48080792137455
    Total Energy =                       -457.4808079213744350
  @DF-RHF Final Energy:  -457.48213420785225
    Total Energy =                       -457.4821342078523685
  @DF-RHF Final Energy:  -457.48280703992396
    Total Energy =                       -457.4828070399239550
  @DF-RHF Final Energy:  -457.48366538114573
    Total Energy =                       -457.4836653811462384
  @DF-RHF Final Energy:  -457.48442620094283
    Total Energy =                       -457.4844262009434033
  @DF-RHF Final Energy:  -457.45586076334115
    Total Energy =                       -457.4558607633407519
  @DF-RHF Final Energy:  -457.48534876871992
    Total Energy =                       -457.4853487687199731
  @DF-RHF Final Energy:  -457.48603614547750
    Total Energy =                       -457.4860361454780104
  @DF-RHF Final Energy:  -457.48704235724745
    Total Energy =                       -457.4870423572474465
  @DF-RHF Final Energy:  -457.48773080365726
    Total Energy =                       -457.4877308036573140
  @DF-RHF Final Energy:  -457.48811080113950
    Total Energy =                       -457.4881108011389870
  @DF-RHF Final Energy:  -457.48803205008670
    Total Energy =                       -457.4880320500864173
  @DF-RHF Final Energy:  -457.48827960680512
    Total Energy =                       -457.4882796068052357
  @DF-RHF Final Energy:  -457.48836330045361
    Total Energy =                       -457.4883633004533294
  @DF-RHF Final Energy:  -457.48850140306428
    Total Energy =                       -457.4885014030642196
  @DF-RHF Final Energy:  -457.48860472635698
    Total Energy =                       -457.4886047263570390
  @DF-RHF Final Energy:  -457.48868045168564
    Total Energy =                       -457.4886804516859229
  @DF-RHF Final Energy:  -457.48873883794965
    Total Energy =                       -457.4887388379493132
  @DF-RHF Final Energy:  -457.48824465157742
    Total Energy =                       -457.4882446515773609
  @DF-RHF Final Energy:  -457.48880103204635
    Total Energy =                       -457.4888010320464673
  Basis Set: CC-PVTZ
  Basis Set:
  @DF-RHF Final Energy:  -457.48881998633124
    Total Energy =                       -457.4888199863307818
  Basis Set: CC-PVTZ
  Basis Set:
  Basis Set: CC-PVTZ
  Basis Set:
  @DF-RHF Final Energy:  -457.48882561318823
    Total Energy =                       -457.4888256131885100
  Basis Set: CC-PVTZ
  Basis Set:
  Basis Set: CC-PVTZ
  Basis Set:
  @DF-RHF Final Energy:  -457.48882672508381
    Total Energy =                       -457.4888267250831859
  Basis Set: CC-PVTZ
  Basis Set:
  Charge       = 0
  Multiplicity = 1
  Basis Set: CC-PVTZ
  Basis Set:

    Orbital Energies (a.u.)
    -----------------------

    Doubly Occupied:

       1A    -20.597128     2A    -20.532118     3A    -11.373928
       4A    -11.291787     5A    -11.255554     6A    -11.251691
       7A    -11.247643     8A    -11.247276     9A    -11.245136
      10A    -11.243328    11A     -1.468959    12A     -1.370434
      13A     -1.178221    14A     -1.051174    15A     -1.037084
      16A     -0.987948    17A     -0.879225    18A     -0.849320
      19A     -0.788308    20A     -0.741540    21A     -0.693268
      22A     -0.681548    23A     -0.677992    24A     -0.643482
      25A     -0.633859    26A     -0.607478    27A     -0.600665
      28A     -0.568542    29A     -0.541968    30A     -0.522413
      31A     -0.516831    32A     -0.506084    33A     -0.455267
      34A     -0.444204    35A     -0.356189    36A     -0.353595

  @DF-RHF Final Energy:  -457.48882731603413

   => Energetics <=

    Nuclear Repulsion Energy =            499.1374045334701464
    One-Electron Energy =               -1612.3701042364064051
    Two-Electron Energy =                 655.7438723869022397
    DFT Exchange-Correlation Energy =       0.0000000000000000
    Empirical Dispersion Energy =           0.0000000000000000
    PCM Polarization Energy =               0.0000000000000000
    EFP Energy =                            0.0000000000000000
    Total Energy =                       -457.4888273160340759
    Molecular point group: c1
  Basis Set: CC-PVTZ
  Basis Set:

  -Total Gradient:
     Atom            X                  Y                   Z
    ------   -----------------  -----------------  -----------------
       1       -0.000005327037    -0.000009994411    -0.000001664692
       2        0.000000050573     0.000036317743     0.000057476358
       3       -0.000002602769    -0.000017064246    -0.000055680613
       4       -0.000042817379    -0.000105046703     0.000077412361
       5        0.000000876229    -0.000002085025     0.000008557887
       6       -0.000011800691    -0.000017578077     0.000035586682
       7        0.000002017522     0.000000841858     0.000009989059
       8       -0.000016113229     0.000035185775     0.000016456355
       9        0.000004665666     0.000000095445    -0.000013756584
      10        0.000601835106     0.000315833155     0.000489150108
      11        0.000016749068     0.000043463465    -0.000094349721
      12       -0.001098357415    -0.000666971184    -0.001347197443
      13        0.001010077902     0.000704437581     0.001635565848
      14       -0.000042697358    -0.000008209240     0.000004286816
      15       -0.000481299937    -0.000278845834    -0.000790399071
      16        0.000022558503    -0.000021851116    -0.000025734181
      17       -0.000016483346    -0.000000583476     0.000001484954
      18        0.000058668593    -0.000007945712    -0.000007184119

  **** Optimization is complete! (in 30 steps) ****
    Final optimized geometry and variables:
    Molecular point group: c1

    Geometry (in Angstrom), charge = 0, multiplicity = 1:

    H            1.270465940147     2.399662882869    -2.756160824541
    C            0.869385107035     1.777789716700    -1.979019865521
    C            0.713557851709     2.281203802383    -0.700948454863
    C            0.498085587505     0.476440842191    -2.258496433954
    H            0.992268521016     3.294030294180    -0.483280879917
    C            0.183794999476     1.485567250370     0.295062597406
    H            0.599517925606     0.088793654386    -3.253692973512
    C           -0.007826923603    -0.328187493576    -1.256322274740
    H            0.030235194493     1.877475599408     1.280804472648
    C           -0.162318465362     0.171786428072     0.025586228008
    H           -0.304047590184    -1.333095713113    -1.485033056429
    C           -0.788881565048    -0.631725266813     1.127552332283
    O           -0.371782804876    -1.873715650606     1.345050678755
    O           -1.646785486149    -0.184310660533     1.801751976828
    C            0.868480329065    -2.383068327983     0.909412179016
    H            0.778303874019    -2.846772694718    -0.062033257385
    H            1.151325512913    -3.132323885510     1.631776454797
    H            1.629331432881    -1.617562258085     0.874148126396

  Mulliken Charges: (a.u.)
   Center  Symbol    Alpha    Beta     Spin     Total
       1     H     0.41989  0.41989  0.00000  0.16022
       2     C     3.07518  3.07518  0.00000 -0.15037
       3     C     3.06709  3.06709  0.00000 -0.13417
       4     C     3.07339  3.07339  0.00000 -0.14678
       5     H     0.41979  0.41979  0.00000  0.16042
       6     C     3.08394  3.08394  0.00000 -0.16788
       7     H     0.42044  0.42044  0.00000  0.15912
       8     C     3.08243  3.08243  0.00000 -0.16486
       9     H     0.41162  0.41162  0.00000  0.17676
      10     C     3.01181  3.01181  0.00000 -0.02362
      11     H     0.41792  0.41792  0.00000  0.16416
      12     C     2.81268  2.81268  0.00000  0.37463
      13     O     4.12920  4.12920  0.00000 -0.25840
      14     O     4.18310  4.18310  0.00000 -0.36621
      15     C     3.04894  3.04894  0.00000 -0.09788
      16     H     0.45883  0.45883  0.00000  0.08234
      17     H     0.43217  0.43217  0.00000  0.13566
      18     H     0.45158  0.45158  0.00000  0.09685

   Total alpha = 36.00000, Total beta = 36.00000, Total charge = -0.00000

*** Psi4 exiting successfully. Buy a developer a beer!
