  ==> Input File <==

--------------------------------------------------------------------------
set {
	reference rhf
	basis cc-pvtz
}

set_num_threads( 4 )
memory 2 gb

molecule MOL {
0 1

H	 -2.564168	 -0.481432	 -0.345429
N	 -1.851927	 0.161443	 -0.071573
C	 -0.561396	 -0.500007	 0.035200
H	 -2.127171	 0.549793	 0.806357
C	 0.575129	 0.507849	 -0.048832
H	 -0.478089	 -1.200753	 -0.788956
H	 -0.456191	 -1.081816	 0.952176
C	 1.951750	 -0.141983	 0.035101
H	 0.478254	 1.061643	 -0.975981
H	 0.467676	 1.231891	 0.755499
H	 2.101550	 -0.848142	 -0.774949
H	 2.738260	 0.600794	 -0.026526
H	 2.078939	 -0.679792	 0.968824

	symmetry c1
}
set optking {
	frozen_dihedral = ("
		1 2 3 6
	")
}

ee = optimize('scf')
oeprop('DIPOLE', 'QUADRUPOLE', 'MULLIKEN_CHARGES')
f=open( 'psi4out.xyz', 'w' )
f.write( "13  " )
f.write( str(ee) + "\n" )
f.write( MOL.save_string_xyz() )
f.close()
--------------------------------------------------------------------------

    Molecular point group: c1
  Charge       = 0
  Multiplicity = 1
  Basis Set: CC-PVTZ
  Basis Set:
  @DF-RHF Final Energy:  -173.35198099880898
    Total Energy =                       -173.3519809988090401
    Molecular point group: c1
  Basis Set: CC-PVTZ
  Basis Set:
  Basis Set: CC-PVTZ
  Basis Set:
  @DF-RHF Final Energy:  -173.35205971805067
    Total Energy =                       -173.3520597180505547
  Basis Set: CC-PVTZ
  Basis Set:
  Basis Set: CC-PVTZ
  Basis Set:
  @DF-RHF Final Energy:  -173.35207445827731
    Total Energy =                       -173.3520744582774000
  Basis Set: CC-PVTZ
  Basis Set:
  Charge       = 0
  Multiplicity = 1
  Basis Set: CC-PVTZ
  Basis Set:

    Orbital Energies (a.u.)
    -----------------------

    Doubly Occupied:

       1A    -15.525944     2A    -11.238570     3A    -11.207965
       4A    -11.205817     5A     -1.177286     6A     -1.035378
       7A     -0.899140     8A     -0.798177     9A     -0.669917
      10A     -0.623595    11A     -0.604319    12A     -0.569249
      13A     -0.526082    14A     -0.491644    15A     -0.480974
      16A     -0.466973    17A     -0.381865

  @DF-RHF Final Energy:  -173.35207513744945

   => Energetics <=

    Nuclear Repulsion Energy =            131.8593880784197268
    One-Electron Energy =                -494.6171380638749042
    Two-Electron Energy =                 189.4056748480056456
    DFT Exchange-Correlation Energy =       0.0000000000000000
    Empirical Dispersion Energy =           0.0000000000000000
    PCM Polarization Energy =               0.0000000000000000
    EFP Energy =                            0.0000000000000000
    Total Energy =                       -173.3520751374495319
    Molecular point group: c1
  Basis Set: CC-PVTZ
  Basis Set:

  -Total Gradient:
     Atom            X                  Y                   Z
    ------   -----------------  -----------------  -----------------
       1        0.000364754783     0.000385136833    -0.001849793141
       2       -0.000663286707    -0.000706063032     0.002555849825
       3        0.001055190692     0.001578309206    -0.001672874475
       4        0.000024039892    -0.000006633401    -0.000015969496
       5       -0.000041308869    -0.000005178247    -0.000014335230
       6       -0.000704233785    -0.001224209149     0.000983363842
       7        0.000004825269     0.000006652235    -0.000009283625
       8       -0.000021991973    -0.000007608262     0.000032416652
       9       -0.000019188178    -0.000015906319    -0.000005199093
      10        0.000007293333    -0.000012839135    -0.000008319682
      11       -0.000012812368     0.000013175180     0.000001752596
      12        0.000002382258     0.000004225854     0.000004696360
      13        0.000004335652    -0.000009061764    -0.000002304533

  **** Optimization is complete! (in 4 steps) ****
    Final optimized geometry and variables:
    Molecular point group: c1

    Geometry (in Angstrom), charge = 0, multiplicity = 1:

    H           -2.571273509335    -0.482440519634    -0.322526147418
    N           -1.854374152625     0.158082322446    -0.060301469078
    C           -0.558216089807    -0.495682609596     0.027844648626
    H           -2.116434227274     0.578071526236     0.805478762979
    C            0.577899284742     0.513157737782    -0.049393351009
    H           -0.481323007952    -1.196880836612    -0.796318934054
    H           -0.448554646254    -1.087936095664     0.937499444404
    C            1.954625172613    -0.135400154030     0.041881914378
    H            0.484230783086     1.068067650866    -0.976065609654
    H            0.462693362156     1.236120764173     0.754231759462
    H            2.109242752206    -0.842557459545    -0.766650312867
    H            2.741143448132     0.607670943426    -0.016611644562
    H            2.077847549184    -0.672454052293     0.976708342954

  Mulliken Charges: (a.u.)
   Center  Symbol    Alpha    Beta     Spin     Total
       1     H     0.42728  0.42728  0.00000  0.14544
       2     N     3.69342  3.69342  0.00000 -0.38683
       3     C     3.02750  3.02750  0.00000 -0.05500
       4     H     0.42949  0.42949  0.00000  0.14102
       5     C     3.07179  3.07179  0.00000 -0.14359
       6     H     0.45727  0.45727  0.00000  0.08547
       7     H     0.46799  0.46799  0.00000  0.06403
       8     C     3.15381  3.15381  0.00000 -0.30763
       9     H     0.45091  0.45091  0.00000  0.09818
      10     H     0.45979  0.45979  0.00000  0.08042
      11     H     0.45585  0.45585  0.00000  0.08829
      12     H     0.44776  0.44776  0.00000  0.10449
      13     H     0.45714  0.45714  0.00000  0.08571

   Total alpha = 17.00000, Total beta = 17.00000, Total charge =  0.00000
