  ==> Input File <==

--------------------------------------------------------------------------
set {
	reference rhf
	basis cc-pvtz
}

set_num_threads( 4 )
memory 2 gb

molecule MOL {
0 1

H	 -2.816458	 -0.841657	 -0.064679
N	 -1.878861	 -0.711874	 0.250184
C	 -1.341419	 0.551458	 -0.220231
H	 -1.333674	 -1.468530	 -0.105118
C	 0.082190	 0.731516	 0.254705
H	 -1.357065	 0.652078	 -1.304747
H	 -1.939897	 1.357530	 0.189797
O	 0.372093	 2.095890	 0.301044
H	 0.200567	 0.290194	 1.243337
H	 0.761803	 0.226271	 -0.427776
C	 1.680298	 2.395055	 0.659259
H	 1.785890	 3.470325	 0.664636
H	 1.917638	 2.016006	 1.651069
H	 2.392175	 1.976425	 -0.048231

	symmetry c1
}
set optking {
	frozen_dihedral = ("
		8 5 3 6
	")
}

ee = optimize('scf')
oeprop('DIPOLE', 'QUADRUPOLE', 'MULLIKEN_CHARGES')
f=open( 'psi4out.xyz', 'w' )
f.write( "14  " )
f.write( str(ee) + "\n" )
f.write( MOL.save_string_xyz() )
f.close()
--------------------------------------------------------------------------

    Molecular point group: c1
  Charge       = 0
  Multiplicity = 1
  Basis Set: CC-PVTZ
  Basis Set:
  @DF-RHF Final Energy:  -248.22183470961323
    Total Energy =                       -248.2218347096130060
    Molecular point group: c1
  Basis Set: CC-PVTZ
  Basis Set:
  Basis Set: CC-PVTZ
  Basis Set:
  @DF-RHF Final Energy:  -248.22219802682355
    Total Energy =                       -248.2221980268236052
  Basis Set: CC-PVTZ
  Basis Set:
  Basis Set: CC-PVTZ
  Basis Set:
  @DF-RHF Final Energy:  -248.22226060602540
    Total Energy =                       -248.2222606060252588
  Basis Set: CC-PVTZ
  Basis Set:
  Basis Set: CC-PVTZ
  Basis Set:
  @DF-RHF Final Energy:  -248.22227418929887
    Total Energy =                       -248.2222741892990712
  Basis Set: CC-PVTZ
  Basis Set:
  Basis Set: CC-PVTZ
  Basis Set:
  @DF-RHF Final Energy:  -248.22227625710937
    Total Energy =                       -248.2222762571093995
  Basis Set: CC-PVTZ
  Basis Set:
  Charge       = 0
  Multiplicity = 1
  Basis Set: CC-PVTZ
  Basis Set:

    Orbital Energies (a.u.)
    -----------------------

    Doubly Occupied:

       1A    -20.548608     2A    -15.531829     3A    -11.262397
       4A    -11.261927     5A    -11.239994     6A     -1.382579
       7A     -1.181438     8A     -0.999460     9A     -0.900021
      10A     -0.823855    11A     -0.682349    12A     -0.672478
      13A     -0.648097    14A     -0.622824    15A     -0.603903
      16A     -0.550482    17A     -0.519937    18A     -0.500017
      19A     -0.470424    20A     -0.416792    21A     -0.390378

  @DF-RHF Final Energy:  -248.22227647222351

   => Energetics <=

    Nuclear Repulsion Energy =            190.9645748125154512
    One-Electron Energy =                -715.9541224325969324
    Two-Electron Energy =                 276.7672711478579686
    DFT Exchange-Correlation Energy =       0.0000000000000000
    Empirical Dispersion Energy =           0.0000000000000000
    PCM Polarization Energy =               0.0000000000000000
    EFP Energy =                            0.0000000000000000
    Total Energy =                       -248.2222764722234842
    Molecular point group: c1
  Basis Set: CC-PVTZ
  Basis Set:

  -Total Gradient:
     Atom            X                  Y                   Z
    ------   -----------------  -----------------  -----------------
       1       -0.000004546920    -0.000005088255    -0.000006393295
       2       -0.000033689119    -0.000043511433     0.000028582631
       3       -0.001206038151     0.005797523435     0.001459258828
       4        0.000002162401    -0.000002486459    -0.000006673378
       5        0.001675277364    -0.001301324067    -0.004557361756
       6        0.000722714163    -0.004612930987    -0.000365780422
       7       -0.000012675312    -0.000003638412    -0.000003035222
       8       -0.001160518161     0.000163420350     0.003454417223
       9        0.000006415088    -0.000003092685    -0.000003685654
      10       -0.000002513348    -0.000009338970    -0.000000763946
      11        0.000010456521     0.000021913410    -0.000001474619
      12        0.000006793327     0.000000330267     0.000001979996
      13       -0.000001956307    -0.000001271321    -0.000001877710
      14       -0.000001881543    -0.000000504871     0.000002807323

  **** Optimization is complete! (in 6 steps) ****
    Final optimized geometry and variables:
    Molecular point group: c1

    Geometry (in Angstrom), charge = 0, multiplicity = 1:

    H           -2.626950315880    -1.819060815328    -0.210419938249
    N           -1.655713946953    -1.735588734886     0.001613371845
    C           -1.136355311529    -0.455840584085    -0.463565468694
    H           -1.195461168952    -2.497022512165    -0.452673455770
    C            0.294265480309    -0.266147532257     0.012464541451
    H           -1.169816653490    -0.374753699857    -1.548134686147
    H           -1.739409391736     0.336130938021    -0.042258283761
    O            0.583568752792     1.096453569550     0.038832853417
    H            0.389985518311    -0.689115824791     1.009434469003
    H            0.992960157035    -0.791333166913    -0.638989234480
    C            1.882994509773     1.399617656927     0.423003046524
    H            1.986558039665     2.475033237514     0.423258054998
    H            2.099672644504     1.026677069023     1.421719583566
    H            2.611997417865     0.978389902531    -0.266102174619

  Mulliken Charges: (a.u.)
   Center  Symbol    Alpha    Beta     Spin     Total
       1     H     0.42855  0.42855  0.00000  0.14289
       2     N     3.69093  3.69093  0.00000 -0.38187
       3     C     3.03143  3.03143  0.00000 -0.06287
       4     H     0.43136  0.43136  0.00000  0.13729
       5     C     2.96075  2.96075  0.00000  0.07850
       6     H     0.46448  0.46448  0.00000  0.07104
       7     H     0.45080  0.45080  0.00000  0.09840
       8     O     4.17333  4.17333  0.00000 -0.34665
       9     H     0.46927  0.46927  0.00000  0.06145
      10     H     0.47770  0.47770  0.00000  0.04460
      11     C     3.03117  3.03117  0.00000 -0.06234
      12     H     0.44703  0.44703  0.00000  0.10595
      13     H     0.47124  0.47124  0.00000  0.05751
      14     H     0.47195  0.47195  0.00000  0.05609

   Total alpha = 21.00000, Total beta = 21.00000, Total charge = -0.00000
