                              Psi4 1.0.54 Driver

  ==> Input File <==

--------------------------------------------------------------------------
set {
	reference rhf
	basis cc-pvtz
}

set_num_threads( 4 )
memory 2 gb

molecule MOL {
0 1

H	 -0.963940	 -0.888916	 1.230779
C	 -0.264826	 -0.060761	 1.207187
N	 0.526300	 -0.128137	 0.000000
H	 0.378586	 -0.149504	 2.073320
H	 -0.841429	 0.861711	 1.302816
C	 -0.247113	 0.037112	 -1.209233
H	 1.255285	 0.550951	 0.032849
H	 -0.996493	 -0.743733	 -1.271440
H	 0.397975	 -0.057351	 -2.073512
H	 -0.763794	 0.997171	 -1.271673

	symmetry c1
}
set optking {
	frozen_dihedral = ("
		2 3 6 8
	")
}

ee,wfn = optimize('scf', return_wfn=True)
oeprop( wfn, 'DIPOLE', 'QUADRUPOLE', 'MULLIKEN_CHARGES')
f=open( 'psi4out.xyz', 'w' )
f.write( "10  " )
f.write( str(ee) + "\n" )
f.write( MOL.save_string_xyz() )
f.close()
--------------------------------------------------------------------------

    Molecular point group: c1
  Charge       = 0
  Multiplicity = 1
  Basis Set: CC-PVTZ
  Basis Set:
  @DF-RHF Final Energy:  -134.29302068987460
    Total Energy =                       -134.2930206898745666
    Molecular point group: c1
  Basis Set: CC-PVTZ
  Basis Set:
  Basis Set: CC-PVTZ
  Basis Set:
  @DF-RHF Final Energy:  -134.29302677073596
    Total Energy =                       -134.2930267707359349
  Basis Set: CC-PVTZ
  Basis Set:
  Charge       = 0
  Multiplicity = 1
  Basis Set: CC-PVTZ
  Basis Set:

    Orbital Energies (a.u.)
    -----------------------

    Doubly Occupied:

       1A    -15.532337     2A    -11.234308     3A    -11.234272
       4A     -1.200852     5A     -0.948201     6A     -0.854916
       7A     -0.662948     8A     -0.612780     9A     -0.592497
      10A     -0.538862    11A     -0.511615    12A     -0.507627
      13A     -0.363649

  @DF-RHF Final Energy:  -134.29302726367899

   => Energetics <=

    Nuclear Repulsion Energy =             84.7522203335363429
    One-Electron Energy =                -348.5007656902295139
    Two-Electron Energy =                 129.4555180930142058
    DFT Exchange-Correlation Energy =       0.0000000000000000
    Empirical Dispersion Energy =           0.0000000000000000
    PCM Polarization Energy =               0.0000000000000000
    EFP Energy =                            0.0000000000000000
    Total Energy =                       -134.2930272636789653
    Molecular point group: c1
  Basis Set: CC-PVTZ
  Basis Set:

  -Total Gradient:
     Atom            X                  Y                   Z
    ------   -----------------  -----------------  -----------------
       1        0.000009080250     0.000002647717    -0.000015274295
       2       -0.000163530634    -0.000587478560     0.000002911090
       3        0.000081981035     0.000928864458     0.000145290218
       4        0.000014741519    -0.000002644583    -0.000017493769
       5        0.000009230438    -0.000003301882    -0.000000831342
       6        0.000524733126    -0.000815255514    -0.000540299380
       7        0.000029880278     0.000026306151     0.000017803462
       8       -0.000530101969     0.000475697322     0.000394862246
       9        0.000020344787     0.000005633466     0.000010712316
      10        0.000003641169    -0.000030468575     0.000002319453

  **** Optimization is complete! (in 3 steps) ****
    Final optimized geometry and variables:
    Molecular point group: c1

    Geometry (in Angstrom), charge = 0, multiplicity = 1:

    H           -0.956741613320    -0.855286724838     1.231450157829
    C           -0.258415731263    -0.026633823034     1.207195498862
    N            0.532914279288    -0.095160279630     0.000356933037
    H            0.385391410251    -0.114030452603     2.073166687802
    H           -0.835485319014     0.895644324822     1.302889239674
    C           -0.238919120166     0.070245842798    -1.209767387267
    H            1.266668511842     0.578768306383     0.032954911533
    H           -0.988190760381    -0.710611371150    -1.270583421463
    H            0.406073418427    -0.019507245141    -2.074528628212
    H           -0.760532432835     1.027932571468    -1.269685265171

  Mulliken Charges: (a.u.)
   Center  Symbol    Alpha    Beta     Spin     Total
       1     H     0.45691  0.45691  0.00000  0.08618
       2     C     3.08076  3.08076  0.00000 -0.16153
       3     N     3.62902  3.62902  0.00000 -0.25805
       4     H     0.45241  0.45241  0.00000  0.09518
       5     H     0.47533  0.47533  0.00000  0.04934
       6     C     3.08148  3.08148  0.00000 -0.16296
       7     H     0.44044  0.44044  0.00000  0.11912
       8     H     0.45736  0.45736  0.00000  0.08528
       9     H     0.45196  0.45196  0.00000  0.09607
      10     H     0.47432  0.47432  0.00000  0.05136

   Total alpha = 13.00000, Total beta = 13.00000, Total charge =  0.00000

*** Psi4 exiting successfully. Buy a developer a beer!
