  ==> Input File <==

--------------------------------------------------------------------------
set {
	reference rhf
	basis cc-pvtz
}

set_num_threads( 4 )
memory 2 gb

molecule MOL {
0 1

O	 -1.278239	 1.034789	 -0.784693
C	 -1.204115	 0.062668	 -0.112312
C	 -2.386398	 -0.667698	 0.460323
O	 -0.068058	 -0.518372	 0.226882
H	 -2.382952	 -1.693172	 0.114333
H	 -3.296656	 -0.175702	 0.158400
H	 -2.312537	 -0.685191	 1.540100
C	 1.169086	 0.037484	 -0.230612
C	 1.374998	 1.317433	 0.554528
C	 1.109159	 0.264077	 -1.730503
H	 1.953770	 -0.667719	 -0.002470
H	 1.406372	 1.113579	 1.617171
H	 2.310352	 1.782504	 0.267240
H	 0.570944	 2.018316	 0.364275
H	 2.040716	 0.696321	 -2.076722
H	 0.954769	 -0.669082	 -2.253978
H	 0.303234	 0.944922	 -1.979936

	symmetry c1
}
set optking {
	frozen_dihedral = ("
		11 8 4 2
	")
}

ee = optimize('scf')
oeprop('DIPOLE', 'QUADRUPOLE', 'MULLIKEN_CHARGES')
f=open( 'psi4out.xyz', 'w' )
f.write( "17  " )
f.write( str(ee) + "\n" )
f.write( MOL.save_string_xyz() )
f.close()
--------------------------------------------------------------------------

    Molecular point group: c1
  Charge       = 0
  Multiplicity = 1
  Basis Set: CC-PVTZ
  Basis Set:
  @DF-RHF Final Energy:  -345.02836021738472
    Total Energy =                       -345.0283602173846589
    Molecular point group: c1
  Basis Set: CC-PVTZ
  Basis Set:
  Basis Set: CC-PVTZ
  Basis Set:
  @DF-RHF Final Energy:  -345.03680488723626
    Total Energy =                       -345.0368048872363715
  Basis Set: CC-PVTZ
  Basis Set:
  Basis Set: CC-PVTZ
  Basis Set:
  @DF-RHF Final Energy:  -345.03753578386437
    Total Energy =                       -345.0375357838645414
  Basis Set: CC-PVTZ
  Basis Set:
  Basis Set: CC-PVTZ
  Basis Set:
  @DF-RHF Final Energy:  -345.03771784335026
    Total Energy =                       -345.0377178433504923
  Basis Set: CC-PVTZ
  Basis Set:
  Basis Set: CC-PVTZ
  Basis Set:
  @DF-RHF Final Energy:  -345.03818075720773
    Total Energy =                       -345.0381807572077832
  Basis Set: CC-PVTZ
  Basis Set:
  Basis Set: CC-PVTZ
  Basis Set:
  @DF-RHF Final Energy:  -345.03823261289159
    Total Energy =                       -345.0382326128913064
  Basis Set: CC-PVTZ
  Basis Set:
  Basis Set: CC-PVTZ
  Basis Set:
  @DF-RHF Final Energy:  -345.03823420686672
    Total Energy =                       -345.0382342068665480
  Basis Set: CC-PVTZ
  Basis Set:
  Charge       = 0
  Multiplicity = 1
  Basis Set: CC-PVTZ
  Basis Set:

    Orbital Energies (a.u.)
    -----------------------

    Doubly Occupied:

       1A    -20.589650     2A    -20.529940     3A    -11.366627
       4A    -11.292355     5A    -11.229114     6A    -11.213303
       7A    -11.211768     8A     -1.465404     9A     -1.363752
      10A     -1.077161    11A     -1.003696    12A     -0.946554
      13A     -0.868508    14A     -0.732203    15A     -0.697876
      16A     -0.673101    17A     -0.662800    18A     -0.616006
      19A     -0.586265    20A     -0.581097    21A     -0.570316
      22A     -0.552474    23A     -0.529781    24A     -0.520374
      25A     -0.499532    26A     -0.484136    27A     -0.448829
      28A     -0.431500

  @DF-RHF Final Energy:  -345.03823489029054

   => Energetics <=

    Nuclear Repulsion Energy =            327.3251005549843171
    One-Electron Energy =               -1119.2384236451380275
    Two-Electron Energy =                 446.8750881998630575
    DFT Exchange-Correlation Energy =       0.0000000000000000
    Empirical Dispersion Energy =           0.0000000000000000
    PCM Polarization Energy =               0.0000000000000000
    EFP Energy =                            0.0000000000000000
    Total Energy =                       -345.0382348902905960
    Molecular point group: c1
  Basis Set: CC-PVTZ
  Basis Set:

  -Total Gradient:
     Atom            X                  Y                   Z
    ------   -----------------  -----------------  -----------------
       1       -0.000056248217     0.000001029071     0.000013021781
       2       -0.000074660203    -0.001323390405    -0.001937325643
       3        0.000001287231    -0.000037360635    -0.000077631918
       4        0.000128852562     0.001859634504     0.002590492027
       5        0.000008190080    -0.000001907150     0.000029462505
       6       -0.000004626102     0.000003687418     0.000014654942
       7       -0.000004307088     0.000030615482     0.000007832060
       8        0.000327980787     0.000529937139     0.001582231269
       9        0.000028588720     0.000002861360     0.000019037113
      10        0.000007036705     0.000012269935    -0.000006757310
      11       -0.000344879995    -0.001064209108    -0.002243725228
      12       -0.000000107923     0.000009650972     0.000014431402
      13       -0.000020118321    -0.000017587214    -0.000007291104
      14       -0.000008463059     0.000015256719     0.000003504921
      15        0.000000607123    -0.000004210514     0.000009220401
      16       -0.000002446279    -0.000003977167    -0.000010453091
      17        0.000013313972    -0.000012300407    -0.000000704126

  **** Optimization is complete! (in 8 steps) ****
    Final optimized geometry and variables:
    Molecular point group: c1

    Geometry (in Angstrom), charge = 0, multiplicity = 1:

    O           -1.234451382311     0.839639252991    -0.440704420309
    C           -1.072423764153    -0.173265693480     0.151468101716
    C           -2.190520339359    -1.025214996357     0.687080476936
    O            0.102397124110    -0.698575895207     0.439283669430
    H           -2.135029386412    -2.014272525726     0.250995179833
    H           -3.137859531029    -0.567775023877     0.452232075996
    H           -2.083505638577    -1.132750939488     1.758726844406
    C            1.340002292089    -0.135448801492    -0.021879208663
    C            1.678586580692     1.133687657786     0.739502323965
    C            1.393892891730     0.023111494428    -1.534331677415
    H            2.043700259549    -0.911611364861     0.243381429402
    H            1.638539648963     0.956260083279     1.807251807108
    H            2.684266977870     1.449132553045     0.486885413954
    H            0.994674120774     1.932684446621     0.491345305290
    H            2.422145211246     0.207076836822    -1.824447945599
    H            1.069472100802    -0.888794531391    -2.021663735002
    H            0.782770831039     0.840333212906    -1.882203363307

  Mulliken Charges: (a.u.)
   Center  Symbol    Alpha    Beta     Spin     Total
       1     O     4.20187  4.20187  0.00000 -0.40375
       2     C     2.80091  2.80091  0.00000  0.39818
       3     C     3.13712  3.13712  0.00000 -0.27424
       4     O     4.16349  4.16349  0.00000 -0.32697
       5     H     0.44643  0.44643  0.00000  0.10713
       6     H     0.43882  0.43882  0.00000  0.12236
       7     H     0.44545  0.44545  0.00000  0.10909
       8     C     2.93804  2.93804  0.00000  0.12391
       9     C     3.15698  3.15698  0.00000 -0.31396
      10     C     3.16123  3.16123  0.00000 -0.32245
      11     H     0.43990  0.43990  0.00000  0.12020
      12     H     0.44764  0.44764  0.00000  0.10473
      13     H     0.45081  0.45081  0.00000  0.09838
      14     H     0.43839  0.43839  0.00000  0.12322
      15     H     0.44994  0.44994  0.00000  0.10012
      16     H     0.44884  0.44884  0.00000  0.10233
      17     H     0.43415  0.43415  0.00000  0.13170

   Total alpha = 28.00000, Total beta = 28.00000, Total charge =  0.00000
