  ==> Input File <==

--------------------------------------------------------------------------
set {
	reference rhf
	basis 6-31G*
}

set_num_threads( 4 )
memory 2 gb

molecule MOL {
0 1

H	 1.086811	 -0.386981	 -4.180088
O	 1.119568	 -1.167922	 -4.713126
C	 1.533245	 -2.258714	 -3.930120
C	 0.462556	 -2.740940	 -2.957592
H	 1.774012	 -3.048744	 -4.629806
H	 2.447708	 -2.015312	 -3.390406
C	 0.081127	 -1.711252	 -1.891234
H	 -0.419939	 -3.020509	 -3.527162
H	 0.827101	 -3.645233	 -2.473104
C	 -0.955592	 -2.244467	 -0.898402
H	 -0.306808	 -0.820534	 -2.377539
H	 0.974545	 -1.406974	 -1.345744
C	 -1.309753	 -1.282496	 0.241564
H	 -1.862350	 -2.513077	 -1.437369
H	 -0.576651	 -3.167501	 -0.464681
C	 -2.037799	 -0.007733	 -0.193645
H	 -1.936981	 -1.813677	 0.954480
H	 -0.402199	 -1.013661	 0.779999
C	 -3.489788	 0.042957	 0.286558
H	 -2.017067	 0.064384	 -1.280144
H	 -1.513726	 0.868678	 0.179924
C	 -4.216917	 1.317354	 -0.141063
H	 -4.025645	 -0.823308	 -0.095450
H	 -3.513059	 -0.038752	 1.371301
H	 -4.239342	 1.411634	 -1.223113
H	 -5.243387	 1.322503	 0.212445
H	 -3.726170	 2.201406	 0.256408

	symmetry c1
}
set optking {
	frozen_dihedral = ("
		10 13 16 20
	")
}

ee = optimize('scf')
oeprop('DIPOLE', 'QUADRUPOLE', 'MULLIKEN_CHARGES')
f=open( 'psi4out.xyz', 'w' )
f.write( "27  " )
f.write( str(ee) + "\n" )
f.write( MOL.save_string_xyz() )
f.close()
--------------------------------------------------------------------------

    Molecular point group: c1
  Charge       = 0
  Multiplicity = 1
  Basis Set: 6-31G*
  Basis Set:
  @DF-RHF Final Energy:  -388.27637817601703
    Total Energy =                       -388.2763781760164647
    Molecular point group: c1
  Basis Set: 6-31G*
  Basis Set:
  Basis Set: 6-31G*
  Basis Set:
  @DF-RHF Final Energy:  -388.27663319868122
    Total Energy =                       -388.2766331986809973
  Basis Set: 6-31G*
  Basis Set:
  Basis Set: 6-31G*
  Basis Set:
  @DF-RHF Final Energy:  -388.27689591450684
    Total Energy =                       -388.2768959145067811
  Basis Set: 6-31G*
  Basis Set:
  Basis Set: 6-31G*
  Basis Set:
  @DF-RHF Final Energy:  -388.27691062389306
    Total Energy =                       -388.2769106238928316
  Basis Set: 6-31G*
  Basis Set:
  Basis Set: 6-31G*
  Basis Set:
  @DF-RHF Final Energy:  -388.27691753497231
    Total Energy =                       -388.2769175349724264
  Basis Set: 6-31G*
  Basis Set:
  Basis Set: 6-31G*
  Basis Set:
  @DF-RHF Final Energy:  -388.27691846347392
    Total Energy =                       -388.2769184634735211
  Basis Set: 6-31G*
  Basis Set:
  Basis Set: 6-31G*
  Basis Set:
  @DF-RHF Final Energy:  -388.27692041727090
    Total Energy =                       -388.2769204172705031
  Basis Set: 6-31G*
  Basis Set:
  Charge       = 0
  Multiplicity = 1
  Basis Set: 6-31G*
  Basis Set:

    Orbital Energies (a.u.)
    -----------------------

    Doubly Occupied:

       1A    -20.552326     2A    -11.267101     3A    -11.219839
       4A    -11.217531     5A    -11.215924     6A    -11.215288
       7A    -11.215245     8A    -11.214047     9A    -11.208670
      10A     -1.359082    11A     -1.094303    12A     -1.060595
      13A     -1.010642    14A     -0.947404    15A     -0.887337
      16A     -0.822607    17A     -0.802528    18A     -0.775962
      19A     -0.693815    20A     -0.653950    21A     -0.627530
      22A     -0.614982    23A     -0.604682    24A     -0.587747
      25A     -0.576176    26A     -0.558100    27A     -0.535288
      28A     -0.529984    29A     -0.505898    30A     -0.492919
      31A     -0.483681    32A     -0.480681    33A     -0.468261
      34A     -0.452889    35A     -0.451147    36A     -0.443525
      37A     -0.422984

  @DF-RHF Final Energy:  -388.27692042398451

   => Energetics <=

    Nuclear Repulsion Energy =            461.1627122756420931
    One-Electron Energy =               -1440.3379186305501207
    Two-Electron Energy =                 590.8982859309234072
    DFT Exchange-Correlation Energy =       0.0000000000000000
    Empirical Dispersion Energy =           0.0000000000000000
    PCM Polarization Energy =               0.0000000000000000
    EFP Energy =                            0.0000000000000000
    Total Energy =                       -388.2769204239846204
    Molecular point group: c1
  Basis Set: 6-31G*
  Basis Set:

  -Total Gradient:
     Atom            X                  Y                   Z
    ------   -----------------  -----------------  -----------------
       1       -0.000004510690     0.000001679966     0.000010094016
       2       -0.000004341679     0.000001357971    -0.000000362881
       3       -0.000006575951    -0.000000565729    -0.000004212935
       4       -0.000004081117     0.000003407180    -0.000008517826
       5        0.000000312278    -0.000000251326    -0.000002399599
       6       -0.000002595432    -0.000002481342     0.000001327742
       7        0.000004737804     0.000005099800     0.000013549553
       8       -0.000004371366    -0.000010220681     0.000006515741
       9        0.000010081322     0.000004141173    -0.000000448398
      10        0.000608565087     0.000342266155    -0.000113993408
      11        0.000018378417    -0.000007146980    -0.000014888989
      12        0.000008714362     0.000001135382     0.000019892246
      13       -0.001044945740    -0.000597742624     0.000183515770
      14       -0.000008398221     0.000012207138    -0.000005622677
      15       -0.000011075476    -0.000002798480    -0.000000841592
      16        0.001247265571     0.000759888978    -0.000061333252
      17        0.000014241854    -0.000008543520     0.000001982575
      18        0.000007372913    -0.000000478821    -0.000010817070
      19       -0.000000520144    -0.000001128070    -0.000022598726
      20       -0.000823862636    -0.000513118726     0.000008725639
      21       -0.000004499254     0.000000842213    -0.000007861744
      22       -0.000004351243     0.000013219244     0.000015402151
      23        0.000003464281     0.000001758235    -0.000007808514
      24        0.000005603468    -0.000010005070    -0.000002763681
      25        0.000002504611    -0.000004011845     0.000005191996
      26       -0.000004549625     0.000007112577     0.000000953211
      27       -0.000002563400     0.000004377202    -0.000002679345

  **** Optimization is complete! (in 8 steps) ****
    Final optimized geometry and variables:
    Molecular point group: c1

    Geometry (in Angstrom), charge = 0, multiplicity = 1:

    H            2.212836592251     0.726595795588    -2.437254190234
    O            2.166544384232    -0.015670084303    -3.022107109045
    C            2.468897832701    -1.192905872640    -2.317329839570
    C            1.354651536429    -1.630069555014    -1.372884091089
    H            2.629653148670    -1.953641951313    -3.070376462027
    H            3.402871928941    -1.079204131919    -1.768249445855
    C            1.074258217140    -0.638361480747    -0.241436730618
    H            0.449893600497    -1.785040969695    -1.954846490478
    H            1.628243983312    -2.594872575131    -0.948887054746
    C            0.000257251234    -1.131916353939     0.731544824858
    H            0.769252204838     0.314601228693    -0.666302241521
    H            1.993648685609    -0.451762514816     0.313452777704
    C           -0.321986885878    -0.144399076899     1.859985708719
    H           -0.910629195555    -1.360063505852     0.180287857562
    H            0.334085587294    -2.070837869399     1.168076844251
    C           -1.108662663920     1.108172025488     1.410940889854
    H           -0.891776975805    -0.666620055867     2.624085008309
    H            0.608836612286     0.151224517436     2.338020445247
    C           -2.545107892397     1.139879425133     1.941217706320
    H           -1.146368975385     1.154220568127     0.325314023976
    H           -0.596305746620     2.011115555602     1.732716065724
    C           -3.331302065027     2.361189013875     1.467613090695
    H           -3.061764484710     0.233834477229     1.630301317426
    H           -2.526119700269     1.121168721399     3.028788400266
    H           -3.400606497808     2.387249953283     0.383697339584
    H           -4.342299546921     2.356680766057     1.863266537126
    H           -2.854595988636     3.283025793491     1.789327183345

  Mulliken Charges: (a.u.)
   Center  Symbol    Alpha    Beta     Spin     Total
       1     H     0.27977  0.27977  0.00000  0.44047
       2     O     4.37100  4.37100  0.00000 -0.74200
       3     C     2.99747  2.99747  0.00000  0.00507
       4     C     3.16088  3.16088  0.00000 -0.32176
       5     H     0.41445  0.41445  0.00000  0.17110
       6     H     0.43196  0.43196  0.00000  0.13608
       7     C     3.16272  3.16272  0.00000 -0.32545
       8     H     0.41513  0.41513  0.00000  0.16975
       9     H     0.42423  0.42423  0.00000  0.15153
      10     C     3.15355  3.15355  0.00000 -0.30709
      11     H     0.42311  0.42311  0.00000  0.15378
      12     H     0.42524  0.42524  0.00000  0.14953
      13     C     3.15822  3.15822  0.00000 -0.31645
      14     H     0.42193  0.42193  0.00000  0.15614
      15     H     0.42182  0.42182  0.00000  0.15636
      16     C     3.15477  3.15477  0.00000 -0.30954
      17     H     0.41806  0.41806  0.00000  0.16388
      18     H     0.42177  0.42177  0.00000  0.15646
      19     C     3.15308  3.15308  0.00000 -0.30615
      20     H     0.42116  0.42116  0.00000  0.15767
      21     H     0.42145  0.42145  0.00000  0.15709
      22     C     3.24007  3.24007  0.00000 -0.48013
      23     H     0.42294  0.42294  0.00000  0.15412
      24     H     0.42265  0.42265  0.00000  0.15469
      25     H     0.42147  0.42147  0.00000  0.15707
      26     H     0.41915  0.41915  0.00000  0.16170
      27     H     0.42195  0.42195  0.00000  0.15609

   Total alpha = 37.00000, Total beta = 37.00000, Total charge =  0.00000
