  ==> Input File <==

--------------------------------------------------------------------------
set {
	reference rhf
	basis cc-pvtz
}

set_num_threads( 4 )
memory 2 gb

molecule MOL {
0 1

H	 0.108607	 4.205976	 0.382708
O	 -0.132160	 3.792062	 -0.425751
C	 -0.144230	 2.400498	 -0.272312
C	 1.261140	 1.837817	 -0.194086
H	 -0.705454	 2.100859	 0.607105
H	 -0.647602	 1.992154	 -1.136923
O	 1.172093	 0.457955	 -0.054438
H	 1.790300	 2.274827	 0.654388
H	 1.810476	 2.105513	 -1.094166
C	 2.395478	 -0.199028	 -0.000366
H	 2.505946	 -0.901710	 -0.823354
H	 3.174616	 0.545641	 -0.071768
H	 2.513730	 -0.742241	 0.934223

	symmetry c1
}
set optking {
	frozen_dihedral = ("
		4 7 10 13
	")
}

ee = optimize('scf')
oeprop('DIPOLE', 'QUADRUPOLE', 'MULLIKEN_CHARGES')
f=open( 'psi4out.xyz', 'w' )
f.write( "13  " )
f.write( str(ee) + "\n" )
f.write( MOL.save_string_xyz() )
f.close()
--------------------------------------------------------------------------

    Molecular point group: c1
  Charge       = 0
  Multiplicity = 1
  Basis Set: CC-PVTZ
  Basis Set:
  @DF-RHF Final Energy:  -268.05764292405951
    Total Energy =                       -268.0576429240596781
    Molecular point group: c1
  Basis Set: CC-PVTZ
  Basis Set:
  Basis Set: CC-PVTZ
  Basis Set:
  @DF-RHF Final Energy:  -268.05845280785138
    Total Energy =                       -268.0584528078513813
  Basis Set: CC-PVTZ
  Basis Set:
  Basis Set: CC-PVTZ
  Basis Set:
  @DF-RHF Final Energy:  -268.05869703807195
    Total Energy =                       -268.0586970380717275
  Basis Set: CC-PVTZ
  Basis Set:
  Charge       = 0
  Multiplicity = 1
  Basis Set: CC-PVTZ
  Basis Set:

    Orbital Energies (a.u.)
    -----------------------

    Doubly Occupied:

       1A    -20.552482     2A    -20.552402     3A    -11.269719
       4A    -11.267320     5A    -11.266870     6A     -1.387572
       7A     -1.368324     8A     -1.019378     9A     -0.914230
      10A     -0.842418    11A     -0.711086    12A     -0.673395
      13A     -0.660747    14A     -0.638190    15A     -0.598032
      16A     -0.570224    17A     -0.550385    18A     -0.491286
      19A     -0.483119    20A     -0.441054    21A     -0.418955

  @DF-RHF Final Energy:  -268.05869894499290

   => Energetics <=

    Nuclear Repulsion Energy =            190.1696425969153665
    One-Electron Energy =                -743.1023127716007366
    Two-Electron Energy =                 284.8739712296924154
    DFT Exchange-Correlation Energy =       0.0000000000000000
    Empirical Dispersion Energy =           0.0000000000000000
    PCM Polarization Energy =               0.0000000000000000
    EFP Energy =                            0.0000000000000000
    Total Energy =                       -268.0586989449930115
    Molecular point group: c1
  Basis Set: CC-PVTZ
  Basis Set:

  -Total Gradient:
     Atom            X                  Y                   Z
    ------   -----------------  -----------------  -----------------
       1       -0.000001517431     0.000007597391    -0.000002136601
       2        0.000002462468     0.000023359529     0.000001461587
       3       -0.000007249817    -0.000018663130     0.000001434130
       4        0.000023157749     0.000016930815    -0.000055010031
       5       -0.000003286422    -0.000005117508    -0.000005774077
       6       -0.000002587094    -0.000003957161     0.000006062043
       7        0.000107108182    -0.000135547383     0.000141798174
       8       -0.000005818056    -0.000023314089    -0.000007403636
       9       -0.000002373924    -0.000023585291     0.000008132409
      10       -0.000021239503     0.000236635569    -0.000067118660
      11       -0.000011973589    -0.000031224442     0.000006076670
      12        0.000038225186     0.000000418813     0.000003707596
      13       -0.000114907750    -0.000043533115    -0.000031229605

  **** Optimization is complete! (in 4 steps) ****
    Final optimized geometry and variables:
    Molecular point group: c1

    Geometry (in Angstrom), charge = 0, multiplicity = 1:

    H           -0.838137145917     2.517393240477     0.568666098777
    O           -1.071267062523     2.101442553903    -0.240982363794
    C           -1.061805537875     0.709378016079    -0.090014082053
    C            0.352158510210     0.169061607373    -0.011850402558
    H           -1.618886848976     0.399311428998     0.788408534614
    H           -1.558023833261     0.294446939169    -0.955629881828
    O            0.279140527963    -1.213063689087     0.124426087037
    H            0.871278008813     0.613912608300     0.838121074784
    H            0.895782601543     0.448521839744    -0.911110756210
    C            1.495331549188    -1.895436278063     0.180252811176
    H            1.550564360150    -2.611398016243    -0.631323186600
    H            2.341799001049    -1.221879994766     0.099579357090
    H            1.572235794921    -2.430320372625     1.119765079095

  Mulliken Charges: (a.u.)
   Center  Symbol    Alpha    Beta     Spin     Total
       1     H     0.39418  0.39418  0.00000  0.21164
       2     O     4.20212  4.20212  0.00000 -0.40425
       3     C     2.97536  2.97536  0.00000  0.04928
       4     C     2.96486  2.96486  0.00000  0.07029
       5     H     0.46704  0.46704  0.00000  0.06592
       6     H     0.45290  0.45290  0.00000  0.09421
       7     O     4.18051  4.18051  0.00000 -0.36101
       8     H     0.48168  0.48168  0.00000  0.03664
       9     H     0.46947  0.46947  0.00000  0.06106
      10     C     3.02710  3.02710  0.00000 -0.05420
      11     H     0.45616  0.45616  0.00000  0.08768
      12     H     0.47132  0.47132  0.00000  0.05736
      13     H     0.45730  0.45730  0.00000  0.08539

   Total alpha = 21.00000, Total beta = 21.00000, Total charge =  0.00000
