  ==> Input File <==

--------------------------------------------------------------------------
set {
	reference rhf
	basis 6-31G*
}

set_num_threads( 4 )
memory 2 gb

molecule MOL {
0 1

H	 2.591676	 2.013956	 0.335017
O	 3.341076	 1.666752	 -0.126416
C	 3.569581	 0.339145	 0.272707
C	 2.539767	 -0.640285	 -0.279495
H	 4.553106	 0.084646	 -0.100901
H	 3.608576	 0.269204	 1.359154
C	 3.027449	 -2.090060	 -0.335964
H	 1.643760	 -0.580220	 0.332820
H	 2.262774	 -0.312668	 -1.280149
C	 1.991422	 -3.039156	 -0.944800
H	 3.277854	 -2.421918	 0.667796
H	 3.945674	 -2.140665	 -0.921321
C	 2.461731	 -4.489664	 -1.103470
H	 1.087230	 -3.018261	 -0.339120
H	 1.708281	 -2.659984	 -1.924474
C	 2.714413	 -5.232698	 0.211266
H	 1.708133	 -5.033244	 -1.669532
H	 3.366617	 -4.509892	 -1.708952
C	 3.078950	 -6.704261	 0.003780
H	 1.824978	 -5.168666	 0.836499
H	 3.513315	 -4.748203	 0.767435
C	 3.337968	 -7.446686	 1.314269
H	 2.277516	 -7.200446	 -0.539351
H	 3.961792	 -6.770501	 -0.628745
H	 2.461679	 -7.426534	 1.956090
H	 3.591763	 -8.486759	 1.134074
H	 4.159591	 -6.996675	 1.864532

	symmetry c1
}
set optking {
	frozen_dihedral = ("
		8 4 3 2
	")
}

ee = optimize('scf')
oeprop('DIPOLE', 'QUADRUPOLE', 'MULLIKEN_CHARGES')
f=open( 'psi4out.xyz', 'w' )
f.write( "27  " )
f.write( str(ee) + "\n" )
f.write( MOL.save_string_xyz() )
f.close()
--------------------------------------------------------------------------

    Molecular point group: c1
  Charge       = 0
  Multiplicity = 1
  Basis Set: 6-31G*
  Basis Set:
  @DF-RHF Final Energy:  -388.28023781006942
    Total Energy =                       -388.2802378100691385
    Molecular point group: c1
  Basis Set: 6-31G*
  Basis Set:
  Basis Set: 6-31G*
  Basis Set:
  @DF-RHF Final Energy:  -388.28066420434385
    Total Energy =                       -388.2806642043444754
  Basis Set: 6-31G*
  Basis Set:
  Basis Set: 6-31G*
  Basis Set:
  @DF-RHF Final Energy:  -388.28071223811349
    Total Energy =                       -388.2807122381129830
  Basis Set: 6-31G*
  Basis Set:
  Basis Set: 6-31G*
  Basis Set:
  @DF-RHF Final Energy:  -388.28072645704282
    Total Energy =                       -388.2807264570429879
  Basis Set: 6-31G*
  Basis Set:
  Basis Set: 6-31G*
  Basis Set:
  @DF-RHF Final Energy:  -388.28073143006753
    Total Energy =                       -388.2807314300677035
  Basis Set: 6-31G*
  Basis Set:
  Basis Set: 6-31G*
  Basis Set:
  @DF-RHF Final Energy:  -388.28073038847839
    Total Energy =                       -388.2807303884791281
  Basis Set: 6-31G*
  Basis Set:
  Basis Set: 6-31G*
  Basis Set:
  @DF-RHF Final Energy:  -388.28073166528225
    Total Energy =                       -388.2807316652824738
  Basis Set: 6-31G*
  Basis Set:
  Charge       = 0
  Multiplicity = 1
  Basis Set: 6-31G*
  Basis Set:

    Orbital Energies (a.u.)
    -----------------------

    Doubly Occupied:

       1A    -20.552001     2A    -11.266420     3A    -11.218482
       4A    -11.216352     5A    -11.215718     6A    -11.215370
       7A    -11.214648     8A    -11.213448     9A    -11.208922
      10A     -1.358382    11A     -1.094861    12A     -1.061890
      13A     -1.011093    14A     -0.944717    15A     -0.882865
      16A     -0.823562    17A     -0.804500    18A     -0.777648
      19A     -0.692486    20A     -0.647128    21A     -0.637299
      22A     -0.610113    23A     -0.608216    24A     -0.583404
      25A     -0.574330    26A     -0.555188    27A     -0.542877
      28A     -0.522055    29A     -0.509339    30A     -0.488838
      31A     -0.481977    32A     -0.477046    33A     -0.465211
      34A     -0.460527    35A     -0.457574    36A     -0.443155
      37A     -0.419724

  @DF-RHF Final Energy:  -388.28073171343573

   => Energetics <=

    Nuclear Repulsion Energy =            453.2831043377382798
    One-Electron Energy =               -1424.6129390587857415
    Two-Electron Energy =                 583.0491030076123025
    DFT Exchange-Correlation Energy =       0.0000000000000000
    Empirical Dispersion Energy =           0.0000000000000000
    PCM Polarization Energy =               0.0000000000000000
    EFP Energy =                            0.0000000000000000
    Total Energy =                       -388.2807317134352161
    Molecular point group: c1
  Basis Set: 6-31G*
  Basis Set:

  -Total Gradient:
     Atom            X                  Y                   Z
    ------   -----------------  -----------------  -----------------
       1       -0.000002984140     0.000007988110    -0.000000573445
       2        0.001869764684    -0.000381534284    -0.002401939279
       3       -0.002242975092    -0.000176265135     0.003775690693
       4       -0.000806758271     0.003465838881    -0.003659042080
       5        0.000011041107    -0.000009277458     0.000013669326
       6       -0.000008797951    -0.000006675955    -0.000007759886
       7        0.000009941473     0.000009560902     0.000001236843
       8        0.001176037307    -0.002909485299     0.002266145139
       9       -0.000002992919     0.000007333844     0.000012072236
      10        0.000002681498     0.000002695616    -0.000001136149
      11        0.000001757868    -0.000001620624    -0.000004605270
      12        0.000001734006     0.000000616860     0.000007479437
      13        0.000002411582     0.000000993027     0.000001159568
      14        0.000000288238    -0.000003142488     0.000000113107
      15       -0.000002012292    -0.000003460177    -0.000001118105
      16        0.000001461328    -0.000001187946    -0.000000388705
      17       -0.000000637408    -0.000001847384     0.000000437973
      18       -0.000000611379     0.000002376954     0.000000786111
      19       -0.000005712993    -0.000000835641    -0.000000911678
      20       -0.000003632850    -0.000000739882    -0.000002543241
      21       -0.000002680637    -0.000002110982     0.000001184605
      22        0.000005555537     0.000002236381    -0.000000357375
      23       -0.000001697146    -0.000001812541     0.000002330684
      24       -0.000002456437    -0.000000095479    -0.000001714781
      25       -0.000000384959    -0.000000669592    -0.000001769866
      26        0.000001836931     0.000000614028    -0.000000336618
      27       -0.000000177087     0.000000506256     0.000001890756

  **** Optimization is complete! (in 8 steps) ****
    Final optimized geometry and variables:
    Molecular point group: c1

    Geometry (in Angstrom), charge = 0, multiplicity = 1:

    H           -0.351965897555     4.955591201463     0.379057519659
    O            0.482237568164     4.649818868795     0.050418533784
    C            0.661415709576     3.303064049722     0.406709531551
    C           -0.358804700489     2.373274847575    -0.246767113642
    H            1.658636281834     3.050913708140     0.067619920333
    H            0.650082551377     3.181890410044     1.488446080147
    C            0.111391958603     0.915709467003    -0.275041074786
    H           -1.297828667093     2.416918176699     0.304296971912
    H           -0.548864061881     2.725375163173    -1.256006634113
    C           -0.937564608388    -0.033866671046    -0.859945967956
    H            0.371462469710     0.605310208867     0.734333180369
    H            1.025478924176     0.846065030949    -0.862162857138
    C           -0.472899270785    -1.486204909123    -1.017926004461
    H           -1.832191309702    -0.008539808085    -0.239845656889
    H           -1.236239399458     0.340164318756    -1.836994301436
    C           -0.192983033106    -2.219289573819     0.296791222727
    H           -1.238761580159    -2.033024017005    -1.564131514142
    H            0.419095881437    -1.511641745308    -1.641783254791
    C            0.166506050673    -3.692605191274     0.092951221734
    H           -1.069341152602    -2.150308184215     0.940043782305
    H            0.617639234268    -1.730737243432     0.831872884763
    C            0.452777804741    -4.425109791604     1.403347298199
    H           -0.646222227468    -4.192627268428    -0.429543239282
    H            1.035956505953    -3.763947487940    -0.557222022679
    H           -0.410091986579    -4.400219653904     2.063033901507
    H            0.702931335965    -5.466530267883     1.225831035641
    H            1.285561443937    -3.970868577250     1.932922959141

  Mulliken Charges: (a.u.)
   Center  Symbol    Alpha    Beta     Spin     Total
       1     H     0.28355  0.28355  0.00000  0.43290
       2     O     4.37060  4.37060  0.00000 -0.74120
       3     C     2.98896  2.98896  0.00000  0.02209
       4     C     3.17115  3.17115  0.00000 -0.34230
       5     H     0.41698  0.41698  0.00000  0.16603
       6     H     0.43062  0.43062  0.00000  0.13877
       7     C     3.16152  3.16152  0.00000 -0.32304
       8     H     0.42668  0.42668  0.00000  0.14665
       9     H     0.41227  0.41227  0.00000  0.17547
      10     C     3.15267  3.15267  0.00000 -0.30534
      11     H     0.42123  0.42123  0.00000  0.15754
      12     H     0.42104  0.42104  0.00000  0.15791
      13     C     3.15346  3.15346  0.00000 -0.30691
      14     H     0.42404  0.42404  0.00000  0.15192
      15     H     0.42073  0.42073  0.00000  0.15855
      16     C     3.15272  3.15272  0.00000 -0.30545
      17     H     0.42156  0.42156  0.00000  0.15689
      18     H     0.42338  0.42338  0.00000  0.15324
      19     C     3.15118  3.15118  0.00000 -0.30236
      20     H     0.42492  0.42492  0.00000  0.15016
      21     H     0.42232  0.42232  0.00000  0.15535
      22     C     3.23917  3.23917  0.00000 -0.47835
      23     H     0.42308  0.42308  0.00000  0.15383
      24     H     0.42288  0.42288  0.00000  0.15425
      25     H     0.42202  0.42202  0.00000  0.15596
      26     H     0.41927  0.41927  0.00000  0.16146
      27     H     0.42200  0.42200  0.00000  0.15599

   Total alpha = 37.00000, Total beta = 37.00000, Total charge =  0.00000
