  ==> Input File <==

--------------------------------------------------------------------------
set {
	reference rhf
	basis cc-pvtz
}

set_num_threads( 4 )
memory 2 gb

molecule MOL {
0 1

H	 1.166964	 -1.062386	 0.758429
O	 1.324748	 -0.612467	 -0.052206
C	 0.706474	 0.636793	 -0.025501
C	 0.614586	 1.260542	 1.338363
H	 -0.292563	 0.493050	 -0.419919
H	 1.207438	 1.331863	 -0.696777
C	 0.962942	 0.689787	 2.470262
H	 0.221880	 2.264010	 1.347536
H	 1.341833	 -0.313850	 2.503818
H	 0.866511	 1.208233	 3.405128

	symmetry c1
}
set optking {
	frozen_dihedral = ("
		5 3 2 1
	")
}

ee = optimize('scf')
oeprop('DIPOLE', 'QUADRUPOLE', 'MULLIKEN_CHARGES')
f=open( 'psi4out.xyz', 'w' )
f.write( "10  " )
f.write( str(ee) + "\n" )
f.write( MOL.save_string_xyz() )
f.close()
--------------------------------------------------------------------------

    Molecular point group: c1
  Charge       = 0
  Multiplicity = 1
  Basis Set: CC-PVTZ
  Basis Set:
  @DF-RHF Final Energy:  -191.99439680276771
    Total Energy =                       -191.9943968027676533
    Molecular point group: c1
  Basis Set: CC-PVTZ
  Basis Set:
  Basis Set: CC-PVTZ
  Basis Set:
  @DF-RHF Final Energy:  -191.99640113329491
    Total Energy =                       -191.9964011332949099
  Basis Set: CC-PVTZ
  Basis Set:
  Basis Set: CC-PVTZ
  Basis Set:
  @DF-RHF Final Energy:  -191.99690240187113
    Total Energy =                       -191.9969024018711536
  Basis Set: CC-PVTZ
  Basis Set:
  Basis Set: CC-PVTZ
  Basis Set:
  @DF-RHF Final Energy:  -191.99696352460199
    Total Energy =                       -191.9969635246020516
  Basis Set: CC-PVTZ
  Basis Set:
  @DF-RHF Final Energy:  -191.99709505658808
    Total Energy =                       -191.9970950565881367
  Basis Set: CC-PVTZ
  Basis Set:
  @DF-RHF Final Energy:  -191.99719657281781
    Total Energy =                       -191.9971965728176997
  Basis Set: CC-PVTZ
  Basis Set:
  Basis Set: CC-PVTZ
  Basis Set:
  @DF-RHF Final Energy:  -191.99726776361058
    Total Energy =                       -191.9972677636105232
  Basis Set: CC-PVTZ
  Basis Set:
  Basis Set: CC-PVTZ
  Basis Set:
  @DF-RHF Final Energy:  -191.99730789632289
    Total Energy =                       -191.9973078963228943
  Basis Set: CC-PVTZ
  Basis Set:
  Charge       = 0
  Multiplicity = 1
  Basis Set: CC-PVTZ
  Basis Set:

    Orbital Energies (a.u.)
    -----------------------

    Doubly Occupied:

       1A    -20.552521     2A    -11.278080     3A    -11.237300
       4A    -11.223244     5A     -1.373659     6A     -1.066902
       7A     -0.935995     8A     -0.777176     9A     -0.689781
      10A     -0.664856    11A     -0.626984    12A     -0.574140
      13A     -0.553518    14A     -0.487530    15A     -0.457260
      16A     -0.373450

  @DF-RHF Final Energy:  -191.99731730347793

   => Energetics <=

    Nuclear Repulsion Energy =            119.5826541303143102
    One-Electron Energy =                -497.4151507623128055
    Two-Electron Energy =                 185.8351793285204394
    DFT Exchange-Correlation Energy =       0.0000000000000000
    Empirical Dispersion Energy =           0.0000000000000000
    PCM Polarization Energy =               0.0000000000000000
    EFP Energy =                            0.0000000000000000
    Total Energy =                       -191.9973173034780416
    Molecular point group: c1
  Basis Set: CC-PVTZ
  Basis Set:

  -Total Gradient:
     Atom            X                  Y                   Z
    ------   -----------------  -----------------  -----------------
       1        0.002492516478     0.000982064581     0.001685937980
       2       -0.002721098665    -0.001001865792    -0.002704969869
       3       -0.001130579245    -0.000565939382     0.003403253163
       4        0.000019627168    -0.000045081765    -0.000022410534
       5        0.001325836368     0.000605451032    -0.002340316568
       6        0.000008495795     0.000015905286    -0.000004940552
       7       -0.000001244522    -0.000016146408     0.000027952675
       8        0.000003071036     0.000005264449    -0.000025323829
       9        0.000003035720     0.000012058132    -0.000012935617
      10        0.000000339867     0.000008289867    -0.000006246849

  **** Optimization is complete! (in 9 steps) ****
    Final optimized geometry and variables:
    Molecular point group: c1

    Geometry (in Angstrom), charge = 0, multiplicity = 1:

    H            0.045337511580    -1.570996974838    -0.200810154912
    O            0.349353224978    -1.080982314460    -0.942985608154
    C           -0.179024668912     0.208916284989    -0.910472945527
    C           -0.350239518980     0.797918971927     0.459292231165
    H           -1.128410280019     0.243003794939    -1.440662639591
    H            0.499910532226     0.838326956799    -1.476644485765
    C            0.132178442532     0.312401755872     1.582298976729
    H           -0.921262806118     1.710782631008     0.483313840166
    H            0.730450942350    -0.579173476360     1.613741194328
    H           -0.042483157062     0.806101744017     2.518896783975

  Mulliken Charges: (a.u.)
   Center  Symbol    Alpha    Beta     Spin     Total
       1     H     0.39061  0.39061  0.00000  0.21877
       2     O     4.20111  4.20111  0.00000 -0.40223
       3     C     2.94184  2.94184  0.00000  0.11633
       4     C     3.08134  3.08134  0.00000 -0.16269
       5     H     0.47057  0.47057  0.00000  0.05885
       6     H     0.45829  0.45829  0.00000  0.08341
       7     C     3.17690  3.17690  0.00000 -0.35380
       8     H     0.42203  0.42203  0.00000  0.15594
       9     H     0.43001  0.43001  0.00000  0.13999
      10     H     0.42729  0.42729  0.00000  0.14542

   Total alpha = 16.00000, Total beta = 16.00000, Total charge = -0.00000
