                              Psi4 1.0.54 Driver

  ==> Input File <==

--------------------------------------------------------------------------
set {
	reference rhf
	basis cc-pvtz
}

set_num_threads( 4 )
memory 2 gb

molecule MOL {
0 1

H	 -1.013475	 3.707762	 -1.838607
O	 -0.201033	 3.224918	 -1.861344
C	 -0.286855	 2.215539	 -0.999530
C	 0.974267	 1.395198	 -0.974187
O	 -1.255467	 2.024608	 -0.348910
C	 0.926581	 0.227233	 0.000178
H	 1.790213	 2.071392	 -0.740261
H	 1.154452	 1.055592	 -1.989036
C	 2.220156	 -0.582071	 -0.000088
H	 0.727286	 0.601633	 0.997946
H	 0.090737	 -0.415428	 -0.252355
C	 3.466689	 0.296012	 -0.000457
H	 2.239073	 -1.234095	 -0.869382
H	 2.239505	 -1.233985	 0.869270
H	 3.493549	 0.935857	 -0.875887
H	 4.368821	 -0.304526	 -0.001199
H	 3.494559	 0.935166	 0.875458

	symmetry c1
}
set optking {
	frozen_dihedral = ("
		10 6 9 13
	")
}

ee,wfn = optimize('scf', return_wfn=True)
oeprop( wfn, 'DIPOLE', 'QUADRUPOLE', 'MULLIKEN_CHARGES')
f=open( 'psi4out.xyz', 'w' )
f.write( "17  " )
f.write( str(ee) + "\n" )
f.write( MOL.save_string_xyz() )
f.close()
--------------------------------------------------------------------------

    Molecular point group: c1
  Charge       = 0
  Multiplicity = 1
  Basis Set: CC-PVTZ
  Basis Set:
  @DF-RHF Final Energy:  -345.04356026048862
    Total Energy =                       -345.0435602604887322
    Molecular point group: c1
  Basis Set: CC-PVTZ
  Basis Set:
  Basis Set: CC-PVTZ
  Basis Set:
  @DF-RHF Final Energy:  -345.04385173060257
    Total Energy =                       -345.0438517306024551
  Basis Set: CC-PVTZ
  Basis Set:
  Basis Set: CC-PVTZ
  Basis Set:
  @DF-RHF Final Energy:  -345.04580442687404
    Total Energy =                       -345.0458044268740423
  Basis Set: CC-PVTZ
  Basis Set:
  Basis Set: CC-PVTZ
  Basis Set:
  @DF-RHF Final Energy:  -345.04585383959579
    Total Energy =                       -345.0458538395959067
  Basis Set: CC-PVTZ
  Basis Set:
  Basis Set: CC-PVTZ
  Basis Set:
  @DF-RHF Final Energy:  -345.04511721852236
    Total Energy =                       -345.0451172185227051
  Basis Set: CC-PVTZ
  Basis Set:
  Basis Set: CC-PVTZ
  Basis Set:
  @DF-RHF Final Energy:  -345.04593532117968
    Total Energy =                       -345.0459353211798543
  Basis Set: CC-PVTZ
  Basis Set:
  Basis Set: CC-PVTZ
  Basis Set:
  @DF-RHF Final Energy:  -345.04594238416308
    Total Energy =                       -345.0459423841631406
  Basis Set: CC-PVTZ
  Basis Set:
  Charge       = 0
  Multiplicity = 1
  Basis Set: CC-PVTZ
  Basis Set:

    Orbital Energies (a.u.)
    -----------------------

    Doubly Occupied:

       1A    -20.603931     2A    -20.540624     3A    -11.373592
       4A    -11.238988     5A    -11.221327     6A    -11.220723
       7A    -11.213349     8A     -1.477581     9A     -1.369116
      10A     -1.092221    11A     -1.016880    12A     -0.921448
      13A     -0.833687    14A     -0.776945    15A     -0.703785
      16A     -0.693687    17A     -0.668231    18A     -0.625096
      19A     -0.608330    20A     -0.581342    21A     -0.563701
      22A     -0.549723    23A     -0.521054    24A     -0.484712
      25A     -0.477869    26A     -0.474031    27A     -0.468625
      28A     -0.447218

  @DF-RHF Final Energy:  -345.04594270434927

   => Energetics <=

    Nuclear Repulsion Energy =            308.3331991785730679
    One-Electron Energy =               -1081.2226560984402113
    Two-Electron Energy =                 427.8435142155179278
    DFT Exchange-Correlation Energy =       0.0000000000000000
    Empirical Dispersion Energy =           0.0000000000000000
    PCM Polarization Energy =               0.0000000000000000
    EFP Energy =                            0.0000000000000000
    Total Energy =                       -345.0459427043492155
    Molecular point group: c1
  Basis Set: CC-PVTZ
  Basis Set:

  -Total Gradient:
     Atom            X                  Y                   Z
    ------   -----------------  -----------------  -----------------
       1        0.000024877170    -0.000015519497     0.000002202728
       2       -0.000026379494     0.000028435924    -0.000016163033
       3       -0.000039916460    -0.000056745034     0.000069954720
       4       -0.000004110411     0.000002126915    -0.000019332142
       5        0.000059754050     0.000025969990    -0.000050628342
       6        0.002305632393     0.003344970329    -0.000558810635
       7        0.000000260495    -0.000003243272     0.000001203508
       8       -0.000001704165     0.000009209970     0.000000377626
       9        0.001797418375     0.002706916922    -0.002414249510
      10       -0.002194416323    -0.003255135332     0.000851356770
      11       -0.000001348883     0.000000377818     0.000007626367
      12        0.000016384751    -0.000008112353    -0.000021730124
      13       -0.001883171682    -0.002808888537     0.002137382744
      14       -0.000016705995     0.000012122172    -0.000018463663
      15       -0.000008808216    -0.000017695107     0.000026492766
      16       -0.000039825484     0.000032404299    -0.000009011115
      17        0.000012059878     0.000002804792     0.000011791337

  **** Optimization is complete! (in 8 steps) ****
    Final optimized geometry and variables:
    Molecular point group: c1

    Geometry (in Angstrom), charge = 0, multiplicity = 1:

    H           -1.950176028120     2.351665921616    -1.250732079946
    O           -1.114480254171     1.910282575607    -1.272178528624
    C           -1.141803066564     0.915296882562    -0.389642911002
    C            0.160219364177     0.160966587974    -0.362202365502
    O           -2.094690265140     0.688702672818     0.272470946167
    C            0.169660409711    -0.990284040055     0.633024985031
    H            0.937062770670     0.886853519674    -0.153764692577
    H            0.345667026634    -0.190029539687    -1.372731472694
    C            1.430939086283    -1.858402243864     0.592442119186
    H            0.010150697357    -0.617423909466     1.638609666305
    H           -0.686800350336    -1.623428233090     0.433152952738
    C            2.756452753656    -1.105608220289     0.651945550343
    H            1.400023722576    -2.501184031903    -0.283042012897
    H            1.381470069004    -2.536659795892     1.438726979734
    H            2.922582053548    -0.499800305328    -0.230962853670
    H            3.585174797389    -1.799378361452     0.728534016264
    H            2.795584500953    -0.450174729812     1.516356357778

  Mulliken Charges: (a.u.)
   Center  Symbol    Alpha    Beta     Spin     Total
       1     H     0.38235  0.38235  0.00000  0.23530
       2     O     4.15995  4.15995  0.00000 -0.31990
       3     C     2.80574  2.80574  0.00000  0.38851
       4     C     3.11316  3.11316  0.00000 -0.22632
       5     O     4.19064  4.19064  0.00000 -0.38129
       6     C     3.09068  3.09068  0.00000 -0.18136
       7     H     0.43566  0.43566  0.00000  0.12868
       8     H     0.43702  0.43702  0.00000  0.12597
       9     C     3.09291  3.09291  0.00000 -0.18581
      10     H     0.44454  0.44454  0.00000  0.11092
      11     H     0.44182  0.44182  0.00000  0.11637
      12     C     3.15660  3.15660  0.00000 -0.31321
      13     H     0.45188  0.45188  0.00000  0.09624
      14     H     0.44734  0.44734  0.00000  0.10532
      15     H     0.45339  0.45339  0.00000  0.09322
      16     H     0.44398  0.44398  0.00000  0.11205
      17     H     0.45235  0.45235  0.00000  0.09530

   Total alpha = 28.00000, Total beta = 28.00000, Total charge = -0.00000

*** Psi4 exiting successfully. Buy a developer a beer!
