  ==> Input File <==

--------------------------------------------------------------------------
set {
	reference rhf
	basis cc-pvtz
}

set_num_threads( 4 )
memory 2 gb

molecule MOL {
0 1

H	 2.544187	 -0.310944	 -0.656047
O	 1.675515	 -0.612943	 -0.465627
C	 1.135873	 0.113391	 0.608264
C	 0.027642	 1.012027	 0.090274
H	 1.902972	 0.727968	 1.072615
H	 0.756163	 -0.561896	 1.370018
C	 -1.138737	 0.285728	 -0.581921
H	 0.464661	 1.708096	 -0.618252
H	 -0.340737	 1.603071	 0.925246
C	 -1.933983	 -0.631436	 0.343653
H	 -0.763151	 -0.285569	 -1.422081
H	 -1.808359	 1.035291	 -0.992333
H	 -2.789188	 -1.049673	 -0.174718
H	 -1.335629	 -1.461368	 0.700418
H	 -2.305435	 -0.092167	 1.209725

	symmetry c1
}
set optking {
	frozen_dihedral = ("
		1 2 3 4
	")
}

ee = optimize('scf')
oeprop('DIPOLE', 'QUADRUPOLE', 'MULLIKEN_CHARGES')
f=open( 'psi4out.xyz', 'w' )
f.write( "15  " )
f.write( str(ee) + "\n" )
f.write( MOL.save_string_xyz() )
f.close()
--------------------------------------------------------------------------

    Molecular point group: c1
  Charge       = 0
  Multiplicity = 1
  Basis Set: CC-PVTZ
  Basis Set:
  @DF-RHF Final Energy:  -232.23522137009547
    Total Energy =                       -232.2352213700954735
    Molecular point group: c1
  Basis Set: CC-PVTZ
  Basis Set:
  Basis Set: CC-PVTZ
  Basis Set:
  @DF-RHF Final Energy:  -232.23580579761810
    Total Energy =                       -232.2358057976178429
  Basis Set: CC-PVTZ
  Basis Set:
  Basis Set: CC-PVTZ
  Basis Set:
  @DF-RHF Final Energy:  -232.23591490696072
    Total Energy =                       -232.2359149069607156
  Basis Set: CC-PVTZ
  Basis Set:
  Charge       = 0
  Multiplicity = 1
  Basis Set: CC-PVTZ
  Basis Set:

    Orbital Energies (a.u.)
    -----------------------

    Doubly Occupied:

       1A    -20.545350     2A    -11.265732     3A    -11.211201
       4A    -11.207812     5A    -11.202305     6A     -1.362765
       7A     -1.065297     8A     -0.970636     9A     -0.871874
      10A     -0.781340    11A     -0.698704    12A     -0.643172
      13A     -0.618732    14A     -0.575892    15A     -0.562875
      16A     -0.534034    17A     -0.508520    18A     -0.485032
      19A     -0.468005    20A     -0.452996    21A     -0.427845

  @DF-RHF Final Energy:  -232.23591502587263

   => Energetics <=

    Nuclear Repulsion Energy =            191.5623893431459521
    One-Electron Energy =                -694.6763691699227365
    Two-Electron Energy =                 270.8780648009042125
    DFT Exchange-Correlation Energy =       0.0000000000000000
    Empirical Dispersion Energy =           0.0000000000000000
    PCM Polarization Energy =               0.0000000000000000
    EFP Energy =                            0.0000000000000000
    Total Energy =                       -232.2359150258726004
    Molecular point group: c1
  Basis Set: CC-PVTZ
  Basis Set:

  -Total Gradient:
     Atom            X                  Y                   Z
    ------   -----------------  -----------------  -----------------
       1        0.000299140071    -0.000504531003     0.000476565845
       2       -0.000318341657     0.000511129665    -0.000532466024
       3        0.000322394994     0.000263555893    -0.000018798904
       4       -0.000343726199    -0.000251700608     0.000098130972
       5        0.000020052711    -0.000047541229    -0.000040179948
       6       -0.000011797797    -0.000028372689     0.000027258406
       7       -0.000018581538     0.000002528381    -0.000029618834
       8        0.000014214430    -0.000006565017    -0.000008242844
       9        0.000001173036     0.000031191441    -0.000031870437
      10        0.000024871770     0.000034701017     0.000016150100
      11       -0.000012397880     0.000045133705    -0.000005456886
      12       -0.000020200754    -0.000013852566     0.000020476331
      13        0.000006487652    -0.000013710455     0.000001485063
      14        0.000033432365    -0.000011553504     0.000033193989
      15        0.000003278797    -0.000010413030    -0.000006626831

  **** Optimization is complete! (in 4 steps) ****
    Final optimized geometry and variables:
    Molecular point group: c1

    Geometry (in Angstrom), charge = 0, multiplicity = 1:

    H            2.552768582483    -0.366233107477    -0.644086736397
    O            1.684701216081    -0.657116015686    -0.442223984972
    C            1.134204784646     0.115506537264     0.597787611554
    C            0.014187913096     1.015752532434     0.098365546781
    H            1.901441971579     0.722393338957     1.068074260511
    H            0.765398103223    -0.566525278333     1.354182699172
    C           -1.146680182107     0.283601501544    -0.576601717392
    H            0.435952021504     1.728923054901    -0.604209113952
    H           -0.357623608845     1.592162926826     0.942963205855
    C           -1.935054940987    -0.641183692107     0.347458108961
    H           -0.764761630982    -0.284101604153    -1.416686819102
    H           -1.822157875475     1.027568842488    -0.987494334246
    H           -2.782640600062    -1.070591942746    -0.174175661617
    H           -1.328689310392    -1.462852328602     0.709197173345
    H           -2.317141464207    -0.103873931992     1.210048177623

  Mulliken Charges: (a.u.)
   Center  Symbol    Alpha    Beta     Spin     Total
       1     H     0.39297  0.39297  0.00000  0.21406
       2     O     4.20487  4.20487  0.00000 -0.40974
       3     C     2.98142  2.98142  0.00000  0.03715
       4     C     3.08969  3.08969  0.00000 -0.17937
       5     H     0.46096  0.46096  0.00000  0.07808
       6     H     0.46261  0.46261  0.00000  0.07478
       7     C     3.08711  3.08711  0.00000 -0.17422
       8     H     0.45449  0.45449  0.00000  0.09101
       9     H     0.45734  0.45734  0.00000  0.08532
      10     C     3.15436  3.15436  0.00000 -0.30873
      11     H     0.44767  0.44767  0.00000  0.10466
      12     H     0.45075  0.45075  0.00000  0.09850
      13     H     0.44699  0.44699  0.00000  0.10601
      14     H     0.45150  0.45150  0.00000  0.09699
      15     H     0.45725  0.45725  0.00000  0.08549

   Total alpha = 21.00000, Total beta = 21.00000, Total charge = -0.00000
