  ==> Input File <==

--------------------------------------------------------------------------
set {
	reference rhf
	basis 6-31G*
}

set_num_threads( 1 )
memory 2 gb

molecule MOL {
0 1

H	 -2.179416	 -0.771001	 -1.241738
O	 -2.310168	 -0.871793	 -0.309793
C	 -2.026376	 0.340750	 0.341611
C	 -0.673256	 0.843270	 -0.132153
H	 -2.792215	 1.080697	 0.115987
H	 -2.013526	 0.200402	 1.421792
C	 0.486613	 -0.083066	 0.235839
H	 -0.715586	 0.970948	 -1.210718
H	 -0.508072	 1.829858	 0.297090
C	 1.840406	 0.433480	 -0.254303
H	 0.300215	 -1.068318	 -0.178947
H	 0.519509	 -0.203625	 1.318070
C	 3.000220	 -0.489290	 0.118523
H	 1.809207	 0.553576	 -1.335192
H	 2.021860	 1.424500	 0.157276
H	 2.864959	 -1.479103	 -0.307933
H	 3.946603	 -0.099227	 -0.243630
H	 3.080049	 -0.602997	 1.196117

	symmetry c1
}
set optking {
	frozen_dihedral = ("
		14 10 7 11,
		10 7 4 8,
		2 3 4 8
	")
}

ee = energy('scf')
oeprop('DIPOLE', 'QUADRUPOLE', 'MULLIKEN_CHARGES')
f=open( 'psi4out.xyz', 'w' )
f.write( "18  " )
f.write( str(ee) + "\n" )
f.write( MOL.save_string_xyz() )
f.close()
--------------------------------------------------------------------------

    Molecular point group: c1

    Geometry (in Angstrom), charge = 0, multiplicity = 1:

       Center              X                  Y                   Z               Mass
    ------------   -----------------  -----------------  -----------------  -----------------
           H         -2.190353729206    -0.776081643765    -1.227515682178     1.007825032070
           O         -2.321105729206    -0.876873643765    -0.295570682178    15.994914619560
           C         -2.037313729206     0.335669356235     0.355833317822    12.000000000000
           C         -0.684193729206     0.838189356235    -0.117930682178    12.000000000000
           H         -2.803152729206     1.075616356235     0.130209317822     1.007825032070
           H         -2.024463729206     0.195321356235     1.436014317822     1.007825032070
           C          0.475675270794    -0.088146643765     0.250061317822    12.000000000000
           H         -0.726523729206     0.965867356235    -1.196495682178     1.007825032070
           H         -0.519009729206     1.824777356235     0.311312317822     1.007825032070
           C          1.829468270794     0.428399356235    -0.240080682178    12.000000000000
           H          0.289277270794    -1.073398643765    -0.164724682178     1.007825032070
           H          0.508571270794    -0.208705643765     1.332292317822     1.007825032070
           C          2.989282270794    -0.494370643765     0.132745317822    12.000000000000
           H          1.798269270794     0.548495356235    -1.320969682178     1.007825032070
           H          2.010922270794     1.419419356235     0.171498317822     1.007825032070
           H          2.854021270794    -1.484183643765    -0.293710682178     1.007825032070
           H          3.935665270794    -0.104307643765    -0.229407682178     1.007825032070
           H          3.069111270794    -0.608077643765     1.210339317822     1.007825032070

  Charge       = 0
  Multiplicity = 1
  Basis Set: 6-31G*
  Basis Set:

    Orbital Energies (a.u.)
    -----------------------

    Doubly Occupied:

       1A    -20.551661     2A    -11.269058     3A    -11.218068
       4A    -11.216305     5A    -11.213166     6A    -11.208783
       7A     -1.360417     8A     -1.080028     9A     -1.011718
      10A     -0.917849    11A     -0.830393    12A     -0.793801
      13A     -0.673526    14A     -0.655354    15A     -0.621924
      16A     -0.612952    17A     -0.574227    18A     -0.555441
      19A     -0.538961    20A     -0.495681    21A     -0.484884
      22A     -0.477294    23A     -0.465687    24A     -0.457488
      25A     -0.423547

  @DF-RHF Final Energy:  -271.17747562963353

   => Energetics <=

    Nuclear Repulsion Energy =            249.9171624590133547
    One-Electron Energy =                -862.7730064411144895
    Two-Electron Energy =                 341.6783683524676007
    DFT Exchange-Correlation Energy =       0.0000000000000000
    Empirical Dispersion Energy =           0.0000000000000000
    PCM Polarization Energy =               0.0000000000000000
    EFP Energy =                            0.0000000000000000
    Total Energy =                       -271.1774756296334772

  Mulliken Charges: (a.u.)
   Center  Symbol    Alpha    Beta     Spin     Total
       1     H     0.28197  0.28197  0.00000  0.43606
       2     O     4.36973  4.36973  0.00000 -0.73945
       3     C     2.99144  2.99144  0.00000  0.01711
       4     C     3.17419  3.17419  0.00000 -0.34837
       5     H     0.42743  0.42743  0.00000  0.14515
       6     H     0.41650  0.41650  0.00000  0.16701
       7     C     3.14989  3.14989  0.00000 -0.29978
       8     H     0.42882  0.42882  0.00000  0.14235
       9     H     0.42255  0.42255  0.00000  0.15491
      10     C     3.15140  3.15140  0.00000 -0.30280
      11     H     0.41345  0.41345  0.00000  0.17309
      12     H     0.42340  0.42340  0.00000  0.15320
      13     C     3.23904  3.23904  0.00000 -0.47809
      14     H     0.42451  0.42451  0.00000  0.15098
      15     H     0.42375  0.42375  0.00000  0.15251
      16     H     0.42104  0.42104  0.00000  0.15792
      17     H     0.41961  0.41961  0.00000  0.16079
      18     H     0.42130  0.42130  0.00000  0.15740

   Total alpha = 25.00000, Total beta = 25.00000, Total charge =  0.00000
