                              Psi4 1.0.54 Driver

  ==> Input File <==

--------------------------------------------------------------------------
set {
	reference rhf
	basis cc-pvtz
}

set_num_threads( 4 )
memory 2 gb

molecule MOL {
0 1

H	 -2.698799	 -0.000846	 0.036018
C	 -1.694291	 -0.000483	 0.434279
O	 -0.828718	 -0.000608	 -0.655022
H	 -1.576855	 0.881100	 1.056504
H	 -1.576401	 -0.881658	 1.057001
C	 0.543190	 0.213682	 -0.431806
C	 0.835781	 1.601465	 0.127410
C	 1.180759	 -0.892442	 0.401407
H	 0.966725	 0.162918	 -1.427125
H	 0.337795	 2.359243	 -0.464908
H	 1.902258	 1.792423	 0.097282
H	 0.514902	 1.704373	 1.157472
H	 0.922087	 -1.864171	 -0.000931
H	 2.259787	 -0.792096	 0.381345
H	 0.868948	 -0.855767	 1.438697

	symmetry c1
}
set optking {
	frozen_dihedral = ("
		6 3 2 1
	")
}

ee,wfn = optimize('scf', return_wfn=True)
oeprop( wfn, 'DIPOLE', 'QUADRUPOLE', 'MULLIKEN_CHARGES')
f=open( 'psi4out.xyz', 'w' )
f.write( "15  " )
f.write( str(ee) + "\n" )
f.write( MOL.save_string_xyz() )
f.close()
--------------------------------------------------------------------------

    Molecular point group: c1
  Charge       = 0
  Multiplicity = 1
  Basis Set: CC-PVTZ
  Basis Set:
  @DF-RHF Final Energy:  -232.22599318012203
    Total Energy =                       -232.2259931801220887
    Molecular point group: c1
  Basis Set: CC-PVTZ
  Basis Set:
  Basis Set: CC-PVTZ
  Basis Set:
  @DF-RHF Final Energy:  -232.22588204690408
    Total Energy =                       -232.2258820469040188
  Basis Set: CC-PVTZ
  Basis Set:
  Basis Set: CC-PVTZ
  Basis Set:
  @DF-RHF Final Energy:  -232.22608085357763
    Total Energy =                       -232.2260808535780257
  Basis Set: CC-PVTZ
  Basis Set:
  Basis Set: CC-PVTZ
  Basis Set:
  @DF-RHF Final Energy:  -232.22608472841912
    Total Energy =                       -232.2260847284190390
  Basis Set: CC-PVTZ
  Basis Set:
  Charge       = 0
  Multiplicity = 1
  Basis Set: CC-PVTZ
  Basis Set:

    Orbital Energies (a.u.)
    -----------------------

    Doubly Occupied:

       1A    -20.541758     2A    -11.272660     3A    -11.258632
       4A    -11.209294     5A    -11.208085     6A     -1.373497
       7A     -1.051535     8A     -0.940473     9A     -0.931409
      10A     -0.781511    11A     -0.675843    12A     -0.642456
      13A     -0.634980    14A     -0.573607    15A     -0.565276
      16A     -0.552868    17A     -0.534126    18A     -0.498583
      19A     -0.497456    20A     -0.444819    21A     -0.409272

  @DF-RHF Final Energy:  -232.22608524933250

   => Energetics <=

    Nuclear Repulsion Energy =            199.0490585808089747
    One-Electron Energy =                -709.3540075202336084
    Two-Electron Energy =                 278.0788636900919641
    DFT Exchange-Correlation Energy =       0.0000000000000000
    Empirical Dispersion Energy =           0.0000000000000000
    PCM Polarization Energy =               0.0000000000000000
    EFP Energy =                            0.0000000000000000
    Total Energy =                       -232.2260852493326979
    Molecular point group: c1
  Basis Set: CC-PVTZ
  Basis Set:

  -Total Gradient:
     Atom            X                  Y                   Z
    ------   -----------------  -----------------  -----------------
       1       -0.000007815562     0.000611234432     0.000043967723
       2       -0.000013978251    -0.000504687116    -0.000038732709
       3        0.000119408523    -0.000611941142    -0.000001647619
       4       -0.000011068826     0.000016786119     0.000014309940
       5        0.000003753561    -0.000004754685     0.000005666723
       6       -0.000124303306     0.000486108121    -0.000039203614
       7       -0.000013718935    -0.000011010774     0.000003258493
       8        0.000042088765    -0.000015000704     0.000006093009
       9        0.000009065253     0.000031994541     0.000004270324
      10        0.000007691470     0.000002529611     0.000000904180
      11        0.000009253522    -0.000003737568     0.000002167887
      12       -0.000002829996     0.000001132134    -0.000017750277
      13        0.000004571651     0.000003598478    -0.000009545307
      14       -0.000008278119    -0.000008176732     0.000011137940
      15       -0.000013839750     0.000005925286     0.000015103303

  **** Optimization is complete! (in 5 steps) ****
    Final optimized geometry and variables:
    Molecular point group: c1

    Geometry (in Angstrom), charge = 0, multiplicity = 1:

    H           -2.684132125846    -0.186812989334     0.078879296826
    C           -1.672617035800    -0.225456191807     0.457471917079
    O           -0.824097027544    -0.150614296657    -0.642957098710
    H           -1.540176197302     0.604970773113     1.143620154278
    H           -1.547565969485    -1.152034815162     1.009130069879
    C            0.552971360234     0.033921543606    -0.425331203007
    C            0.873033412943     1.423667724147     0.114321521817
    C            1.169607035406    -1.073200865959     0.421767970693
    H            0.974130387324    -0.037062992993    -1.420447165953
    H            0.393627991723     2.181162559608    -0.493215171731
    H            1.943619323622     1.591851432508     0.087036391552
    H            0.549409474884     1.551098888656     1.140635176860
    H            0.901341135228    -2.045807809490     0.027448031825
    H            2.249915605654    -0.987789073415     0.409295850977
    H            0.848907598317    -1.021596384078     1.455993381818

  Mulliken Charges: (a.u.)
   Center  Symbol    Alpha    Beta     Spin     Total
       1     H     0.44146  0.44146  0.00000  0.11709
       2     C     3.03939  3.03939  0.00000 -0.07878
       3     O     4.18333  4.18333  0.00000 -0.36667
       4     H     0.47115  0.47115  0.00000  0.05769
       5     H     0.46822  0.46822  0.00000  0.06356
       6     C     2.93421  2.93421  0.00000  0.13158
       7     C     3.15523  3.15523  0.00000 -0.31046
       8     C     3.16077  3.16077  0.00000 -0.32155
       9     H     0.44700  0.44700  0.00000  0.10600
      10     H     0.44434  0.44434  0.00000  0.11132
      11     H     0.45087  0.45087  0.00000  0.09826
      12     H     0.45626  0.45626  0.00000  0.08748
      13     H     0.44382  0.44382  0.00000  0.11236
      14     H     0.44860  0.44860  0.00000  0.10280
      15     H     0.45535  0.45535  0.00000  0.08930

   Total alpha = 21.00000, Total beta = 21.00000, Total charge =  0.00000

*** Psi4 exiting successfully. Buy a developer a beer!
