  ==> Input File <==

--------------------------------------------------------------------------
set {
	reference rhf
	basis cc-pvtz
}

set_num_threads( 4 )
memory 2 gb

molecule MOL {
0 1

H	 -2.556457	 -0.318348	 1.785036
C	 -2.493167	 -0.664262	 0.755851
O	 -1.202971	 -0.543661	 0.257461
H	 -2.763902	 -1.709501	 0.723224
H	 -3.207048	 -0.099603	 0.158844
C	 -0.718530	 0.758693	 0.228682
C	 0.718529	 0.758687	 -0.228709
H	 -1.307726	 1.365350	 -0.458911
H	 -0.779916	 1.214111	 1.214712
O	 1.401606	 -0.295166	 0.366636
H	 0.748705	 0.673477	 -1.312803
H	 1.176496	 1.708671	 0.046552
C	 2.714315	 -0.441627	 -0.061017
H	 2.765292	 -0.641548	 -1.128869
H	 3.305661	 0.447341	 0.150952
H	 3.143725	 -1.278506	 0.470147

	symmetry c1
}
set optking {
	frozen_dihedral = ("
		3 6 7 11
	")
}

ee = optimize('scf')
oeprop('DIPOLE', 'QUADRUPOLE', 'MULLIKEN_CHARGES')
f=open( 'psi4out.xyz', 'w' )
f.write( "16  " )
f.write( str(ee) + "\n" )
f.write( MOL.save_string_xyz() )
f.close()
--------------------------------------------------------------------------

    Molecular point group: c1
  Charge       = 0
  Multiplicity = 1
  Basis Set: CC-PVTZ
  Basis Set:
  @DF-RHF Final Energy:  -307.09269372999381
    Total Energy =                       -307.0926937299936412
    Molecular point group: c1
  Basis Set: CC-PVTZ
  Basis Set:
  Basis Set: CC-PVTZ
  Basis Set:
  @DF-RHF Final Energy:  -307.09349964774344
    Total Energy =                       -307.0934996477435561
  Basis Set: CC-PVTZ
  Basis Set:
  Basis Set: CC-PVTZ
  Basis Set:
  @DF-RHF Final Energy:  -307.09365139614488
    Total Energy =                       -307.0936513961452192
  Basis Set: CC-PVTZ
  Basis Set:
  Charge       = 0
  Multiplicity = 1
  Basis Set: CC-PVTZ
  Basis Set:

    Orbital Energies (a.u.)
    -----------------------

    Doubly Occupied:

       1A    -20.548249     2A    -20.546360     3A    -11.268907
       4A    -11.268255     5A    -11.261794     6A    -11.260909
       7A     -1.393539     8A     -1.374032     9A     -1.030540
      10A     -0.936248    11A     -0.896738    12A     -0.820654
      13A     -0.688523    14A     -0.679462    15A     -0.661070
      16A     -0.643983    17A     -0.625692    18A     -0.596315
      19A     -0.564866    20A     -0.523502    21A     -0.509466
      22A     -0.476816    23A     -0.468027    24A     -0.419259
      25A     -0.412305

  @DF-RHF Final Energy:  -307.09365873744525

   => Energetics <=

    Nuclear Repulsion Energy =            259.7571896897617307
    One-Electron Energy =                -933.9506777024499797
    Two-Electron Energy =                 367.0998292752429393
    DFT Exchange-Correlation Energy =       0.0000000000000000
    Empirical Dispersion Energy =           0.0000000000000000
    PCM Polarization Energy =               0.0000000000000000
    EFP Energy =                            0.0000000000000000
    Total Energy =                       -307.0936587374453097
    Molecular point group: c1
  Basis Set: CC-PVTZ
  Basis Set:

  -Total Gradient:
     Atom            X                  Y                   Z
    ------   -----------------  -----------------  -----------------
       1       -0.000013036258    -0.000001411277     0.000005978278
       2       -0.000014586230     0.000003684115     0.000004148391
       3        0.002047798575    -0.000658225954     0.005750127191
       4       -0.000023212585     0.000001180563    -0.000000747673
       5       -0.000022408886    -0.000015439370     0.000008034460
       6       -0.002637301160     0.002904090773    -0.007693946687
       7        0.000481711954    -0.009848589595     0.002263541174
       8        0.000008583242    -0.000047731494    -0.000019245680
       9        0.000006140517    -0.000030016184     0.000006451671
      10        0.000007914987    -0.000058565729    -0.000004495767
      11        0.000084481309     0.007768620152    -0.000322278351
      12        0.000032528934    -0.000027735606    -0.000002932649
      13       -0.000091356366     0.000018276073     0.000015304838
      14        0.000013683287    -0.000000326053     0.000005939237
      15        0.000048105869     0.000004659558    -0.000009409281
      16        0.000070952813    -0.000012469974    -0.000006469151

  **** Optimization is complete! (in 4 steps) ****
    Final optimized geometry and variables:
    Molecular point group: c1

    Geometry (in Angstrom), charge = 0, multiplicity = 1:

    H           -2.685441860754    -0.167284810040     1.554954417332
    C           -2.620020792164    -0.535191912914     0.533039555297
    O           -1.318777877145    -0.473811602584     0.054060289091
    H           -2.929607851092    -1.569896170815     0.516083709953
    H           -3.303613675191     0.044463610158    -0.084628226157
    C           -0.780857885720     0.804019869523     0.032849501575
    C            0.647223410630     0.778256256259    -0.473731843267
    H           -1.362668008464     1.469218596041    -0.604451850910
    H           -0.794577257274     1.219025744583     1.040041666707
    O            1.370524970220    -0.238257434899     0.121797818707
    H            0.664939759717     0.719860108827    -1.561303459640
    H            1.087673379106     1.748115743690    -0.231600232510
    C            2.697173068171    -0.304959306647    -0.282458191755
    H            2.778631683179    -0.479308908005    -1.353055898489
    H            3.235774176533     0.609627634842    -0.041242433602
    H            3.160149603356    -1.129123308932     0.240087664648

  Mulliken Charges: (a.u.)
   Center  Symbol    Alpha    Beta     Spin     Total
       1     H     0.47198  0.47198  0.00000  0.05604
       2     C     3.03117  3.03117  0.00000 -0.06234
       3     O     4.16356  4.16356  0.00000 -0.32711
       4     H     0.44576  0.44576  0.00000  0.10848
       5     H     0.47349  0.47349  0.00000  0.05302
       6     C     2.96323  2.96323  0.00000  0.07353
       7     C     2.96197  2.96197  0.00000  0.07606
       8     H     0.47617  0.47617  0.00000  0.04767
       9     H     0.47499  0.47499  0.00000  0.05003
      10     O     4.16206  4.16206  0.00000 -0.32412
      11     H     0.47434  0.47434  0.00000  0.05132
      12     H     0.47964  0.47964  0.00000  0.04071
      13     C     3.03188  3.03188  0.00000 -0.06376
      14     H     0.47093  0.47093  0.00000  0.05815
      15     H     0.47321  0.47321  0.00000  0.05358
      16     H     0.44563  0.44563  0.00000  0.10875

   Total alpha = 25.00000, Total beta = 25.00000, Total charge = -0.00000
