                              Psi4 1.0.54 Driver

  ==> Input File <==

--------------------------------------------------------------------------
set {
	reference rhf
	basis cc-pvtz
}

set_num_threads( 4 )
memory 2 gb

molecule MOL {
0 1

H	 2.614283	 2.028610	 0.296620
O	 3.358864	 1.662087	 -0.142800
C	 3.565468	 0.338079	 0.273842
C	 2.533667	 -0.637565	 -0.272227
H	 4.548038	 0.064914	 -0.086598
H	 3.593945	 0.282242	 1.360360
C	 1.114816	 -0.402372	 0.240993
H	 2.544552	 -0.580764	 -1.356576
H	 2.850574	 -1.642962	 -0.005497
C	 0.113298	 -1.420414	 -0.302504
H	 0.796373	 0.598427	 -0.031033
H	 1.113377	 -0.446476	 1.328807
C	 0.570362	 -2.878552	 -0.230517
H	 -0.828950	 -1.313092	 0.229360
H	 -0.096735	 -1.177462	 -1.340448
C	 0.706745	 -3.444430	 1.181901
H	 -0.143564	 -3.487000	 -0.778814
H	 1.518690	 -2.983173	 -0.752899
C	 1.067852	 -4.927576	 1.198870
H	 -0.228622	 -3.298265	 1.717805
H	 1.462720	 -2.893903	 1.733649
C	 1.208486	 -5.494877	 2.607517
H	 0.308927	 -5.487724	 0.659569
H	 1.997803	 -5.076457	 0.656571
H	 0.283967	 -5.390192	 3.165676
H	 1.462174	 -6.548523	 2.583439
H	 1.986955	 -4.980323	 3.161207

	symmetry c1
}
set optking {
	frozen_dihedral = ("
		14 10 7 4
	")
}

ee,wfn = optimize('scf', return_wfn=True)
oeprop( wfn, 'DIPOLE', 'QUADRUPOLE', 'MULLIKEN_CHARGES')
f=open( 'psi4out.xyz', 'w' )
f.write( "27  " )
f.write( str(ee) + "\n" )
f.write( MOL.save_string_xyz() )
f.close()
--------------------------------------------------------------------------

    Molecular point group: c1
  Charge       = 0
  Multiplicity = 1
  Basis Set: CC-PVTZ
  Basis Set:
  @DF-RHF Final Energy:  -388.42358114176983
    Total Energy =                       -388.4235811417700006
    Molecular point group: c1
  Basis Set: CC-PVTZ
  Basis Set:
  Basis Set: CC-PVTZ
  Basis Set:
  @DF-RHF Final Energy:  -388.40504035898061
    Total Energy =                       -388.4050403589805001
  Basis Set: CC-PVTZ
  Basis Set:
  Basis Set: CC-PVTZ
  Basis Set:
  @DF-RHF Final Energy:  -388.42426109344484
    Total Energy =                       -388.4242610934447839
  Basis Set: CC-PVTZ
  Basis Set:
  Basis Set: CC-PVTZ
  Basis Set:
  @DF-RHF Final Energy:  -388.42510399058625
    Total Energy =                       -388.4251039905858534
  Basis Set: CC-PVTZ
  Basis Set:
  Basis Set: CC-PVTZ
  Basis Set:
  @DF-RHF Final Energy:  -388.42518854727302
    Total Energy =                       -388.4251885472737058
  Basis Set: CC-PVTZ
  Basis Set:
  Basis Set: CC-PVTZ
  Basis Set:
  @DF-RHF Final Energy:  -388.42520337448104
    Total Energy =                       -388.4252033744810433
  Basis Set: CC-PVTZ
  Basis Set:
  Basis Set: CC-PVTZ
  Basis Set:
  @DF-RHF Final Energy:  -388.42520815003655
    Total Energy =                       -388.4252081500370650
  Basis Set: CC-PVTZ
  Basis Set:
  Charge       = 0
  Multiplicity = 1
  Basis Set: CC-PVTZ
  Basis Set:

    Orbital Energies (a.u.)
    -----------------------

    Doubly Occupied:

       1A    -20.545326     2A    -11.265277     3A    -11.217445
       4A    -11.215129     5A    -11.214202     6A    -11.213089
       7A    -11.212549     8A    -11.211876     9A    -11.207674
      10A     -1.363366    11A     -1.096526    12A     -1.060911
      13A     -1.010655    14A     -0.951507    15A     -0.888709
      16A     -0.832699    17A     -0.800867    18A     -0.763617
      19A     -0.697017    20A     -0.656572    21A     -0.638008
      22A     -0.615294    23A     -0.606334    24A     -0.585233
      25A     -0.572780    26A     -0.555967    27A     -0.546935
      28A     -0.527241    29A     -0.514623    30A     -0.494954
      31A     -0.482805    32A     -0.480220    33A     -0.467072
      34A     -0.457439    35A     -0.448657    36A     -0.440023
      37A     -0.428531

  @DF-RHF Final Energy:  -388.42520857845449

   => Energetics <=

    Nuclear Repulsion Energy =            468.4056560860005334
    One-Electron Energy =               -1455.0874799778675879
    Two-Electron Energy =                 598.2566153134123397
    DFT Exchange-Correlation Energy =       0.0000000000000000
    Empirical Dispersion Energy =           0.0000000000000000
    PCM Polarization Energy =               0.0000000000000000
    EFP Energy =                            0.0000000000000000
    Total Energy =                       -388.4252085784546580
    Molecular point group: c1
  Basis Set: CC-PVTZ
  Basis Set:

  -Total Gradient:
     Atom            X                  Y                   Z
    ------   -----------------  -----------------  -----------------
       1       -0.000017534858     0.000006899993     0.000015622661
       2        0.000014112721    -0.000017703806    -0.000002814428
       3        0.000009927171    -0.000037521487     0.000008254334
       4        0.001010224845    -0.001376870625     0.002342030875
       5       -0.000009290752     0.000002827085    -0.000008576850
       6       -0.000016523882     0.000011479721    -0.000015524563
       7       -0.001035474042     0.001483934219    -0.002730162800
       8        0.000006300758     0.000007058113     0.000024705592
       9        0.000006084980     0.000026777308    -0.000017464767
      10       -0.001690205651     0.002025504253    -0.002294816217
      11       -0.000017226436    -0.000001348656     0.000003930931
      12        0.000011848597     0.000004276827    -0.000006254215
      13       -0.000018163008    -0.000011423591     0.000008789866
      14        0.001733118102    -0.002134303678     0.002690341929
      15       -0.000006386048    -0.000013197259    -0.000002904430
      16        0.000040399274     0.000016174751     0.000004604566
      17       -0.000020609286    -0.000002642818    -0.000019250028
      18        0.000007978061     0.000004168544     0.000003945984
      19       -0.000011521149    -0.000007888650    -0.000008840969
      20       -0.000010390717     0.000007400414    -0.000003568011
      21        0.000024145609     0.000019984391     0.000012639174
      22       -0.000005637957     0.000010951279    -0.000005817169
      23       -0.000017295558    -0.000021502034    -0.000009130788
      24        0.000013183387    -0.000001184040    -0.000006651124
      25       -0.000014187955     0.000003274198     0.000016357657
      26        0.000000215009    -0.000013991976    -0.000002855859
      27        0.000012908786     0.000008867520     0.000003408652

  **** Optimization is complete! (in 8 steps) ****
    Final optimized geometry and variables:
    Molecular point group: c1

    Geometry (in Angstrom), charge = 0, multiplicity = 1:

    H            0.687499113393     3.826946658785    -1.157726249399
    O            1.380047237662     3.413539992915    -1.638242904676
    C            1.788267826743     2.238273417469    -0.989963308280
    C            0.792700876352     1.094029804404    -1.117628733841
    H            2.723759301530     1.955514860831    -1.453514748628
    H            1.996111215104     2.436527240243     0.059830424909
    C           -0.534022542668     1.351261598048    -0.405236064178
    H            0.617760998141     0.907497767096    -2.173517256935
    H            1.264165826219     0.204311440630    -0.713814298016
    C           -1.600328166780     0.262975419666    -0.588613113841
    H           -0.960510523596     2.285977790189    -0.756225082792
    H           -0.336117699997     1.488540053321     0.654984195550
    C           -1.154237014247    -1.181477172450    -0.340382143915
    H           -2.414686897098     0.471875171377     0.099716826307
    H           -2.006316300651     0.331111042194    -1.593058415046
    C           -0.701190672977    -1.470277707731     1.089423174573
    H           -1.992487214929    -1.831726468885    -0.575222793673
    H           -0.364870655064    -1.455293643392    -1.033295044072
    C           -0.345608433644    -2.936577047614     1.321082936778
    H           -1.491084820891    -1.181231880665     1.779407333835
    H            0.158782103611    -0.856085265775     1.340951980719
    C            0.102214020277    -3.227531411613     2.749580760789
    H           -1.204966835268    -3.556252851164     1.080106001290
    H            0.441649117997    -3.228002654721     0.630966275789
    H           -0.676950700684    -2.978399617787     3.462413620923
    H            0.345524004798    -4.275848212937     2.879463284730
    H            0.982900081974    -2.649450990388     3.009568461092

  Mulliken Charges: (a.u.)
   Center  Symbol    Alpha    Beta     Spin     Total
       1     H     0.39261  0.39261  0.00000  0.21478
       2     O     4.20553  4.20553  0.00000 -0.41107
       3     C     2.97801  2.97801  0.00000  0.04398
       4     C     3.09227  3.09227  0.00000 -0.18453
       5     H     0.44825  0.44825  0.00000  0.10350
       6     H     0.46958  0.46958  0.00000  0.06084
       7     C     3.11918  3.11918  0.00000 -0.23836
       8     H     0.44920  0.44920  0.00000  0.10161
       9     H     0.45424  0.45424  0.00000  0.09152
      10     C     3.10186  3.10186  0.00000 -0.20371
      11     H     0.44726  0.44726  0.00000  0.10548
      12     H     0.45022  0.45022  0.00000  0.09957
      13     C     3.10962  3.10962  0.00000 -0.21924
      14     H     0.44884  0.44884  0.00000  0.10231
      15     H     0.44479  0.44479  0.00000  0.11042
      16     C     3.08835  3.08835  0.00000 -0.17670
      17     H     0.44304  0.44304  0.00000  0.11393
      18     H     0.44884  0.44884  0.00000  0.10233
      19     C     3.08411  3.08411  0.00000 -0.16822
      20     H     0.45293  0.45293  0.00000  0.09413
      21     H     0.45480  0.45480  0.00000  0.09039
      22     C     3.14990  3.14990  0.00000 -0.29981
      23     H     0.45362  0.45362  0.00000  0.09276
      24     H     0.45412  0.45412  0.00000  0.09176
      25     H     0.45514  0.45514  0.00000  0.08971
      26     H     0.44808  0.44808  0.00000  0.10383
      27     H     0.45560  0.45560  0.00000  0.08879

   Total alpha = 37.00000, Total beta = 37.00000, Total charge = -0.00000

*** Psi4 exiting successfully. Buy a developer a beer!
