  ==> Input File <==

--------------------------------------------------------------------------
set {
	reference rhf
	basis 6-31G*
}

set_num_threads( 4 )
memory 2 gb

molecule MOL {
0 1

O	 -0.918418	 0.279758	 -1.942494
C	 -1.114573	 0.708894	 -0.851789
C	 -1.924390	 1.938499	 -0.540961
O	 -0.632575	 0.154573	 0.251549
H	 -1.306791	 2.662110	 -0.021437
H	 -2.302154	 2.365216	 -1.458044
H	 -2.747505	 1.678709	 0.114592
C	 0.160891	 -1.019931	 0.106212
C	 1.589627	 -0.672828	 0.480843
H	 0.089836	 -1.367806	 -0.916050
H	 -0.238459	 -1.792301	 0.749618
C	 2.246377	 0.346236	 -0.452210
H	 2.163194	 -1.597435	 0.473358
H	 1.604769	 -0.303424	 1.502885
C	 3.691736	 0.652107	 -0.061850
H	 2.219579	 -0.032311	 -1.472055
H	 1.666466	 1.263317	 -0.447249
H	 4.134505	 1.377213	 -0.737283
H	 4.305508	 -0.243868	 -0.089969
H	 3.748266	 1.059562	 0.943567

	symmetry c1
}
set optking {
	frozen_dihedral = ("
		2 4 8 10
	")
}

ee = optimize('scf')
oeprop('DIPOLE', 'QUADRUPOLE', 'MULLIKEN_CHARGES')
f=open( 'psi4out.xyz', 'w' )
f.write( "20  " )
f.write( str(ee) + "\n" )
f.write( MOL.save_string_xyz() )
f.close()
--------------------------------------------------------------------------

    Molecular point group: c1
  Charge       = 0
  Multiplicity = 1
  Basis Set: 6-31G*
  Basis Set:
  @DF-RHF Final Energy:  -383.94225661813135
    Total Energy =                       -383.9422566181312959
    Molecular point group: c1
  Basis Set: 6-31G*
  Basis Set:
  Basis Set: 6-31G*
  Basis Set:
  @DF-RHF Final Energy:  -383.94318601408929
    Total Energy =                       -383.9431860140889512
  Basis Set: 6-31G*
  Basis Set:
  Basis Set: 6-31G*
  Basis Set:
  @DF-RHF Final Energy:  -383.94244373057614
    Total Energy =                       -383.9424437305759739
  Basis Set: 6-31G*
  Basis Set:
  Basis Set: 6-31G*
  Basis Set:
  @DF-RHF Final Energy:  -383.94352203103927
    Total Energy =                       -383.9435220310396062
  Basis Set: 6-31G*
  Basis Set:
  Basis Set: 6-31G*
  Basis Set:
  @DF-RHF Final Energy:  -383.94356428361942
    Total Energy =                       -383.9435642836192528
  Basis Set: 6-31G*
  Basis Set:
  Basis Set: 6-31G*
  Basis Set:
  @DF-RHF Final Energy:  -383.94357595108909
    Total Energy =                       -383.9435759510889739
  Basis Set: 6-31G*
  Basis Set:
  Basis Set: 6-31G*
  Basis Set:
  @DF-RHF Final Energy:  -383.94358208245472
    Total Energy =                       -383.9435820824545544
  Basis Set: 6-31G*
  Basis Set:
  Charge       = 0
  Multiplicity = 1
  Basis Set: 6-31G*
  Basis Set:

    Orbital Energies (a.u.)
    -----------------------

    Doubly Occupied:

       1A    -20.600658     2A    -20.543456     3A    -11.375911
       4A    -11.280878     5A    -11.232790     6A    -11.224263
       7A    -11.219197     8A    -11.212138     9A     -1.465147
      10A     -1.362520    11A     -1.083808    12A     -1.028371
      13A     -0.980332    14A     -0.885539    15A     -0.808563
      16A     -0.769723    17A     -0.694031    18A     -0.680340
      19A     -0.661623    20A     -0.630973    21A     -0.602305
      22A     -0.593453    23A     -0.572358    24A     -0.548049
      25A     -0.545145    26A     -0.531887    27A     -0.504427
      28A     -0.492421    29A     -0.476214    30A     -0.470906
      31A     -0.439487    32A     -0.438657

  @DF-RHF Final Energy:  -383.94358220890172

   => Energetics <=

    Nuclear Repulsion Energy =            391.9115204955242007
    One-Electron Energy =               -1299.7990669238688497
    Two-Electron Energy =                 523.9439642194432736
    DFT Exchange-Correlation Energy =       0.0000000000000000
    Empirical Dispersion Energy =           0.0000000000000000
    PCM Polarization Energy =               0.0000000000000000
    EFP Energy =                            0.0000000000000000
    Total Energy =                       -383.9435822089013755
    Molecular point group: c1
  Basis Set: 6-31G*
  Basis Set:

  -Total Gradient:
     Atom            X                  Y                   Z
    ------   -----------------  -----------------  -----------------
       1       -0.000000114451     0.000007116017    -0.000016214628
       2        0.000060604111     0.000025713293    -0.000002326526
       3       -0.000001499106    -0.000014519257     0.000005551691
       4       -0.000092156139    -0.000097343396     0.000039920308
       5        0.000003659556     0.000004210509    -0.000000301484
       6        0.000005034445    -0.000005215063    -0.000001362094
       7        0.000002594452     0.000002960632     0.000002347897
       8        0.000106849441     0.000071475046    -0.000065344291
       9        0.000006227967     0.000024239968     0.000001207042
      10       -0.000073441333    -0.000043619474     0.000013908393
      11       -0.000018129885     0.000027741809     0.000004052267
      12       -0.000005459861     0.000008128202     0.000017703514
      13       -0.000011508753    -0.000007118581     0.000001581438
      14        0.000019161789     0.000005768284     0.000004588796
      15        0.000001450899    -0.000008815475    -0.000003245834
      16        0.000004312955    -0.000002566821     0.000008421216
      17       -0.000010563022     0.000006536122    -0.000009458228
      18       -0.000002651334     0.000001110245     0.000002843820
      19        0.000010296630    -0.000002725170    -0.000001286439
      20       -0.000004668357    -0.000003076890    -0.000002586858

  **** Optimization is complete! (in 8 steps) ****
    Final optimized geometry and variables:
    Molecular point group: c1

    Geometry (in Angstrom), charge = 0, multiplicity = 1:

    O           -1.370247340654     0.012945163737    -1.595602989069
    C           -1.546536610586     0.411477958841    -0.490133423646
    C           -2.393444835935     1.603972266518    -0.135069577534
    O           -1.022294781604    -0.137463267773     0.598280534686
    H           -1.791935326406     2.337306030260     0.389536463955
    H           -2.805044341367     2.037013892221    -1.034441511436
    H           -3.192643790182     1.298959038874     0.530510238671
    C           -0.191558631440    -1.291830801851     0.483072577195
    C            1.238087411815    -0.961686498166     0.880718239631
    H           -0.247202183283    -1.672133795691    -0.524305209058
    H           -0.612103051321    -2.023871909645     1.159737749518
    C            1.938514729472     0.025200523621    -0.054702997812
    H            1.792110897724    -1.898450809524     0.903082747299
    H            1.240598769704    -0.573645311703     1.896084955116
    C            3.390385947366     0.281381143106     0.347892240872
    H            1.902624765956    -0.353135283035    -1.072901214424
    H            1.397142400576     0.966726909844    -0.058165015885
    H            3.863402924716     0.989366566924    -0.325073669015
    H            3.972611125684    -0.635571455281     0.325540023932
    H            3.453355282109     0.687837288249     1.353432853694

  Mulliken Charges: (a.u.)
   Center  Symbol    Alpha    Beta     Spin     Total
       1     O     4.28394  4.28394  0.00000 -0.56787
       2     C     2.61757  2.61757  0.00000  0.76486
       3     C     3.28247  3.28247  0.00000 -0.56494
       4     O     4.31078  4.31078  0.00000 -0.62157
       5     H     0.40104  0.40104  0.00000  0.19791
       6     H     0.39719  0.39719  0.00000  0.20561
       7     H     0.40032  0.40032  0.00000  0.19935
       8     C     3.01272  3.01272  0.00000 -0.02543
       9     C     3.16123  3.16123  0.00000 -0.32247
      10     H     0.39526  0.39526  0.00000  0.20949
      11     H     0.41136  0.41136  0.00000  0.17728
      12     C     3.15650  3.15650  0.00000 -0.31299
      13     H     0.42016  0.42016  0.00000  0.15969
      14     H     0.41552  0.41552  0.00000  0.16896
      15     C     3.24017  3.24017  0.00000 -0.48034
      16     H     0.41465  0.41465  0.00000  0.17071
      17     H     0.41924  0.41924  0.00000  0.16152
      18     H     0.41694  0.41694  0.00000  0.16612
      19     H     0.42156  0.42156  0.00000  0.15689
      20     H     0.42139  0.42139  0.00000  0.15723

   Total alpha = 32.00000, Total beta = 32.00000, Total charge = -0.00000
