                              Psi4 1.0.54 Driver

  ==> Input File <==

--------------------------------------------------------------------------
set {
	reference rhf
	basis cc-pvtz
}

set_num_threads( 4 )
memory 2 gb

molecule MOL {
0 1

H	 -3.436473	 1.252944	 -1.023892
O	 -3.458596	 0.315260	 -0.960865
C	 -3.176635	 -0.080824	 0.355601
C	 -1.763371	 0.265266	 0.799691
H	 -3.321825	 -1.153438	 0.379502
H	 -3.895468	 0.357385	 1.043382
C	 -0.673390	 -0.426948	 -0.013392
H	 -1.631049	 1.344913	 0.747560
H	 -1.664587	 -0.001624	 1.849167
C	 0.737842	 -0.043159	 0.423759
H	 -0.806103	 -0.190518	 -1.063345
H	 -0.797221	 -1.503753	 0.074146
C	 1.818215	 -0.587271	 -0.508863
H	 0.807038	 1.038946	 0.479893
H	 0.916962	 -0.412975	 1.431236
C	 3.254247	 -0.297410	 -0.068816
H	 1.663133	 -0.187828	 -1.508486
H	 1.694689	 -1.663610	 -0.591662
C	 3.643114	 1.178876	 -0.091294
H	 3.929338	 -0.844012	 -0.720164
H	 3.410227	 -0.695630	 0.930439
H	 3.491836	 1.606070	 -1.077548
H	 4.688889	 1.304851	 0.165079
H	 3.063458	 1.762144	 0.613973

	symmetry c1
}
set optking {
	frozen_dihedral = ("
		13 10 7 11
	")
}

ee,wfn = optimize('scf', return_wfn=True)
oeprop( wfn, 'DIPOLE', 'QUADRUPOLE', 'MULLIKEN_CHARGES')
f=open( 'psi4out.xyz', 'w' )
f.write( "24  " )
f.write( str(ee) + "\n" )
f.write( MOL.save_string_xyz() )
f.close()
--------------------------------------------------------------------------

    Molecular point group: c1
  Charge       = 0
  Multiplicity = 1
  Basis Set: CC-PVTZ
  Basis Set:
  @DF-RHF Final Energy:  -349.38018539889720
    Total Energy =                       -349.3801853988975381
    Molecular point group: c1
  Basis Set: CC-PVTZ
  Basis Set:
  Basis Set: CC-PVTZ
  Basis Set:
  @DF-RHF Final Energy:  -349.38020603120850
    Total Energy =                       -349.3802060312081608
  Basis Set: CC-PVTZ
  Basis Set:
  Basis Set: CC-PVTZ
  Basis Set:
  @DF-RHF Final Energy:  -349.38022092060595
    Total Energy =                       -349.3802209206056659
  Basis Set: CC-PVTZ
  Basis Set:
  Basis Set: CC-PVTZ
  Basis Set:
  @DF-RHF Final Energy:  -349.38022159251727
    Total Energy =                       -349.3802215925169321
  Basis Set: CC-PVTZ
  Basis Set:
  Basis Set: CC-PVTZ
  Basis Set:
  @DF-RHF Final Energy:  -349.38022446998997
    Total Energy =                       -349.3802244699901394
  Basis Set: CC-PVTZ
  Basis Set:
  Charge       = 0
  Multiplicity = 1
  Basis Set: CC-PVTZ
  Basis Set:

    Orbital Energies (a.u.)
    -----------------------

    Doubly Occupied:

       1A    -20.546247     2A    -11.265525     3A    -11.215294
       4A    -11.212078     5A    -11.210198     6A    -11.209446
       7A    -11.208983     8A    -11.205334     9A     -1.364098
      10A     -1.089815    11A     -1.049428    12A     -0.986761
      13A     -0.915977    14A     -0.851374    15A     -0.801747
      16A     -0.776595    17A     -0.681994    18A     -0.653340
      19A     -0.627304    20A     -0.620659    21A     -0.598526
      22A     -0.586989    23A     -0.556215    24A     -0.544014
      25A     -0.515780    26A     -0.507788    27A     -0.501849
      28A     -0.471795    29A     -0.468535    30A     -0.461030
      31A     -0.457136    32A     -0.450967    33A     -0.421227

  @DF-RHF Final Energy:  -349.38022452019658

   => Energetics <=

    Nuclear Repulsion Energy =            384.9785826260073804
    One-Electron Energy =               -1236.6495163431670790
    Two-Electron Energy =                 502.2907091969632347
    DFT Exchange-Correlation Energy =       0.0000000000000000
    Empirical Dispersion Energy =           0.0000000000000000
    PCM Polarization Energy =               0.0000000000000000
    EFP Energy =                            0.0000000000000000
    Total Energy =                       -349.3802245201964070
    Molecular point group: c1
  Basis Set: CC-PVTZ
  Basis Set:

  -Total Gradient:
     Atom            X                  Y                   Z
    ------   -----------------  -----------------  -----------------
       1        0.000000342144     0.000003409329     0.000001422648
       2        0.000003625696    -0.000015087647    -0.000029276773
       3       -0.000010770289     0.000031133849     0.000019898429
       4        0.000001276521    -0.000020954960     0.000007185233
       5       -0.000000908557    -0.000002038644    -0.000004061460
       6       -0.000003620094    -0.000004896684     0.000006186878
       7       -0.000623223423     0.002092201567     0.000209829440
       8       -0.000000309785    -0.000001467025    -0.000003165767
       9        0.000005281730    -0.000002171799     0.000009839818
      10        0.000196519100    -0.001608131966     0.000758655103
      11        0.000487741633    -0.001390872125    -0.000373151445
      12       -0.000001432122     0.000003467701     0.000009620639
      13       -0.000057554913     0.000919334221    -0.000622224433
      14       -0.000005338824    -0.000004219540    -0.000001023190
      15        0.000002351789    -0.000003248326     0.000001972092
      16        0.000003566173    -0.000006755610     0.000006516717
      17       -0.000002067074    -0.000000427396    -0.000001999884
      18       -0.000003534640     0.000003409681     0.000002104521
      19        0.000002487152     0.000005822164     0.000001694468
      20       -0.000003965623     0.000003108114     0.000004418336
      21        0.000004354803    -0.000001185351    -0.000000213361
      22       -0.000000326285     0.000000991880    -0.000001582094
      23       -0.000001335899     0.000001719634     0.000001354723
      24        0.000006840784    -0.000003141067    -0.000004000641

  **** Optimization is complete! (in 6 steps) ****
    Final optimized geometry and variables:
    Molecular point group: c1

    Geometry (in Angstrom), charge = 0, multiplicity = 1:

    H           -3.462861623124     1.146072494829    -1.007749836063
    O           -3.471709067662     0.209900370831    -0.922889697525
    C           -3.167241667884    -0.151783608111     0.398359035958
    C           -1.753881146454     0.225379505022     0.815976619866
    H           -3.295743517782    -1.225625765355     0.447871648405
    H           -3.883949235170     0.290921018717     1.085513123990
    C           -0.664024084204    -0.460585080849    -0.001475541444
    H           -1.640587810152     1.306038317466     0.745065221385
    H           -1.635386697149    -0.023071226880     1.868064283743
    C            0.749406427060    -0.078135602790     0.431875872978
    H           -0.798130952517    -0.232993043389    -1.053199317495
    H           -0.783568867280    -1.538229371206     0.085547029490
    C            1.826418329534    -0.634432504963    -0.497544177724
    H            0.824943301108     1.004501223830     0.471055412413
    H            0.926219502736    -0.432482071832     1.445005190247
    C            3.264505785981    -0.371339289440    -0.047564972475
    H            1.682637240646    -0.224722243574    -1.494514789648
    H            1.686370557731    -1.708185209728    -0.589796605420
    C            3.673770313668     1.099636068787    -0.045934373949
    H            3.934640703528    -0.917417915964    -0.704440250079
    H            3.410838216432    -0.786734303282     0.946115448434
    H            3.529946665724     1.544711159592    -1.025407030081
    H            4.720763645528     1.207095170196     0.213832353762
    H            3.101029450276     1.679385878050     0.667831696444

  Mulliken Charges: (a.u.)
   Center  Symbol    Alpha    Beta     Spin     Total
       1     H     0.39528  0.39528  0.00000  0.20943
       2     O     4.20367  4.20367  0.00000 -0.40734
       3     C     2.97767  2.97767  0.00000  0.04465
       4     C     3.10197  3.10197  0.00000 -0.20394
       5     H     0.45890  0.45890  0.00000  0.08220
       6     H     0.46040  0.46040  0.00000  0.07919
       7     C     3.08643  3.08643  0.00000 -0.17285
       8     H     0.45916  0.45916  0.00000  0.08167
       9     H     0.45344  0.45344  0.00000  0.09313
      10     C     3.09195  3.09195  0.00000 -0.18389
      11     H     0.44685  0.44685  0.00000  0.10630
      12     H     0.45483  0.45483  0.00000  0.09033
      13     C     3.09446  3.09446  0.00000 -0.18891
      14     H     0.45420  0.45420  0.00000  0.09160
      15     H     0.45524  0.45524  0.00000  0.08952
      16     C     3.09011  3.09011  0.00000 -0.18021
      17     H     0.45365  0.45365  0.00000  0.09270
      18     H     0.44972  0.44972  0.00000  0.10055
      19     C     3.15277  3.15277  0.00000 -0.30554
      20     H     0.44862  0.44862  0.00000  0.10275
      21     H     0.45510  0.45510  0.00000  0.08980
      22     H     0.45495  0.45495  0.00000  0.09010
      23     H     0.44653  0.44653  0.00000  0.10694
      24     H     0.45409  0.45409  0.00000  0.09182

   Total alpha = 33.00000, Total beta = 33.00000, Total charge = -0.00000

*** Psi4 exiting successfully. Buy a developer a beer!
