  ==> Input File <==

--------------------------------------------------------------------------
set {
	reference rhf
	basis cc-pvtz
}

set_num_threads( 4 )
memory 2 gb

molecule MOL {
0 1

H	 -2.830262	 0.333238	 -0.228236
O	 -2.041679	 -0.058866	 0.103463
C	 -0.959304	 0.780994	 -0.094939
C	 0.354905	 0.037902	 -0.006215
H	 -0.985899	 1.279578	 -1.057596
H	 -0.969809	 1.529522	 0.682889
F	 0.412060	 -0.931028	 -0.902708
F	 1.359641	 0.856111	 -0.239961
F	 0.545380	 -0.506387	 1.171682

	symmetry c1
}
set optking {
	frozen_dihedral = ("
		1 2 3 5
	")
}

ee = optimize('scf')
oeprop('DIPOLE', 'QUADRUPOLE', 'MULLIKEN_CHARGES')
f=open( 'psi4out.xyz', 'w' )
f.write( "9  " )
f.write( str(ee) + "\n" )
f.write( MOL.save_string_xyz() )
f.close()
--------------------------------------------------------------------------

    Molecular point group: c1
  Charge       = 0
  Multiplicity = 1
  Basis Set: CC-PVTZ
  Basis Set:
  @DF-RHF Final Energy:  -450.84300647390603
    Total Energy =                       -450.8430064739061436
    Molecular point group: c1
  Basis Set: CC-PVTZ
  Basis Set:
  Basis Set: CC-PVTZ
  Basis Set:
  @DF-RHF Final Energy:  -450.84421015802832
    Total Energy =                       -450.8442101580283747
  Basis Set: CC-PVTZ
  Basis Set:
  Basis Set: CC-PVTZ
  Basis Set:
  @DF-RHF Final Energy:  -450.84449065520084
    Total Energy =                       -450.8444906552006728
  Basis Set: CC-PVTZ
  Basis Set:
  Basis Set: CC-PVTZ
  Basis Set:
  @DF-RHF Final Energy:  -450.84450002304692
    Total Energy =                       -450.8445000230470896
  Basis Set: CC-PVTZ
  Basis Set:
  Charge       = 0
  Multiplicity = 1
  Basis Set: CC-PVTZ
  Basis Set:

    Orbital Energies (a.u.)
    -----------------------

    Doubly Occupied:

       1A    -26.333702     2A    -26.330223     3A    -26.330041
       4A    -20.582554     5A    -11.490629     6A    -11.310088
       7A     -1.741937     8A     -1.638180     9A     -1.636588
      10A     -1.406298    11A     -1.050736    12A     -0.923535
      13A     -0.833240    14A     -0.831531    15A     -0.788772
      16A     -0.739542    17A     -0.713950    18A     -0.703922
      19A     -0.672432    20A     -0.657460    21A     -0.642767
      22A     -0.641693    23A     -0.600379    24A     -0.531481
      25A     -0.483393

  @DF-RHF Final Energy:  -450.84450322882259

   => Energetics <=

    Nuclear Repulsion Energy =            277.7865274045475985
    One-Electron Energy =               -1178.0319128623737015
    Two-Electron Energy =                 449.4008822290035710
    DFT Exchange-Correlation Energy =       0.0000000000000000
    Empirical Dispersion Energy =           0.0000000000000000
    PCM Polarization Energy =               0.0000000000000000
    EFP Energy =                            0.0000000000000000
    Total Energy =                       -450.8445032288225889
    Molecular point group: c1
  Basis Set: CC-PVTZ
  Basis Set:

  -Total Gradient:
     Atom            X                  Y                   Z
    ------   -----------------  -----------------  -----------------
       1        0.000044881633    -0.000122154014    -0.000243089426
       2       -0.000004982386     0.000297380163     0.000265476683
       3        0.000133165196    -0.000339895360    -0.000100716936
       4        0.000099824670     0.000187095563     0.000048052501
       5       -0.000177934241     0.000143376105     0.000092345948
       6       -0.000017446733     0.000023615260     0.000004944527
       7        0.000032844434    -0.000040912437    -0.000047610313
       8       -0.000087782559    -0.000116386869    -0.000022730036
       9       -0.000022570013    -0.000032118408     0.000003327048

  **** Optimization is complete! (in 5 steps) ****
    Final optimized geometry and variables:
    Molecular point group: c1

    Geometry (in Angstrom), charge = 0, multiplicity = 1:

    H           -2.792800269285     0.267450097166    -0.228737815357
    O           -1.994786771948    -0.077016948373     0.126359200784
    C           -0.942887527076     0.797709805860    -0.101201297827
    C            0.350771857374     0.023005372357    -0.020035397268
    H           -0.981639540239     1.249483775529    -1.085365678947
    H           -0.896468608895     1.584386619433     0.643701623318
    F            0.425599603089    -0.910472652041    -0.940418991697
    F            1.366606614112     0.845233298389    -0.202267246843
    F            0.509002471186    -0.552827907639     1.148443748739

  Mulliken Charges: (a.u.)
   Center  Symbol    Alpha    Beta     Spin     Total
       1     H     0.38913  0.38913  0.00000  0.22174
       2     O     4.18631  4.18631  0.00000 -0.37261
       3     C     2.98610  2.98610  0.00000  0.02780
       4     C     2.67650  2.67650  0.00000  0.64700
       5     H     0.46481  0.46481  0.00000  0.07039
       6     H     0.46492  0.46492  0.00000  0.07017
       7     F     4.60933  4.60933  0.00000 -0.21866
       8     F     4.61430  4.61430  0.00000 -0.22860
       9     F     4.60861  4.60861  0.00000 -0.21722

   Total alpha = 25.00000, Total beta = 25.00000, Total charge =  0.00000
