  ==> Input File <==

--------------------------------------------------------------------------
set {
	reference rhf
	basis 6-31G*
}

set_num_threads( 4 )
memory 2 gb

molecule MOL {
0 1

O	 0.960140	 -1.775205	 -1.905696
C	 0.218458	 -1.507699	 -1.017032
C	 -1.196338	 -2.002449	 -0.889986
O	 0.550821	 -0.724572	 0.000672
H	 -1.309703	 -2.553234	 0.036550
H	 -1.434438	 -2.637619	 -1.730081
H	 -1.876906	 -1.159667	 -0.856450
C	 1.863949	 -0.193559	 -0.000319
H	 2.028859	 0.409284	 -0.881648
H	 2.526261	 -1.045082	 -0.000003
H	 2.029520	 0.410555	 0.880008

	symmetry c1
}
set optking {
	frozen_dihedral = ("
		2 4 8 9
	")
}

ee = optimize('scf')
oeprop('DIPOLE', 'QUADRUPOLE', 'MULLIKEN_CHARGES')
f=open( 'psi4out.xyz', 'w' )
f.write( "11  " )
f.write( str(ee) + "\n" )
f.write( MOL.save_string_xyz() )
f.close()
--------------------------------------------------------------------------

    Molecular point group: c1
  Charge       = 0
  Multiplicity = 1
  Basis Set: 6-31G*
  Basis Set:
  @DF-RHF Final Energy:  -266.83479791025343
    Total Energy =                       -266.8347979102532008
    Molecular point group: c1
  Basis Set: 6-31G*
  Basis Set:
  Basis Set: 6-31G*
  Basis Set:
  @DF-RHF Final Energy:  -266.83609281406882
    Total Energy =                       -266.8360928140687633
  Basis Set: 6-31G*
  Basis Set:
  Basis Set: 6-31G*
  Basis Set:
  @DF-RHF Final Energy:  -266.83643216017754
    Total Energy =                       -266.8364321601775373
  Basis Set: 6-31G*
  Basis Set:
  Basis Set: 6-31G*
  Basis Set:
  @DF-RHF Final Energy:  -266.83608662999109
    Total Energy =                       -266.8360866299908594
  Basis Set: 6-31G*
  Basis Set:
  Basis Set: 6-31G*
  Basis Set:
  @DF-RHF Final Energy:  -266.83644181114590
    Total Energy =                       -266.8364418111455052
  Basis Set: 6-31G*
  Basis Set:
  Charge       = 0
  Multiplicity = 1
  Basis Set: 6-31G*
  Basis Set:

    Orbital Energies (a.u.)
    -----------------------

    Doubly Occupied:

       1A    -20.605925     2A    -20.546582     3A    -11.376486
       4A    -11.282132     5A    -11.234757     6A     -1.471315
       7A     -1.364589     8A     -1.036001     9A     -0.952947
      10A     -0.778266    11A     -0.695830    12A     -0.681232
      13A     -0.677245    14A     -0.595191    15A     -0.592049
      16A     -0.560752    17A     -0.524675    18A     -0.524025
      19A     -0.458042    20A     -0.442435

  @DF-RHF Final Energy:  -266.83644227888357

   => Energetics <=

    Nuclear Repulsion Energy =            183.3416809865410642
    One-Electron Energy =                -727.5552926682757970
    Two-Electron Energy =                 277.3771694028508819
    DFT Exchange-Correlation Energy =       0.0000000000000000
    Empirical Dispersion Energy =           0.0000000000000000
    PCM Polarization Energy =               0.0000000000000000
    EFP Energy =                            0.0000000000000000
    Total Energy =                       -266.8364422788838510
    Molecular point group: c1
  Basis Set: 6-31G*
  Basis Set:

  -Total Gradient:
     Atom            X                  Y                   Z
    ------   -----------------  -----------------  -----------------
       1       -0.000013939029    -0.000027780222    -0.000020181236
       2        0.000023404041     0.000100188059    -0.000073268985
       3        0.000024554078    -0.000014129900     0.000034528742
       4        0.000067825907     0.000019435533     0.000024772543
       5       -0.000007870243    -0.000006011373     0.000003894518
       6        0.000017799794    -0.000000126417     0.000002730541
       7        0.000011120929     0.000007073471    -0.000000986027
       8       -0.000011891412     0.000000299357     0.000077764200
       9       -0.000062414042    -0.000057094518    -0.000053900266
      10       -0.000024024850    -0.000024427476    -0.000001636834
      11       -0.000024565174     0.000002573489     0.000006282803

  **** Optimization is complete! (in 6 steps) ****
    Final optimized geometry and variables:
    Molecular point group: c1

    Geometry (in Angstrom), charge = 0, multiplicity = 1:

    O            0.454305383582    -0.544792544682    -1.155182431947
    C           -0.280665667709    -0.276788193651    -0.261083029654
    C           -1.697904245754    -0.762951754545    -0.128437988703
    O            0.061302095297     0.501693150303     0.757054955497
    H           -1.809751448717    -1.316697772083     0.796533099240
    H           -1.944542047138    -1.393215911959    -0.969670638363
    H           -2.372881476600     0.084095008980    -0.087881469379
    C            1.377334486754     1.025093965762     0.750407901444
    H            1.540626204485     1.629213274668    -0.130299456289
    H            2.103531110702     0.225329788009     0.772750777961
    H            1.458760024719     1.629681481386     1.640121360992

  Mulliken Charges: (a.u.)
   Center  Symbol    Alpha    Beta     Spin     Total
       1     O     4.28203  4.28203  0.00000 -0.56405
       2     C     2.62257  2.62257  0.00000  0.75486
       3     C     3.28174  3.28174  0.00000 -0.56348
       4     O     4.29928  4.29928  0.00000 -0.59855
       5     H     0.39989  0.39989  0.00000  0.20022
       6     H     0.39656  0.39656  0.00000  0.20687
       7     H     0.39990  0.39990  0.00000  0.20021
       8     C     3.09252  3.09252  0.00000 -0.18505
       9     H     0.40844  0.40844  0.00000  0.18312
      10     H     0.40873  0.40873  0.00000  0.18255
      11     H     0.40834  0.40834  0.00000  0.18331

   Total alpha = 20.00000, Total beta = 20.00000, Total charge = -0.00000
