                              Psi4 1.0.54 Driver

  ==> Input File <==

--------------------------------------------------------------------------
set {
	reference rhf
	basis cc-pvtz
}

set_num_threads( 4 )
memory 2 gb

molecule MOL {
0 1

H	 1.355354	 0.616977	 0.956638
C	 0.848385	 0.440008	 0.000011
C	 -0.623497	 0.751021	 0.000090
O	 1.457165	 0.035513	 -0.928975
C	 -1.523725	 -0.474323	 -0.000013
H	 -0.813143	 1.382932	 -0.864897
H	 -0.813071	 1.382716	 0.865253
H	 -1.342980	 -1.087348	 -0.873016
H	 -2.565269	 -0.177464	 0.000070
H	 -1.342898	 -1.087564	 0.872820

	symmetry c1
}
set optking {
	frozen_dihedral = ("
		4 2 3 6
	")
}

ee,wfn = optimize('scf', return_wfn=True)
oeprop( wfn, 'DIPOLE', 'QUADRUPOLE', 'MULLIKEN_CHARGES')
f=open( 'psi4out.xyz', 'w' )
f.write( "10  " )
f.write( str(ee) + "\n" )
f.write( MOL.save_string_xyz() )
f.close()
--------------------------------------------------------------------------

    Molecular point group: c1
  Charge       = 0
  Multiplicity = 1
  Basis Set: CC-PVTZ
  Basis Set:
  @DF-RHF Final Energy:  -192.02064566277971
    Total Energy =                       -192.0206456627797991
    Molecular point group: c1
  Basis Set: CC-PVTZ
  Basis Set:
  Basis Set: CC-PVTZ
  Basis Set:
  @DF-RHF Final Energy:  -192.02057350949573
    Total Energy =                       -192.0205735094955912
  Basis Set: CC-PVTZ
  Basis Set:
  Basis Set: CC-PVTZ
  Basis Set:
  @DF-RHF Final Energy:  -192.02122227712488
    Total Energy =                       -192.0212222771248776
  Basis Set: CC-PVTZ
  Basis Set:
  Basis Set: CC-PVTZ
  Basis Set:
  @DF-RHF Final Energy:  -192.02111539348340
    Total Energy =                       -192.0211153934835977
  Basis Set: CC-PVTZ
  Basis Set:
  Basis Set: CC-PVTZ
  Basis Set:
  @DF-RHF Final Energy:  -192.02153902251476
    Total Energy =                       -192.0215390225147303
  Basis Set: CC-PVTZ
  Basis Set:
  Charge       = 0
  Multiplicity = 1
  Basis Set: CC-PVTZ
  Basis Set:

    Orbital Energies (a.u.)
    -----------------------

    Doubly Occupied:

       1A    -20.553460     2A    -11.323216     3A    -11.237492
       4A    -11.227938     5A     -1.408894     6A     -1.062783
       7A     -0.905749     8A     -0.786389     9A     -0.685574
      10A     -0.642590    11A     -0.608123    12A     -0.574660
      13A     -0.540152    14A     -0.510971    15A     -0.497029
      16A     -0.414338

  @DF-RHF Final Energy:  -192.02154081805446

   => Energetics <=

    Nuclear Repulsion Energy =            118.6501347699434490
    One-Electron Energy =                -495.3846320868926796
    Two-Electron Energy =                 184.7129564988947834
    DFT Exchange-Correlation Energy =       0.0000000000000000
    Empirical Dispersion Energy =           0.0000000000000000
    PCM Polarization Energy =               0.0000000000000000
    EFP Energy =                            0.0000000000000000
    Total Energy =                       -192.0215408180544330
    Molecular point group: c1
  Basis Set: CC-PVTZ
  Basis Set:

  -Total Gradient:
     Atom            X                  Y                   Z
    ------   -----------------  -----------------  -----------------
       1       -0.000022542425     0.000002183326     0.000035898955
       2        0.000231223622     0.001189394453    -0.000172476517
       3       -0.000082262860    -0.001035271089    -0.000449608505
       4       -0.000173934239    -0.000723691006     0.000178053364
       5       -0.000001665433     0.000007429443     0.000025763574
       6        0.000047540677     0.000598791974     0.000388933803
       7        0.000020079813    -0.000025661559     0.000003106610
       8        0.000006728500    -0.000003311507    -0.000019307563
       9       -0.000024058325     0.000001877974    -0.000001638685
      10       -0.000001109328    -0.000011742011     0.000011274964

  **** Optimization is complete! (in 6 steps) ****
    Final optimized geometry and variables:
    Molecular point group: c1

    Geometry (in Angstrom), charge = 0, multiplicity = 1:

    H            1.207471594111     0.487664981269     1.319754771222
    C            0.762188951563     0.325709339315     0.330809471017
    C           -0.727985505777     0.544432480444     0.217847786280
    O            1.440327175217    -0.025388862266    -0.571912012349
    C           -1.470740748544    -0.784767318907     0.059959760006
    H           -0.904538922935     1.174366808318    -0.646018547407
    H           -1.083118161961     1.073127231657     1.094959123123
    H           -1.127166954475    -1.307140628636    -0.822601332932
    H           -2.535384833821    -0.612849687499    -0.033856002562
    H           -1.311696649622    -1.428768592304     0.917722091855

  Mulliken Charges: (a.u.)
   Center  Symbol    Alpha    Beta     Spin     Total
       1     H     0.45909  0.45909  0.00000  0.08181
       2     C     2.90618  2.90618  0.00000  0.18765
       3     C     3.08313  3.08313  0.00000 -0.16627
       4     O     4.16808  4.16808  0.00000 -0.33616
       5     C     3.14454  3.14454  0.00000 -0.28908
       6     H     0.44358  0.44358  0.00000  0.11284
       7     H     0.45114  0.45114  0.00000  0.09772
       8     H     0.44263  0.44263  0.00000  0.11474
       9     H     0.44756  0.44756  0.00000  0.10488
      10     H     0.45407  0.45407  0.00000  0.09186

   Total alpha = 16.00000, Total beta = 16.00000, Total charge =  0.00000

*** Psi4 exiting successfully. Buy a developer a beer!
