  ==> Input File <==

--------------------------------------------------------------------------
set {
	reference rhf
	basis 6-31G*
}

set_num_threads( 4 )
memory 2 gb

molecule MOL {
0 1

H	 -1.019963	 -0.859516	 -1.003954
O	 -1.422729	 -0.573567	 -0.196946
C	 -0.731407	 0.539437	 0.309156
C	 0.680193	 0.672443	 -0.251532
H	 -1.319765	 1.404033	 0.030086
H	 -0.700012	 0.506517	 1.397677
C	 1.599139	 -0.492137	 0.118598
H	 0.616402	 0.758534	 -1.332349
H	 1.107032	 1.602637	 0.117369
H	 1.239738	 -1.428634	 -0.297334
H	 2.601428	 -0.335055	 -0.265730
H	 1.674954	 -0.608418	 1.197020

	symmetry c1
}
set optking {
	frozen_dihedral = ("
		1 2 3 4
	")
}

ee = optimize('scf')
oeprop('DIPOLE', 'QUADRUPOLE', 'MULLIKEN_CHARGES')
f=open( 'psi4out.xyz', 'w' )
f.write( "12  " )
f.write( str(ee) + "\n" )
f.write( MOL.save_string_xyz() )
f.close()
--------------------------------------------------------------------------

    Molecular point group: c1
  Charge       = 0
  Multiplicity = 1
  Basis Set: 6-31G*
  Basis Set:
  @DF-RHF Final Energy:  -193.10684433420565
    Total Energy =                       -193.1068443342057037
    Molecular point group: c1
  Basis Set: 6-31G*
  Basis Set:
  Basis Set: 6-31G*
  Basis Set:
  @DF-RHF Final Energy:  -193.10759822966097
    Total Energy =                       -193.1075982296609368
  Basis Set: 6-31G*
  Basis Set:
  Basis Set: 6-31G*
  Basis Set:
  @DF-RHF Final Energy:  -193.10794791020689
    Total Energy =                       -193.1079479102070593
  Basis Set: 6-31G*
  Basis Set:
  Basis Set: 6-31G*
  Basis Set:
  @DF-RHF Final Energy:  -193.10794945322542
    Total Energy =                       -193.1079494532253875
  Basis Set: 6-31G*
  Basis Set:
  Basis Set: 6-31G*
  Basis Set:
  @DF-RHF Final Energy:  -193.10795567878128
    Total Energy =                       -193.1079556787811953
  Basis Set: 6-31G*
  Basis Set:
  Charge       = 0
  Multiplicity = 1
  Basis Set: 6-31G*
  Basis Set:

    Orbital Energies (a.u.)
    -----------------------

    Doubly Occupied:

       1A    -20.550839     2A    -11.267573     3A    -11.227452
       4A    -11.217542     5A     -1.358146     6A     -1.054357
       7A     -0.926680     8A     -0.820175     9A     -0.661774
      10A     -0.645159    11A     -0.637567    12A     -0.572776
      13A     -0.545690    14A     -0.512804    15A     -0.492472
      16A     -0.465884    17A     -0.430828

  @DF-RHF Final Energy:  -193.10795628831400

   => Energetics <=

    Nuclear Repulsion Energy =            133.1568447204628853
    One-Electron Energy =                -525.7541613660428084
    Two-Electron Energy =                 199.4893603572659231
    DFT Exchange-Correlation Energy =       0.0000000000000000
    Empirical Dispersion Energy =           0.0000000000000000
    PCM Polarization Energy =               0.0000000000000000
    EFP Energy =                            0.0000000000000000
    Total Energy =                       -193.1079562883139715
    Molecular point group: c1
  Basis Set: 6-31G*
  Basis Set:

  -Total Gradient:
     Atom            X                  Y                   Z
    ------   -----------------  -----------------  -----------------
       1        0.001487889990    -0.001513909206     0.001298277234
       2       -0.002069648475     0.002239706353    -0.002141160992
       3        0.001135066460    -0.001631645132     0.002044999705
       4       -0.000554851399     0.000865937806    -0.001171519624
       5        0.000000305321    -0.000011417647    -0.000013345201
       6       -0.000000989669     0.000024175885     0.000007269876
       7        0.000018293363     0.000007242455    -0.000013269560
       8       -0.000008124637     0.000004337523    -0.000001753052
       9        0.000018974564     0.000005382925    -0.000011817097
      10       -0.000026628952     0.000003217180    -0.000010037713
      11        0.000002668018     0.000005852469     0.000010023537
      12       -0.000002954582     0.000001119389     0.000002332886

  **** Optimization is complete! (in 6 steps) ****
    Final optimized geometry and variables:
    Molecular point group: c1

    Geometry (in Angstrom), charge = 0, multiplicity = 1:

    H           -1.021763728963    -0.886188216141    -0.983839303252
    O           -1.424256479131    -0.587418413744    -0.181623734969
    C           -0.734669122715     0.531663214116     0.318849987974
    C            0.681215489634     0.667646893959    -0.228877922683
    H           -1.297861652770     1.432155901396     0.085983358077
    H           -0.710353699870     0.433438211257     1.398545170278
    C            1.598530058626    -0.497163005995     0.146451798431
    H            0.631824343385     0.768724872190    -1.312617561886
    H            1.102369118356     1.598282622527     0.142321366761
    H            1.214741727987    -1.444376018720    -0.218078278087
    H            2.591393132200    -0.360377633571    -0.269540639440
    H            1.696674338755    -0.579248488994     1.224667920528

  Mulliken Charges: (a.u.)
   Center  Symbol    Alpha    Beta     Spin     Total
       1     H     0.28059  0.28059  0.00000  0.43882
       2     O     4.37528  4.37528  0.00000 -0.75055
       3     C     2.97848  2.97848  0.00000  0.04304
       4     C     3.18549  3.18549  0.00000 -0.37098
       5     H     0.42623  0.42623  0.00000  0.14755
       6     H     0.42166  0.42166  0.00000  0.15667
       7     C     3.23925  3.23925  0.00000 -0.47850
       8     H     0.42291  0.42291  0.00000  0.15418
       9     H     0.41612  0.41612  0.00000  0.16775
      10     H     0.41976  0.41976  0.00000  0.16049
      11     H     0.41701  0.41701  0.00000  0.16598
      12     H     0.41722  0.41722  0.00000  0.16555

   Total alpha = 17.00000, Total beta = 17.00000, Total charge = -0.00000
