  ==> Input File <==

--------------------------------------------------------------------------
set {
	reference rhf
	basis cc-pvtz
}

set_num_threads( 4 )
memory 2 gb

molecule MOL {
0 1

H	 -2.644180	 -0.653737	 1.272255
C	 -2.092774	 -0.380414	 0.391915
O	 -0.808934	 -0.154049	 0.752536
F	 -2.163230	 -1.351640	 -0.507133
F	 -2.627232	 0.691260	 -0.169301
C	 0.085006	 0.250800	 -0.215074
C	 1.370439	 -0.548013	 -0.012993
Cl	 0.421658	 1.987697	 -0.091007
H	 -0.272219	 0.063284	 -1.212508
F	 1.100747	 -1.737814	 0.460994
F	 2.126414	 0.073364	 0.860911
F	 2.049047	 -0.681823	 -1.119265

	symmetry c1
}
set optking {
	frozen_dihedral = ("
		10 7 6 9
	")
}

ee = optimize('scf')
oeprop('DIPOLE', 'QUADRUPOLE', 'MULLIKEN_CHARGES')
f=open( 'psi4out.xyz', 'w' )
f.write( "12  " )
f.write( str(ee) + "\n" )
f.write( MOL.save_string_xyz() )
f.close()
--------------------------------------------------------------------------

    Molecular point group: c1
  Charge       = 0
  Multiplicity = 1
  Basis Set: CC-PVTZ
  Basis Set:
  @DF-RHF Final Energy: -1146.61405879985159
    Total Energy =                      -1146.6140587998515912
    Molecular point group: c1
  Basis Set: CC-PVTZ
  Basis Set:
  Basis Set: CC-PVTZ
  Basis Set:
  @DF-RHF Final Energy: -1146.61531000380455
    Total Energy =                      -1146.6153100038054617
  Basis Set: CC-PVTZ
  Basis Set:
  Basis Set: CC-PVTZ
  Basis Set:
  @DF-RHF Final Energy: -1146.61608481131793
    Total Energy =                      -1146.6160848113183874
  Basis Set: CC-PVTZ
  Basis Set:
  Basis Set: CC-PVTZ
  Basis Set:
  @DF-RHF Final Energy: -1146.61615056976598
    Total Energy =                      -1146.6161505697655230
  Basis Set: CC-PVTZ
  Basis Set:
  @DF-RHF Final Energy: -1146.61616099051480
    Total Energy =                      -1146.6161609905143450
  Basis Set: CC-PVTZ
  Basis Set:
  @DF-RHF Final Energy: -1146.61616673849721
    Total Energy =                      -1146.6161667384972134
  Basis Set: CC-PVTZ
  Basis Set:
  Basis Set: CC-PVTZ
  Basis Set:
  @DF-RHF Final Energy: -1146.61617096243981
    Total Energy =                      -1146.6161709624404921
  Basis Set: CC-PVTZ
  Basis Set:
  Basis Set: CC-PVTZ
  Basis Set:
  @DF-RHF Final Energy: -1146.61617290435129
    Total Energy =                      -1146.6161729043517425
  Basis Set: CC-PVTZ
  Basis Set:
  Charge       = 0
  Multiplicity = 1
  Basis Set: CC-PVTZ
  Basis Set:

    Orbital Energies (a.u.)
    -----------------------

    Doubly Occupied:

       1A   -104.854631     2A    -26.356830     3A    -26.353528
       4A    -26.350803     5A    -26.344098     6A    -26.343987
       7A    -20.641642     8A    -11.521406     9A    -11.484946
      10A    -11.401828    11A    -10.580201    12A     -8.046976
      13A     -8.045017    14A     -8.044917    15A     -1.768211
      16A     -1.725683    17A     -1.664237    18A     -1.659475
      19A     -1.645651    20A     -1.488845    21A     -1.176012
      22A     -1.049942    23A     -0.992414    24A     -0.924637
      25A     -0.864151    26A     -0.860114    27A     -0.851043
      28A     -0.831413    29A     -0.820252    30A     -0.795162
      31A     -0.735829    32A     -0.732715    33A     -0.712285
      34A     -0.708779    35A     -0.684368    36A     -0.682054
      37A     -0.665586    38A     -0.663383    39A     -0.650177
      40A     -0.636664    41A     -0.599399    42A     -0.580144
      43A     -0.523746    44A     -0.477488    45A     -0.467816

  @DF-RHF Final Energy: -1146.61617325111956

   => Energetics <=

    Nuclear Repulsion Energy =            736.9819603391077862
    One-Electron Energy =               -3057.1792980158861610
    Two-Electron Energy =                1173.5811644256600630
    DFT Exchange-Correlation Energy =       0.0000000000000000
    Empirical Dispersion Energy =           0.0000000000000000
    PCM Polarization Energy =               0.0000000000000000
    EFP Energy =                            0.0000000000000000
    Total Energy =                      -1146.6161732511181981
    Molecular point group: c1
  Basis Set: CC-PVTZ
  Basis Set:

  -Total Gradient:
     Atom            X                  Y                   Z
    ------   -----------------  -----------------  -----------------
       1       -0.000014138600    -0.000019304624     0.000008280376
       2       -0.000095733872    -0.000003023884     0.000071643309
       3       -0.000035702109    -0.000015376190    -0.000033899400
       4        0.000040543135     0.000070689988     0.000004095628
       5        0.000046569068    -0.000033527761    -0.000024598920
       6       -0.004563579703    -0.006274974665     0.004222134265
       7        0.000312252616    -0.001405998457    -0.007899248276
       8       -0.000040860199    -0.000080962737     0.000001775496
       9        0.003910237371     0.005713625857    -0.002163068207
      10        0.000358005919     0.001938080563     0.005753659517
      11        0.000108284491     0.000022035895    -0.000007786505
      12       -0.000025878093     0.000088736029     0.000067012705

  **** Optimization is complete! (in 9 steps) ****
    Final optimized geometry and variables:
    Molecular point group: c1

    Geometry (in Angstrom), charge = 0, multiplicity = 1:

    H           -2.678392219101    -0.613285652967     1.262141723770
    C           -2.103200218178    -0.381787239456     0.385072665014
    O           -0.841073883643    -0.088976547569     0.773265038721
    F           -2.109643792680    -1.412439443626    -0.448043891122
    F           -2.648208778758     0.632089140622    -0.266529515422
    C            0.070266934860     0.269168639918    -0.189896912632
    C            1.364610376247    -0.544920184759    -0.005533080422
    CL           0.431078836251     2.009069845296    -0.099833729676
    H           -0.269677156260     0.118740588412    -1.198650242752
    F            1.079573578916    -1.750836140327     0.415640828711
    F            2.183727381117    -0.015378409637     0.863350146645
    F            1.987729144567    -0.634903302370    -1.154832327467

  Mulliken Charges: (a.u.)
   Center  Symbol    Alpha    Beta     Spin     Total
       1     H     0.45162  0.45162  0.00000  0.09677
       2     C     2.73840  2.73840  0.00000  0.52319
       3     O     4.15286  4.15286  0.00000 -0.30572
       4     F     4.61784  4.61784  0.00000 -0.23568
       5     F     4.61531  4.61531  0.00000 -0.23061
       6     C     2.94675  2.94675  0.00000  0.10649
       7     C     2.66600  2.66600  0.00000  0.66800
       8    CL     8.57416  8.57416  0.00000 -0.14832
       9     H     0.43233  0.43233  0.00000  0.13535
      10     F     4.60111  4.60111  0.00000 -0.20222
      11     F     4.59900  4.59900  0.00000 -0.19800
      12     F     4.60462  4.60462  0.00000 -0.20925

   Total alpha = 45.00000, Total beta = 45.00000, Total charge =  0.00000
