  ==> Input File <==

--------------------------------------------------------------------------
set {
	reference rhf
	basis 6-31G*
}

set_num_threads( 1 )
memory 2 gb

molecule MOL {
0 1

O	 0.074228	 1.262779	 -0.000085
C	 0.028650	 0.075053	 -0.000277
C	 -1.233602	 -0.752807	 0.000328
O	 1.109162	 -0.694619	 -0.000298
C	 -2.501530	 0.091881	 0.000126
H	 -1.193807	 -1.406641	 -0.865785
H	 -1.193516	 -1.405779	 0.867015
H	 -2.545121	 0.729328	 -0.874513
H	 -3.377167	 -0.548497	 0.000561
H	 -2.544818	 0.730135	 0.874258
C	 2.320475	 -0.101692	 -0.432441
H	 2.231999	 0.242323	 -1.452852
H	 3.069133	 -0.875270	 -0.362075
H	 2.582804	 0.732425	 0.202306

	symmetry c1
}
set optking {
	frozen_dihedral = ("
		4 2 3 6
	")
}

ee = energy('scf')
oeprop('DIPOLE', 'QUADRUPOLE', 'MULLIKEN_CHARGES')
f=open( 'psi4out.xyz', 'w' )
f.write( "14  " )
f.write( str(ee) + "\n" )
f.write( MOL.save_string_xyz() )
f.close()
--------------------------------------------------------------------------

    Molecular point group: c1

    Geometry (in Angstrom), charge = 0, multiplicity = 1:

       Center              X                  Y                   Z               Mass
    ------------   -----------------  -----------------  -----------------  -----------------
           O          0.082150543368     1.273899486230     0.077334622413    15.994914619560
           C          0.036572543368     0.086173486230     0.077142622413    12.000000000000
           C         -1.225679456632    -0.741686513770     0.077747622413    12.000000000000
           O          1.117084543368    -0.683498513770     0.077121622413    15.994914619560
           C         -2.493607456632     0.103001486230     0.077545622413    12.000000000000
           H         -1.185884456632    -1.395520513770    -0.788365377587     1.007825032070
           H         -1.185593456632    -1.394658513770     0.944434622413     1.007825032070
           H         -2.537198456632     0.740448486230    -0.797093377587     1.007825032070
           H         -3.369244456632    -0.537376513770     0.077980622413     1.007825032070
           H         -2.536895456632     0.741255486230     0.951677622413     1.007825032070
           C          2.328397543368    -0.090571513770    -0.355021377587    12.000000000000
           H          2.239921543368     0.253443486230    -1.375432377587     1.007825032070
           H          3.077055543368    -0.864149513770    -0.284655377587     1.007825032070
           H          2.590726543368     0.743545486230     0.279725622413     1.007825032070

  Charge       = 0
  Multiplicity = 1
  Basis Set: 6-31G*
  Basis Set:

    Orbital Energies (a.u.)
    -----------------------

    Doubly Occupied:

       1A    -20.602357     2A    -20.547121     3A    -11.373141
       4A    -11.282536     5A    -11.238821     6A    -11.216642
       7A     -1.469579     8A     -1.363943     9A     -1.064207
      10A     -0.980449    11A     -0.879195    12A     -0.768926
      13A     -0.700757    14A     -0.682186    15A     -0.671741
      16A     -0.621246    17A     -0.603784    18A     -0.546237
      19A     -0.537846    20A     -0.521993    21A     -0.513153
      22A     -0.496272    23A     -0.456712    24A     -0.438536

  @DF-RHF Final Energy:  -305.86969256476021

   => Energetics <=

    Nuclear Repulsion Energy =            247.1157600368218823
    One-Electron Energy =                -906.8161981492598898
    Two-Electron Energy =                 353.8307455476780206
    DFT Exchange-Correlation Energy =       0.0000000000000000
    Empirical Dispersion Energy =           0.0000000000000000
    PCM Polarization Energy =               0.0000000000000000
    EFP Energy =                            0.0000000000000000
    Total Energy =                       -305.8696925647599301

  Mulliken Charges: (a.u.)
   Center  Symbol    Alpha    Beta     Spin     Total
       1     O     4.28293  4.28293  0.00000 -0.56586
       2     C     2.60810  2.60810  0.00000  0.78380
       3     C     3.20560  3.20560  0.00000 -0.41121
       4     O     4.30653  4.30653  0.00000 -0.61305
       5     C     3.23915  3.23915  0.00000 -0.47830
       6     H     0.40138  0.40138  0.00000  0.19725
       7     H     0.39946  0.39946  0.00000  0.20108
       8     H     0.41027  0.41027  0.00000  0.17946
       9     H     0.41796  0.41796  0.00000  0.16409
      10     H     0.40946  0.40946  0.00000  0.18108
      11     C     3.09343  3.09343  0.00000 -0.18687
      12     H     0.41328  0.41328  0.00000  0.17344
      13     H     0.40785  0.40785  0.00000  0.18429
      14     H     0.40460  0.40460  0.00000  0.19080

   Total alpha = 24.00000, Total beta = 24.00000, Total charge =  0.00000
