  ==> Input File <==

--------------------------------------------------------------------------
set {
	reference rhf
	basis cc-pvtz
}

set_num_threads( 4 )
memory 2 gb

molecule MOL {
0 1

H	 -3.034039	 -0.667848	 0.004703
O	 -2.240597	 -1.171748	 0.000934
C	 -1.159675	 -0.364500	 0.000370
C	 -0.690240	 0.243139	 -1.146286
C	 -0.519620	 -0.159880	 1.213017
H	 -1.183695	 0.084315	 -2.087741
C	 0.427098	 1.056400	 -1.066362
H	 -0.908589	 -0.648739	 2.085173
C	 0.593033	 0.653294	 1.291316
H	 0.797091	 1.528492	 -1.956871
C	 1.067499	 1.263523	 0.134384
C	 1.275016	 0.894815	 2.614271
H	 1.934426	 1.895158	 0.178396
H	 2.352038	 0.849482	 2.510397
H	 0.975116	 0.162768	 3.351776
H	 1.024457	 1.877435	 2.999395

	symmetry c1
}
set optking {
	frozen_dihedral = ("
		5 3 2 1
	")
}

ee = optimize('scf')
oeprop('DIPOLE', 'QUADRUPOLE', 'MULLIKEN_CHARGES')
f=open( 'psi4out.xyz', 'w' )
f.write( "16  " )
f.write( str(ee) + "\n" )
f.write( MOL.save_string_xyz() )
f.close()
--------------------------------------------------------------------------

    Molecular point group: c1
  Charge       = 0
  Multiplicity = 1
  Basis Set: CC-PVTZ
  Basis Set:
  @DF-RHF Final Energy:  -344.71556130546162
    Total Energy =                       -344.7155613054616765
    Molecular point group: c1
  Basis Set: CC-PVTZ
  Basis Set:
  Basis Set: CC-PVTZ
  Basis Set:
  @DF-RHF Final Energy:  -344.71622299693479
    Total Energy =                       -344.7162229969347891
  Basis Set: CC-PVTZ
  Basis Set:
  Basis Set: CC-PVTZ
  Basis Set:
  @DF-RHF Final Energy:  -344.71627908550442
    Total Energy =                       -344.7162790855041408
  Basis Set: CC-PVTZ
  Basis Set:
  Basis Set: CC-PVTZ
  Basis Set:
  @DF-RHF Final Energy:  -344.71628472399675
    Total Energy =                       -344.7162847239967505
  Basis Set: CC-PVTZ
  Basis Set:
  Basis Set: CC-PVTZ
  Basis Set:
  @DF-RHF Final Energy:  -344.71628590467157
    Total Energy =                       -344.7162859046712811
  Basis Set: CC-PVTZ
  Basis Set:
  Charge       = 0
  Multiplicity = 1
  Basis Set: CC-PVTZ
  Basis Set:

    Orbital Energies (a.u.)
    -----------------------

    Doubly Occupied:

       1A    -20.569025     2A    -11.286455     3A    -11.240295
       4A    -11.231152     5A    -11.220699     6A    -11.219583
       7A    -11.219035     8A    -11.218420     9A     -1.395773
      10A     -1.155002    11A     -1.046824    12A     -1.007487
      13A     -0.939137    14A     -0.830602    15A     -0.811892
      16A     -0.720237    17A     -0.679663    18A     -0.659746
      19A     -0.622798    20A     -0.592988    21A     -0.578008
      22A     -0.570375    23A     -0.552598    24A     -0.514099
      25A     -0.506338    26A     -0.485141    27A     -0.466732
      28A     -0.333951    29A     -0.322695

  @DF-RHF Final Energy:  -344.71628632486954

   => Energetics <=

    Nuclear Repulsion Energy =            345.8145393044928824
    One-Electron Energy =               -1153.0681547515478087
    Two-Electron Energy =                 462.5373291221854402
    DFT Exchange-Correlation Energy =       0.0000000000000000
    Empirical Dispersion Energy =           0.0000000000000000
    PCM Polarization Energy =               0.0000000000000000
    EFP Energy =                            0.0000000000000000
    Total Energy =                       -344.7162863248694862
    Molecular point group: c1
  Basis Set: CC-PVTZ
  Basis Set:

  -Total Gradient:
     Atom            X                  Y                   Z
    ------   -----------------  -----------------  -----------------
       1       -0.000027682697    -0.000029939948     0.000779611148
       2       -0.000225712876     0.000208380689    -0.000898773009
       3        0.000627268412    -0.000613955170    -0.000061918802
       4       -0.000027039449     0.000002995384    -0.000004797976
       5       -0.000369523413     0.000403436011     0.000177172596
       6       -0.000002943715    -0.000003800862     0.000003283423
       7       -0.000008282249    -0.000016060336     0.000024013079
       8        0.000013896300     0.000012611874    -0.000028105573
       9       -0.000001944738     0.000024039297    -0.000001906589
      10        0.000001520143     0.000001706065     0.000000636834
      11        0.000010364024     0.000004474553    -0.000002968041
      12        0.000004090947     0.000004947974     0.000000344730
      13       -0.000007281227     0.000001776432     0.000010094132
      14        0.000004917751    -0.000010530136     0.000002454638
      15       -0.000003213389     0.000005817364     0.000007299903
      16        0.000011566176     0.000004100806    -0.000006440495

  **** Optimization is complete! (in 6 steps) ****
    Final optimized geometry and variables:
    Molecular point group: c1

    Geometry (in Angstrom), charge = 0, multiplicity = 1:

    H           -2.842135658322    -0.961334828863    -0.436219997890
    O           -2.043562516700    -1.459027870176    -0.439803561969
    C           -0.960313133832    -0.625108045166    -0.391500986945
    C           -0.490694588541    -0.027200028098    -1.541702691386
    C           -0.319567867749    -0.422273009333     0.816794232235
    H           -0.987422369711    -0.207528351769    -2.475191707127
    C            0.627638835730     0.782912761122    -1.467967180717
    H           -0.704249811237    -0.913575728030     1.689968679786
    C            0.801831073685     0.385343714301     0.895332904540
    H            1.002916629829     1.250237487606    -2.358646316896
    C            1.269352146913     0.988599763921    -0.264299016216
    C            1.491704229308     0.623022658382     2.215365131883
    H            2.140648867433     1.615336899911    -0.225156626981
    H            2.568107744677     0.574528888934     2.106481171387
    H            1.194483918054    -0.111123672182     2.952100231292
    H            1.246532441605     1.604601455116     2.606810503029

  Mulliken Charges: (a.u.)
   Center  Symbol    Alpha    Beta     Spin     Total
       1     H     0.38872  0.38872  0.00000  0.22256
       2     O     4.19222  4.19222  0.00000 -0.38445
       3     C     2.85666  2.85666  0.00000  0.28668
       4     C     3.12691  3.12691  0.00000 -0.25383
       5     C     3.14188  3.14188  0.00000 -0.28377
       6     H     0.41841  0.41841  0.00000  0.16318
       7     C     3.06098  3.06098  0.00000 -0.12197
       8     H     0.41950  0.41950  0.00000  0.16099
       9     C     2.94594  2.94594  0.00000  0.10812
      10     H     0.42227  0.42227  0.00000  0.15547
      11     C     3.10763  3.10763  0.00000 -0.21526
      12     C     3.14627  3.14627  0.00000 -0.29255
      13     H     0.42694  0.42694  0.00000  0.14612
      14     H     0.44789  0.44789  0.00000  0.10422
      15     H     0.45034  0.45034  0.00000  0.09931
      16     H     0.44741  0.44741  0.00000  0.10518

   Total alpha = 29.00000, Total beta = 29.00000, Total charge =  0.00000
