  ==> Input File <==

--------------------------------------------------------------------------
set {
	reference rhf
	basis cc-pvtz
}

set_num_threads( 4 )
memory 2 gb

molecule MOL {
0 1

H	 -3.294565	 0.569785	 0.000000
C	 -2.246225	 0.343737	 0.000000
C	 -1.809462	 -0.973484	 0.000000
C	 -1.312577	 1.353775	 0.000000
H	 -2.523539	 -1.775124	 0.000000
C	 -0.467257	 -1.267606	 0.000000
H	 -1.631287	 2.379013	 0.000000
C	 0.046966	 1.074396	 0.000000
H	 -0.119372	 -2.281828	 0.000000
C	 0.471772	 -0.241514	 0.000000
H	 0.748162	 1.882966	 0.000000
O	 1.760432	 -0.625184	 0.000000
C	 2.164179	 -1.711909	 -0.777287
H	 1.660874	 -2.624293	 -0.477371
H	 3.224394	 -1.825512	 -0.614793
H	 1.985214	 -1.534909	 -1.831967

	symmetry c1
}
set optking {
	frozen_dihedral = ("
		13 12 10 8
	")
}

ee = optimize('scf')
oeprop('DIPOLE', 'QUADRUPOLE', 'MULLIKEN_CHARGES')
f=open( 'psi4out.xyz', 'w' )
f.write( "16  " )
f.write( str(ee) + "\n" )
f.write( MOL.save_string_xyz() )
f.close()
--------------------------------------------------------------------------

    Molecular point group: c1
  Charge       = 0
  Multiplicity = 1
  Basis Set: CC-PVTZ
  Basis Set:
  @DF-RHF Final Energy:  -344.69513008750170
    Total Energy =                       -344.6951300875018092
    Molecular point group: c1
  Basis Set: CC-PVTZ
  Basis Set:
  Basis Set: CC-PVTZ
  Basis Set:
  @DF-RHF Final Energy:  -344.69930963120248
    Total Energy =                       -344.6993096312024818
  Basis Set: CC-PVTZ
  Basis Set:
  Basis Set: CC-PVTZ
  Basis Set:
  @DF-RHF Final Energy:  -344.70147088969503
    Total Energy =                       -344.7014708896950879
  Basis Set: CC-PVTZ
  Basis Set:
  Basis Set: CC-PVTZ
  Basis Set:
  @DF-RHF Final Energy:  -344.70167818006718
    Total Energy =                       -344.7016781800672334
  Basis Set: CC-PVTZ
  Basis Set:
  Basis Set: CC-PVTZ
  Basis Set:
  @DF-RHF Final Energy:  -344.70169519515980
    Total Energy =                       -344.7016951951596866
  Basis Set: CC-PVTZ
  Basis Set:
  Basis Set: CC-PVTZ
  Basis Set:
  @DF-RHF Final Energy:  -344.70169760880663
    Total Energy =                       -344.7016976088061710
  Basis Set: CC-PVTZ
  Basis Set:
  Charge       = 0
  Multiplicity = 1
  Basis Set: CC-PVTZ
  Basis Set:

    Orbital Energies (a.u.)
    -----------------------

    Doubly Occupied:

       1A    -20.573546     2A    -11.290165     3A    -11.276680
       4A    -11.231865     5A    -11.230574     6A    -11.223463
       7A    -11.219968     8A    -11.219746     9A     -1.412275
      10A     -1.151836    11A     -1.023682    12A     -1.017628
      13A     -0.940569    14A     -0.836352    15A     -0.809212
      16A     -0.722335    17A     -0.668776    18A     -0.666839
      19A     -0.652300    20A     -0.617714    21A     -0.593696
      22A     -0.583755    23A     -0.531217    24A     -0.516910
      25A     -0.509638    26A     -0.485203    27A     -0.454148
      28A     -0.339944    29A     -0.316008

  @DF-RHF Final Energy:  -344.70169796189782

   => Energetics <=

    Nuclear Repulsion Energy =            348.7147500179225972
    One-Electron Energy =               -1158.6008055238439738
    Two-Electron Energy =                 465.1843575440236691
    DFT Exchange-Correlation Energy =       0.0000000000000000
    Empirical Dispersion Energy =           0.0000000000000000
    PCM Polarization Energy =               0.0000000000000000
    EFP Energy =                            0.0000000000000000
    Total Energy =                       -344.7016979618977075
    Molecular point group: c1
  Basis Set: CC-PVTZ
  Basis Set:

  -Total Gradient:
     Atom            X                  Y                   Z
    ------   -----------------  -----------------  -----------------
       1       -0.000001230947     0.000005132809     0.000000080648
       2       -0.000002655809    -0.000002205777    -0.000012651006
       3       -0.000003979546     0.000002894362     0.000005447596
       4       -0.000002710456    -0.000003832232     0.000018813457
       5       -0.000000814453     0.000006164761    -0.000000279245
       6        0.000005211521    -0.000003719455     0.000018631089
       7       -0.000007070659     0.000000214527    -0.000004012332
       8        0.000072197249     0.000007397941    -0.001621659836
       9        0.000016652103     0.000000730788    -0.000001618554
      10        0.000025399458     0.000496965817     0.001719765826
      11       -0.000000593765    -0.000002176241    -0.000003660244
      12       -0.000352643676    -0.001526121752     0.001133233608
      13        0.000254382926     0.000997727952    -0.001273352520
      14        0.000000954845    -0.000000801874    -0.000001163996
      15       -0.000002723783     0.000007420770     0.000001962557
      16       -0.000000375015     0.000014207601     0.000020462951

  **** Optimization is complete! (in 7 steps) ****
    Final optimized geometry and variables:
    Molecular point group: c1

    Geometry (in Angstrom), charge = 0, multiplicity = 1:

    H           -3.194277409298     0.958745446346     0.108480559934
    C           -2.157331373085     0.684448851674     0.107900359692
    C           -1.786182734788    -0.644003095151     0.095017806909
    C           -1.174319812630     1.658782748131     0.119370922412
    H           -2.537469878706    -1.410824809085     0.087651673638
    C           -0.450706021438    -1.007605880658     0.096599467019
    H           -1.447660833888     2.696891599698     0.125663231195
    C            0.159330201504     1.309615860621     0.112868353035
    H           -0.180801942271    -2.044638966218     0.096109615616
    C            0.525304795782    -0.026905385208     0.108734899820
    H            0.929673180366     2.055441673084     0.117875705444
    O            1.847908847074    -0.302207180433     0.136143609351
    C            2.335418489720    -1.352464930249    -0.651377887058
    H            2.095339574115    -2.320531417596    -0.227763382380
    H            3.408966943890    -1.245260663632    -0.678722179757
    H            1.942967589950    -1.298053356813    -1.660374433245

  Mulliken Charges: (a.u.)
   Center  Symbol    Alpha    Beta     Spin     Total
       1     H     0.42405  0.42405  0.00000  0.15191
       2     C     3.09535  3.09535  0.00000 -0.19070
       3     C     3.06251  3.06251  0.00000 -0.12502
       4     C     3.06174  3.06174  0.00000 -0.12348
       5     H     0.42272  0.42272  0.00000  0.15456
       6     C     3.12361  3.12361  0.00000 -0.24722
       7     H     0.42256  0.42256  0.00000  0.15487
       8     C     3.11132  3.11132  0.00000 -0.22264
       9     H     0.42357  0.42357  0.00000  0.15285
      10     C     2.86060  2.86060  0.00000  0.27879
      11     H     0.41885  0.41885  0.00000  0.16231
      12     O     4.16405  4.16405  0.00000 -0.32811
      13     C     3.04434  3.04434  0.00000 -0.08868
      14     H     0.46191  0.46191  0.00000  0.07618
      15     H     0.44164  0.44164  0.00000  0.11672
      16     H     0.46117  0.46117  0.00000  0.07766

   Total alpha = 29.00000, Total beta = 29.00000, Total charge = -0.00000
