  ==> Input File <==

--------------------------------------------------------------------------
set {
	reference rhf
	basis cc-pvtz
}

set_num_threads( 4 )
memory 2 gb

molecule MOL {
0 1

O	 1.715416	 -0.548713	 -0.089380
C	 0.860843	 0.273204	 -0.013120
C	 -0.623368	 -0.117453	 -0.005652
C	 1.234354	 1.739918	 0.072097
C	 -0.892588	 -1.253841	 -1.002900
C	 -1.473463	 1.100646	 -0.372896
C	 -0.981836	 -0.579025	 1.418506
H	 -0.609333	 -0.970024	 -2.010649
H	 -1.950451	 -1.487353	 -1.013175
H	 -0.360848	 -2.161259	 -0.746463
H	 -1.232203	 1.461623	 -1.364827
H	 -2.524364	 0.834451	 -0.354500
H	 -1.312381	 1.914833	 0.318657
H	 -2.035706	 -0.826342	 1.468082
H	 -0.425078	 -1.458934	 1.716857
H	 -0.788494	 0.205047	 2.140903
H	 1.148887	 2.069875	 1.101460
H	 2.259286	 1.855928	 -0.244958
H	 0.588921	 2.368118	 -0.526246

	symmetry c1
}
set optking {
	frozen_dihedral = ("
		1 2 3 5
	")
}

ee = optimize('scf')
oeprop('DIPOLE', 'QUADRUPOLE', 'MULLIKEN_CHARGES')
f=open( 'psi4out.xyz', 'w' )
f.write( "19  " )
f.write( str(ee) + "\n" )
f.write( MOL.save_string_xyz() )
f.close()
--------------------------------------------------------------------------

    Molecular point group: c1
  Charge       = 0
  Multiplicity = 1
  Basis Set: CC-PVTZ
  Basis Set:
  @DF-RHF Final Energy:  -309.16979980179838
    Total Energy =                       -309.1697998017983764
    Molecular point group: c1
  Basis Set: CC-PVTZ
  Basis Set:
  Basis Set: CC-PVTZ
  Basis Set:
  @DF-RHF Final Energy:  -309.17054304870004
    Total Energy =                       -309.1705430486999830
  Basis Set: CC-PVTZ
  Basis Set:
  Basis Set: CC-PVTZ
  Basis Set:
  @DF-RHF Final Energy:  -309.17246510046442
    Total Energy =                       -309.1724651004648763
  Basis Set: CC-PVTZ
  Basis Set:
  Basis Set: CC-PVTZ
  Basis Set:
  @DF-RHF Final Energy:  -309.17254975121654
    Total Energy =                       -309.1725497512169909
  Basis Set: CC-PVTZ
  Basis Set:
  @DF-RHF Final Energy:  -309.17294575163334
    Total Energy =                       -309.1729457516332786
  @DF-RHF Final Energy:  -309.17338734215053
    Total Energy =                       -309.1733873421504768
  @DF-RHF Final Energy:  -309.17345411670817
    Total Energy =                       -309.1734541167080579
  @DF-RHF Final Energy:  -309.17348657274044
    Total Energy =                       -309.1734865727406714
  Basis Set: CC-PVTZ
  Basis Set:
  @DF-RHF Final Energy:  -309.17346458473520
    Total Energy =                       -309.1734645847352567
  Basis Set: CC-PVTZ
  Basis Set:
  Basis Set: CC-PVTZ
  Basis Set:
  @DF-RHF Final Energy:  -309.17345950846760
    Total Energy =                       -309.1734595084676585
  Basis Set: CC-PVTZ
  Basis Set:
  Basis Set: CC-PVTZ
  Basis Set:
  @DF-RHF Final Energy:  -309.17349550236702
    Total Energy =                       -309.1734955023669045
  Basis Set: CC-PVTZ
  Basis Set:
  Charge       = 0
  Multiplicity = 1
  Basis Set: CC-PVTZ
  Basis Set:

    Orbital Energies (a.u.)
    -----------------------

    Doubly Occupied:

       1A    -20.536625     2A    -11.318309     3A    -11.245586
       4A    -11.225893     5A    -11.220244     6A    -11.219477
       7A    -11.209509     8A     -1.398294     9A     -1.109684
      10A     -1.004342    11A     -0.945100    12A     -0.937854
      13A     -0.834484    14A     -0.705665    15A     -0.666815
      16A     -0.633879    17A     -0.623624    18A     -0.591704
      19A     -0.588392    20A     -0.571131    21A     -0.550454
      22A     -0.546609    23A     -0.524749    24A     -0.514329
      25A     -0.503292    26A     -0.472495    27A     -0.464498
      28A     -0.393874

  @DF-RHF Final Energy:  -309.17349479785997

   => Energetics <=

    Nuclear Repulsion Energy =            326.8671070191543890
    One-Electron Energy =               -1066.9673864129372305
    Two-Electron Energy =                 430.9267845959228680
    DFT Exchange-Correlation Energy =       0.0000000000000000
    Empirical Dispersion Energy =           0.0000000000000000
    PCM Polarization Energy =               0.0000000000000000
    EFP Energy =                            0.0000000000000000
    Total Energy =                       -309.1734947978599166
    Molecular point group: c1
  Basis Set: CC-PVTZ
  Basis Set:

  -Total Gradient:
     Atom            X                  Y                   Z
    ------   -----------------  -----------------  -----------------
       1        0.000010807776    -0.000066860099     0.001406519395
       2       -0.000103306205     0.000315318731    -0.002256488390
       3        0.000258380867    -0.000881063383     0.001441730447
       4       -0.000003294765    -0.000014411509     0.000139311906
       5       -0.000181281391     0.000681464091    -0.000719843091
       6        0.000016727852     0.000004892501     0.000045861222
       7       -0.000015603542     0.000020931074     0.000019078423
       8       -0.000013691560    -0.000013035775    -0.000007122824
       9       -0.000001710224    -0.000013008309     0.000009729413
      10        0.000004308745    -0.000005102890    -0.000005298586
      11        0.000047409960     0.000016226792     0.000006191052
      12        0.000004508271    -0.000019939564    -0.000023192609
      13       -0.000044778361    -0.000036489529    -0.000007959854
      14        0.000006180828    -0.000010636689     0.000002851386
      15        0.000003008298     0.000018152609     0.000002712460
      16       -0.000007275718    -0.000000107628     0.000021221157
      17        0.000037259219     0.000024181459    -0.000019354891
      18        0.000008471470     0.000005895369    -0.000029002292
      19       -0.000026121518    -0.000026407254    -0.000026944327

  **** Optimization is complete! (in 12 steps) ****
    Final optimized geometry and variables:
    Molecular point group: c1

    Geometry (in Angstrom), charge = 0, multiplicity = 1:

    O            1.702635783990    -0.678939027629    -0.127789270101
    C            0.886295007358     0.180856593226    -0.044822788654
    C           -0.609834097834    -0.175813544912    -0.007308392990
    C            1.319380351150     1.624105291688     0.093320222886
    C           -0.871461864832    -1.314574608642    -0.999659829733
    C           -1.517265007238     1.011493529518    -0.351479206426
    C           -0.905749465242    -0.652155270607     1.425388479420
    H           -0.669285818554    -0.999308716045    -2.017309441622
    H           -1.909903256413    -1.621415290984    -0.945479722109
    H           -0.246401063694    -2.168497696731    -0.785853535486
    H           -1.316150934303     1.394978027313    -1.345444455971
    H           -2.552659390732     0.693344908986    -0.329999261381
    H           -1.414852866792     1.828160128986     0.351862619842
    H           -1.949325020761    -0.930912400525     1.515103984873
    H           -0.298415020682    -1.511188248869     1.677340205313
    H           -0.709289352699     0.127086153123     2.154472407328
    H            0.900881842236     2.067999960296     0.988832682126
    H            2.396572518857     1.661236774587     0.139295113784
    H            0.972119752926     2.209616846205    -0.749218404296

  Mulliken Charges: (a.u.)
   Center  Symbol    Alpha    Beta     Spin     Total
       1     O     4.18028  4.18028  0.00000 -0.36055
       2     C     2.84768  2.84768  0.00000  0.30464
       3     C     3.00615  3.00615  0.00000 -0.01231
       4     C     3.16409  3.16409  0.00000 -0.32818
       5     C     3.15294  3.15294  0.00000 -0.30588
       6     C     3.16577  3.16577  0.00000 -0.33155
       7     C     3.15413  3.15413  0.00000 -0.30827
       8     H     0.44998  0.44998  0.00000  0.10005
       9     H     0.45125  0.45125  0.00000  0.09751
      10     H     0.43499  0.43499  0.00000  0.13002
      11     H     0.44490  0.44490  0.00000  0.11021
      12     H     0.44257  0.44257  0.00000  0.11486
      13     H     0.44559  0.44559  0.00000  0.10882
      14     H     0.44794  0.44794  0.00000  0.10411
      15     H     0.43821  0.43821  0.00000  0.12358
      16     H     0.44871  0.44871  0.00000  0.10259
      17     H     0.44643  0.44643  0.00000  0.10714
      18     H     0.43172  0.43172  0.00000  0.13656
      19     H     0.44667  0.44667  0.00000  0.10667

   Total alpha = 28.00000, Total beta = 28.00000, Total charge = -0.00000
