  ==> Input File <==

--------------------------------------------------------------------------
set {
	reference rhf
	basis 6-31G*
}

set_num_threads( 4 )
memory 2 gb

molecule MOL {
0 1

H	 -6.091001	 -3.063443	 -0.012152
O	 -6.317167	 -3.542714	 0.771569
C	 -5.281234	 -4.434373	 1.096901
C	 -4.043001	 -3.740042	 1.653148
H	 -5.691640	 -5.102735	 1.842913
H	 -5.014414	 -5.040439	 0.231875
C	 -3.354575	 -2.803352	 0.657382
H	 -4.329969	 -3.182042	 2.540646
H	 -3.339746	 -4.506745	 1.974031
C	 -2.085326	 -2.163918	 1.227425
H	 -4.051027	 -2.024432	 0.359716
H	 -3.100197	 -3.358559	 -0.245601
C	 -1.309753	 -1.282496	 0.241564
H	 -2.343932	 -1.577887	 2.107503
H	 -1.424767	 -2.955712	 1.574449
C	 -2.037799	 -0.007733	 -0.193645
H	 -0.365652	 -1.001820	 0.703854
H	 -1.051845	 -1.869105	 -0.638896
C	 -3.489788	 0.042957	 0.286558
H	 -2.017067	 0.064384	 -1.280144
H	 -1.513726	 0.868678	 0.179924
C	 -4.216917	 1.317354	 -0.141063
H	 -4.025645	 -0.823308	 -0.095450
H	 -3.513059	 -0.038752	 1.371301
H	 -4.239342	 1.411634	 -1.223113
H	 -5.243387	 1.322503	 0.212445
H	 -3.726170	 2.201406	 0.256408

	symmetry c1
}
set optking {
	frozen_dihedral = ("
		10 13 16 20
	")
}

ee = optimize('scf')
oeprop('DIPOLE', 'QUADRUPOLE', 'MULLIKEN_CHARGES')
f=open( 'psi4out.xyz', 'w' )
f.write( "27  " )
f.write( str(ee) + "\n" )
f.write( MOL.save_string_xyz() )
f.close()
--------------------------------------------------------------------------

    Molecular point group: c1
  Charge       = 0
  Multiplicity = 1
  Basis Set: 6-31G*
  Basis Set:
  @DF-RHF Final Energy:  -388.24131014024056
    Total Energy =                       -388.2413101402412394
    Molecular point group: c1
  Basis Set: 6-31G*
  Basis Set:
  Basis Set: 6-31G*
  Basis Set:
  @DF-RHF Final Energy:  -388.26256948790888
    Total Energy =                       -388.2625694879087632
  Basis Set: 6-31G*
  Basis Set:
  Basis Set: 6-31G*
  Basis Set:
  @DF-RHF Final Energy:  -388.26732174754937
    Total Energy =                       -388.2673217475482943
  Basis Set: 6-31G*
  Basis Set:
  Basis Set: 6-31G*
  Basis Set:
  @DF-RHF Final Energy:  -388.26859359554584
    Total Energy =                       -388.2685935955457808
  Basis Set: 6-31G*
  Basis Set:
  @DF-RHF Final Energy:  -388.26939748204637
    Total Energy =                       -388.2693974820463154
  @DF-RHF Final Energy:  -388.26935477730484
    Total Energy =                       -388.2693547773051250
  @DF-RHF Final Energy:  -388.26958277205682
    Total Energy =                       -388.2695827720567650
  Basis Set: 6-31G*
  Basis Set:
  @DF-RHF Final Energy:  -388.26959557986731
    Total Energy =                       -388.2695955798672003
  Basis Set: 6-31G*
  Basis Set:
  Basis Set: 6-31G*
  Basis Set:
  @DF-RHF Final Energy:  -388.26959745129113
    Total Energy =                       -388.2695974512910198
  Basis Set: 6-31G*
  Basis Set:
  Basis Set: 6-31G*
  Basis Set:
  @DF-RHF Final Energy:  -388.26960038934482
    Total Energy =                       -388.2696003893445322
  Basis Set: 6-31G*
  Basis Set:
  Charge       = 0
  Multiplicity = 1
  Basis Set: 6-31G*
  Basis Set:

    Orbital Energies (a.u.)
    -----------------------

    Doubly Occupied:

       1A    -20.552300     2A    -11.266987     3A    -11.219127
       4A    -11.217049     5A    -11.216239     6A    -11.215618
       7A    -11.214951     8A    -11.214888     9A    -11.208836
      10A     -1.359026    11A     -1.091699    12A     -1.058749
      13A     -1.009357    14A     -0.949099    15A     -0.886879
      16A     -0.833882    17A     -0.797944    18A     -0.766369
      19A     -0.694026    20A     -0.647265    21A     -0.639852
      22A     -0.615228    23A     -0.600514    24A     -0.582317
      25A     -0.573529    26A     -0.569907    27A     -0.534203
      28A     -0.513391    29A     -0.511173    30A     -0.498383
      31A     -0.486817    32A     -0.483841    33A     -0.467907
      34A     -0.446682    35A     -0.445194    36A     -0.444067
      37A     -0.422008

  @DF-RHF Final Energy:  -388.26960073892940

   => Energetics <=

    Nuclear Repulsion Energy =            469.6260897838585606
    One-Electron Energy =               -1457.2807784060582890
    Two-Electron Energy =                 599.3850878832703302
    DFT Exchange-Correlation Energy =       0.0000000000000000
    Empirical Dispersion Energy =           0.0000000000000000
    PCM Polarization Energy =               0.0000000000000000
    EFP Energy =                            0.0000000000000000
    Total Energy =                       -388.2696007389293982
    Molecular point group: c1
  Basis Set: 6-31G*
  Basis Set:

  -Total Gradient:
     Atom            X                  Y                   Z
    ------   -----------------  -----------------  -----------------
       1       -0.000004739286     0.000000422164    -0.000000146287
       2        0.000014085384     0.000007274148    -0.000000663948
       3        0.000004059134    -0.000013337434     0.000005892744
       4        0.000039616537    -0.000026625292    -0.000012927113
       5        0.000000820633     0.000002839525     0.000001579327
       6        0.000000764102    -0.000001042098     0.000002987650
       7       -0.000060566976     0.000065951138    -0.000052650928
       8       -0.000002091430     0.000001164767    -0.000017195867
       9       -0.000007302398    -0.000011713658     0.000016065747
      10       -0.000023226479    -0.000005031264    -0.000070575071
      11        0.000015314493    -0.000034549464     0.000008261747
      12       -0.000024865338    -0.000005336535     0.000020940196
      13        0.000033539337    -0.000010705674     0.000074478152
      14        0.000004104812     0.000023932264     0.000003845964
      15        0.000042793265     0.000030476774    -0.000021694131
      16        0.000052192899     0.000029316838    -0.000028307509
      17       -0.000000292067    -0.000012940642     0.000022480372
      18       -0.000011087912    -0.000029783449     0.000014087877
      19       -0.000009077370     0.000006251092     0.000029251734
      20       -0.000065936780    -0.000038244600    -0.000003213257
      21        0.000008176415    -0.000012954982     0.000018435289
      22       -0.000012197374    -0.000012996646    -0.000006557776
      23        0.000025616804     0.000046858641    -0.000012020327
      24       -0.000018895899     0.000005228022     0.000010994426
      25       -0.000001080411     0.000002339189     0.000000908912
      26        0.000000290722     0.000001708663    -0.000004436051
      27       -0.000000014814    -0.000008501481     0.000000178131

  **** Optimization is complete! (in 11 steps) ****
    Final optimized geometry and variables:
    Molecular point group: c1

    Geometry (in Angstrom), charge = 0, multiplicity = 1:

    H           -2.334846225777    -1.881760093349    -0.839799045088
    O           -2.606291439075    -2.231253827962    -0.003552517613
    C           -1.529448449853    -2.901619546783     0.600766329943
    C           -0.456693364275    -1.957682383817     1.132515086794
    H           -1.956793219337    -3.467715476733     1.418419373711
    H           -1.088919097961    -3.617318073212    -0.092376582131
    C            0.238716137679    -1.132248205367     0.047478760624
    H           -0.912494371991    -1.292198964990     1.860988173782
    H            0.283750781503    -2.552042572462     1.665601409539
    C            1.379015254722    -0.269249133305     0.598099497174
    H           -0.493302402767    -0.506249891198    -0.452742062098
    H            0.644166375571    -1.801283013497    -0.711447887919
    C            2.102094355660     0.591618616704    -0.452943023805
    H            1.013189902861     0.347231304702     1.413678401090
    H            2.113577028180    -0.937930481318     1.041371472821
    C            1.501476682678     1.975688347436    -0.840647597733
    H            3.112866374219     0.763505992613    -0.095996716996
    H            2.215596631892    -0.008951183626    -1.351883777983
    C            0.134250193278     2.372900841055    -0.271968419390
    H            1.443206009308     2.037892087776    -1.924305548242
    H            2.208624376498     2.746960067368    -0.546110915534
    C           -0.282696794252     3.770965777627    -0.730893492464
    H           -0.627394508703     1.662943477165    -0.577269329953
    H            0.157744044065     2.352691292333     0.813556254129
    H           -0.352587983086     3.824946681823    -1.813725894961
    H           -1.250943427569     4.044422888032    -0.323150647510
    H            0.435321210566     4.520286226968    -0.409633356047

  Mulliken Charges: (a.u.)
   Center  Symbol    Alpha    Beta     Spin     Total
       1     H     0.27985  0.27985  0.00000  0.44030
       2     O     4.37096  4.37096  0.00000 -0.74192
       3     C     2.99748  2.99748  0.00000  0.00504
       4     C     3.16145  3.16145  0.00000 -0.32290
       5     H     0.41449  0.41449  0.00000  0.17102
       6     H     0.43198  0.43198  0.00000  0.13604
       7     C     3.16286  3.16286  0.00000 -0.32571
       8     H     0.41506  0.41506  0.00000  0.16988
       9     H     0.42438  0.42438  0.00000  0.15125
      10     C     3.15521  3.15521  0.00000 -0.31042
      11     H     0.42259  0.42259  0.00000  0.15483
      12     H     0.42551  0.42551  0.00000  0.14899
      13     C     3.15964  3.15964  0.00000 -0.31928
      14     H     0.41890  0.41890  0.00000  0.16221
      15     H     0.42110  0.42110  0.00000  0.15780
      16     C     3.15480  3.15480  0.00000 -0.30960
      17     H     0.41861  0.41861  0.00000  0.16278
      18     H     0.42194  0.42194  0.00000  0.15612
      19     C     3.15566  3.15566  0.00000 -0.31132
      20     H     0.42186  0.42186  0.00000  0.15628
      21     H     0.42156  0.42156  0.00000  0.15687
      22     C     3.23942  3.23942  0.00000 -0.47884
      23     H     0.42118  0.42118  0.00000  0.15764
      24     H     0.42114  0.42114  0.00000  0.15772
      25     H     0.42218  0.42218  0.00000  0.15565
      26     H     0.41843  0.41843  0.00000  0.16314
      27     H     0.42178  0.42178  0.00000  0.15644

   Total alpha = 37.00000, Total beta = 37.00000, Total charge = -0.00000
