  ==> Input File <==

--------------------------------------------------------------------------
set {
	reference rhf
	basis 6-31G*
}

set_num_threads( 1 )
memory 2 gb

molecule MOL {
0 1

H	 3.463771	 0.168298	 -0.756243
C	 2.752674	 -0.045734	 0.033351
C	 1.322923	 0.120767	 -0.479465
H	 2.934561	 -1.059086	 0.377456
H	 2.958358	 0.631174	 0.856809
C	 0.306652	 -0.176050	 0.621399
H	 1.144658	 -0.551717	 -1.312180
H	 1.166477	 1.131798	 -0.836680
N	 -1.068537	 -0.011044	 0.085269
H	 0.372515	 -1.192590	 0.973735
H	 0.391664	 0.520566	 1.441230
O	 -1.199704	 0.642417	 -0.903243
O	 -1.954343	 -0.519771	 0.702172

	symmetry c1
}
set optking {
	frozen_dihedral = ("
		7 3 6 9
	")
}

ee = energy('scf')
oeprop('DIPOLE', 'QUADRUPOLE', 'MULLIKEN_CHARGES')
f=open( 'psi4out.xyz', 'w' )
f.write( "13  " )
f.write( str(ee) + "\n" )
f.write( MOL.save_string_xyz() )
f.close()
--------------------------------------------------------------------------

    Molecular point group: c1

    Geometry (in Angstrom), charge = 0, multiplicity = 1:

       Center              X                  Y                   Z               Mass
    ------------   -----------------  -----------------  -----------------  -----------------
           H          3.467086553353     0.165596633626    -0.765578273774     1.007825032070
           C          2.755989553353    -0.048435366374     0.024015726226    12.000000000000
           C          1.326238553353     0.118065633626    -0.488800273774    12.000000000000
           H          2.937876553353    -1.061787366374     0.368120726226     1.007825032070
           H          2.961673553353     0.628472633626     0.847473726226     1.007825032070
           C          0.309967553353    -0.178751366374     0.612063726226    12.000000000000
           H          1.147973553353    -0.554418366374    -1.321515273774     1.007825032070
           H          1.169792553353     1.129096633626    -0.846015273774     1.007825032070
           N         -1.065221446647    -0.013745366374     0.075933726226    14.003074004780
           H          0.375830553353    -1.195291366374     0.964399726226     1.007825032070
           H          0.394979553353     0.517864633626     1.431894726226     1.007825032070
           O         -1.196388446647     0.639715633626    -0.912578273774    15.994914619560
           O         -1.951027446647    -0.522472366374     0.692836726226    15.994914619560

  Charge       = 0
  Multiplicity = 1
  Basis Set: 6-31G*
  Basis Set:

    Orbital Energies (a.u.)
    -----------------------

    Doubly Occupied:

       1A    -20.603298     2A    -20.600406     3A    -15.848826
       4A    -11.300562     5A    -11.247443     6A    -11.235128
       7A     -1.632191     8A     -1.417984     9A     -1.133694
      10A     -1.025785    11A     -0.882564    12A     -0.824223
      13A     -0.762242    14A     -0.749868    15A     -0.726518
      16A     -0.657250    17A     -0.604742    18A     -0.580479
      19A     -0.550406    20A     -0.518918    21A     -0.510402
      22A     -0.484496    23A     -0.472721    24A     -0.449143

  @DF-RHF Final Energy:  -321.73358761012946

   => Energetics <=

    Nuclear Repulsion Energy =            248.1498559948315403
    One-Electron Energy =                -930.1283598029363020
    Two-Electron Energy =                 360.2449161979757264
    DFT Exchange-Correlation Energy =       0.0000000000000000
    Empirical Dispersion Energy =           0.0000000000000000
    PCM Polarization Energy =               0.0000000000000000
    EFP Energy =                            0.0000000000000000
    Total Energy =                       -321.7335876101290069

  Mulliken Charges: (a.u.)
   Center  Symbol    Alpha    Beta     Spin     Total
       1     H     0.40825  0.40825  0.00000  0.18350
       2     C     3.24871  3.24871  0.00000 -0.49743
       3     C     3.16692  3.16692  0.00000 -0.33384
       4     H     0.41751  0.41751  0.00000  0.16498
       5     H     0.41746  0.41746  0.00000  0.16509
       6     C     3.09083  3.09083  0.00000 -0.18166
       7     H     0.40535  0.40535  0.00000  0.18930
       8     H     0.39620  0.39620  0.00000  0.20761
       9     N     3.22257  3.22257  0.00000  0.55487
      10     H     0.38574  0.38574  0.00000  0.22851
      11     H     0.38418  0.38418  0.00000  0.23164
      12     O     4.22695  4.22695  0.00000 -0.45389
      13     O     4.22934  4.22934  0.00000 -0.45868

   Total alpha = 24.00000, Total beta = 24.00000, Total charge = -0.00000
