  ==> Input File <==

--------------------------------------------------------------------------
set {
	reference rhf
	basis 6-31G*
}

set_num_threads( 4 )
memory 2 gb

molecule MOL {
0 1

H	 0.686745	 -2.832003	 -1.997991
O	 0.715804	 -2.316100	 -1.198125
C	 -0.287701	 -1.440135	 -1.234089
C	 -0.318135	 -0.576402	 0.000164
O	 -1.043543	 -1.381664	 -2.148572
C	 -1.454360	 0.441875	 -0.000474
H	 -0.383575	 -1.239720	 0.858494
H	 0.649346	 -0.087535	 0.077575
C	 -2.826123	 -0.230780	 0.000056
H	 -1.357605	 1.085198	 -0.868380
H	 -1.357504	 1.086451	 0.866496
H	 -2.959731	 -0.858053	 -0.876869
H	 -3.619374	 0.509403	 -0.000080
H	 -2.959371	 -0.857318	 0.877556

	symmetry c1
}
set optking {
	frozen_dihedral = ("
		7 4 6 10
	")
}

ee = optimize('scf')
oeprop('DIPOLE', 'QUADRUPOLE', 'MULLIKEN_CHARGES')
f=open( 'psi4out.xyz', 'w' )
f.write( "14  " )
f.write( str(ee) + "\n" )
f.write( MOL.save_string_xyz() )
f.close()
--------------------------------------------------------------------------

    Molecular point group: c1
  Charge       = 0
  Multiplicity = 1
  Basis Set: 6-31G*
  Basis Set:
  @DF-RHF Final Energy:  -305.87888358102668
    Total Energy =                       -305.8788835810266846
    Molecular point group: c1
  Basis Set: 6-31G*
  Basis Set:
  Basis Set: 6-31G*
  Basis Set:
  @DF-RHF Final Energy:  -305.87997153963482
    Total Energy =                       -305.8799715396346528
  Basis Set: 6-31G*
  Basis Set:
  Basis Set: 6-31G*
  Basis Set:
  @DF-RHF Final Energy:  -305.87863603610322
    Total Energy =                       -305.8786360361032166
  Basis Set: 6-31G*
  Basis Set:
  Basis Set: 6-31G*
  Basis Set:
  @DF-RHF Final Energy:  -305.88024138134483
    Total Energy =                       -305.8802413813448311
  Basis Set: 6-31G*
  Basis Set:
  Basis Set: 6-31G*
  Basis Set:
  @DF-RHF Final Energy:  -305.88031134411693
    Total Energy =                       -305.8803113441169899
  Basis Set: 6-31G*
  Basis Set:
  Basis Set: 6-31G*
  Basis Set:
  @DF-RHF Final Energy:  -305.88034432163522
    Total Energy =                       -305.8803443216353344
  Basis Set: 6-31G*
  Basis Set:
  Basis Set: 6-31G*
  Basis Set:
  @DF-RHF Final Energy:  -305.88034671508387
    Total Energy =                       -305.8803467150839879
  Basis Set: 6-31G*
  Basis Set:
  Charge       = 0
  Multiplicity = 1
  Basis Set: 6-31G*
  Basis Set:

    Orbital Energies (a.u.)
    -----------------------

    Doubly Occupied:

       1A    -20.614110     2A    -20.552565     3A    -11.382628
       4A    -11.241506     5A    -11.226571     6A    -11.210231
       7A     -1.476093     8A     -1.366815     9A     -1.081487
      10A     -0.975954    11A     -0.861620    12A     -0.786972
      13A     -0.702504    14A     -0.691659    15A     -0.659409
      16A     -0.612178    17A     -0.594672    18A     -0.566331
      19A     -0.556448    20A     -0.496720    21A     -0.489864
      22A     -0.485520    23A     -0.477000    24A     -0.442974

  @DF-RHF Final Energy:  -305.88034720091366

   => Energetics <=

    Nuclear Repulsion Energy =            244.6503526779847562
    One-Electron Energy =                -901.9577380320984048
    Two-Electron Energy =                 351.4270381532001011
    DFT Exchange-Correlation Energy =       0.0000000000000000
    Empirical Dispersion Energy =           0.0000000000000000
    PCM Polarization Energy =               0.0000000000000000
    EFP Energy =                            0.0000000000000000
    Total Energy =                       -305.8803472009135476
    Molecular point group: c1
  Basis Set: 6-31G*
  Basis Set:

  -Total Gradient:
     Atom            X                  Y                   Z
    ------   -----------------  -----------------  -----------------
       1       -0.000026772484     0.000040762910     0.000015467466
       2        0.000066703547    -0.000071165497     0.000046205924
       3       -0.000010918744    -0.000001368391    -0.000107400769
       4       -0.000704515129    -0.000803599739    -0.000615398987
       5       -0.000015692594     0.000015090332     0.000010744162
       6       -0.000621565915    -0.000706712390    -0.000585273971
       7        0.000650040626     0.000771501407     0.000609344719
       8        0.000007486401     0.000008893434     0.000001514147
       9        0.000028023626    -0.000019172153     0.000012063558
      10        0.000653843732     0.000742359056     0.000605851897
      11       -0.000021654016     0.000011879699     0.000006957166
      12       -0.000003560054     0.000000136660    -0.000015009700
      13       -0.000000458697     0.000012663791     0.000007398509
      14       -0.000000960298    -0.000001269114     0.000007535888

  **** Optimization is complete! (in 8 steps) ****
    Final optimized geometry and variables:
    Molecular point group: c1

    Geometry (in Angstrom), charge = 0, multiplicity = 1:

    H            1.485561203450    -1.963309320485    -1.137119376350
    O            1.443856042251    -1.488141978212    -0.312863682572
    C            0.601758202904    -0.467703852876    -0.466482492669
    C            0.511225566895     0.374847466446     0.780585741823
    O            0.035163393839    -0.265664594204    -1.491406024129
    C           -0.651448650291     1.366121757144     0.785207993821
    H            0.477003152234    -0.283690355899     1.642257992149
    H            1.459378662566     0.903456453144     0.852185396269
    C           -2.027590678559     0.703872233171     0.843483523157
    H           -0.580365389118     2.003259209093    -0.089189088835
    H           -0.528776659702     2.012358250412     1.650134067750
    H           -2.206989391144     0.090069269775    -0.030888488806
    H           -2.810479730170     1.454029208112     0.888941735777
    H           -2.121688346049     0.076571562618     1.726222885734

  Mulliken Charges: (a.u.)
   Center  Symbol    Alpha    Beta     Spin     Total
       1     H     0.26780  0.26780  0.00000  0.46440
       2     O     4.35008  4.35008  0.00000 -0.70017
       3     C     2.62331  2.62331  0.00000  0.75338
       4     C     3.21102  3.21102  0.00000 -0.42204
       5     O     4.28057  4.28057  0.00000 -0.56115
       6     C     3.15317  3.15317  0.00000 -0.30633
       7     H     0.39916  0.39916  0.00000  0.20168
       8     H     0.39616  0.39616  0.00000  0.20767
       9     C     3.24708  3.24708  0.00000 -0.49416
      10     H     0.40735  0.40735  0.00000  0.18530
      11     H     0.41775  0.41775  0.00000  0.16450
      12     H     0.40549  0.40549  0.00000  0.18903
      13     H     0.41703  0.41703  0.00000  0.16595
      14     H     0.42403  0.42403  0.00000  0.15194

   Total alpha = 24.00000, Total beta = 24.00000, Total charge =  0.00000
