  ==> Input File <==

--------------------------------------------------------------------------
set {
	reference rhf
	basis 6-31G*
}

set_num_threads( 4 )
memory 2 gb

molecule MOL {
0 1

O	 1.216428	 0.398019	 -0.965671
C	 0.576249	 0.131685	 -0.000108
C	 -0.766779	 -0.556801	 -0.000461
O	 0.972008	 0.413487	 1.234649
C	 -1.945214	 0.412366	 0.000161
H	 -0.796911	 -1.211249	 -0.867467
H	 -0.796854	 -1.212390	 0.865687
C	 -3.287791	 -0.317055	 0.000105
H	 -1.876087	 1.060580	 -0.866812
H	 -1.875822	 1.059691	 0.867761
H	 -3.394745	 -0.949193	 -0.877058
H	 -4.111778	 0.388953	 0.000015
H	 -3.394954	 -0.949187	 0.877259
C	 2.222125	 1.063375	 1.376279
H	 3.015816	 0.453069	 0.969924
H	 2.363427	 1.203242	 2.436627
H	 2.213609	 2.018102	 0.870380

	symmetry c1
}
set optking {
	frozen_dihedral = ("
		1 2 3 6
	")
}

ee = optimize('scf')
oeprop('DIPOLE', 'QUADRUPOLE', 'MULLIKEN_CHARGES')
f=open( 'psi4out.xyz', 'w' )
f.write( "17  " )
f.write( str(ee) + "\n" )
f.write( MOL.save_string_xyz() )
f.close()
--------------------------------------------------------------------------

    Molecular point group: c1
  Charge       = 0
  Multiplicity = 1
  Basis Set: 6-31G*
  Basis Set:
  @DF-RHF Final Energy:  -344.90477935067025
    Total Energy =                       -344.9047793506707649
    Molecular point group: c1
  Basis Set: 6-31G*
  Basis Set:
  Basis Set: 6-31G*
  Basis Set:
  @DF-RHF Final Energy:  -344.90415037352568
    Total Energy =                       -344.9041503735254537
  Basis Set: 6-31G*
  Basis Set:
  Basis Set: 6-31G*
  Basis Set:
  @DF-RHF Final Energy:  -344.90530166965118
    Total Energy =                       -344.9053016696515215
  Basis Set: 6-31G*
  Basis Set:
  Basis Set: 6-31G*
  Basis Set:
  @DF-RHF Final Energy:  -344.90542203054565
    Total Energy =                       -344.9054220305456511
  Basis Set: 6-31G*
  Basis Set:
  Basis Set: 6-31G*
  Basis Set:
  @DF-RHF Final Energy:  -344.90542353407005
    Total Energy =                       -344.9054235340701098
  Basis Set: 6-31G*
  Basis Set:
  Charge       = 0
  Multiplicity = 1
  Basis Set: 6-31G*
  Basis Set:

    Orbital Energies (a.u.)
    -----------------------

    Doubly Occupied:

       1A    -20.604901     2A    -20.543133     3A    -11.371015
       4A    -11.280801     5A    -11.234145     6A    -11.232678
       7A    -11.218942     8A     -1.468960     9A     -1.361402
      10A     -1.084440    11A     -0.999765    12A     -0.941707
      13A     -0.830462    14A     -0.773827    15A     -0.697407
      16A     -0.679463    17A     -0.673145    18A     -0.636223
      19A     -0.595373    20A     -0.582389    21A     -0.553167
      22A     -0.542907    23A     -0.526063    24A     -0.506693
      25A     -0.488212    26A     -0.484529    27A     -0.453967
      28A     -0.432262

  @DF-RHF Final Energy:  -344.90542436753174

   => Energetics <=

    Nuclear Repulsion Energy =            313.9101175515814930
    One-Electron Energy =               -1092.0351273969704380
    Two-Electron Energy =                 433.2195854778573221
    DFT Exchange-Correlation Energy =       0.0000000000000000
    Empirical Dispersion Energy =           0.0000000000000000
    PCM Polarization Energy =               0.0000000000000000
    EFP Energy =                            0.0000000000000000
    Total Energy =                       -344.9054243675316229
    Molecular point group: c1
  Basis Set: 6-31G*
  Basis Set:

  -Total Gradient:
     Atom            X                  Y                   Z
    ------   -----------------  -----------------  -----------------
       1       -0.000208929991     0.000384420106     0.000059227014
       2        0.000317497230    -0.000646396060    -0.000018607028
       3       -0.000317359401     0.000573378117    -0.000260447782
       4        0.000027410600     0.000019645649    -0.000002732525
       5        0.000000551314    -0.000004903941     0.000010235508
       6        0.000172180319    -0.000329314004     0.000208664262
       7       -0.000000628775     0.000000922524    -0.000013302372
       8        0.000008752618     0.000001521542     0.000004250276
       9       -0.000005235974    -0.000021284157     0.000004331184
      10       -0.000013685117     0.000012703574    -0.000002241879
      11        0.000006863485     0.000005593628    -0.000004214184
      12        0.000002812342     0.000008385114     0.000005287634
      13        0.000011048067    -0.000002316850    -0.000002663832
      14       -0.000018271531    -0.000011677804     0.000010499801
      15        0.000004777513     0.000000140371    -0.000001147356
      16        0.000012376871     0.000008080463     0.000002841714
      17       -0.000000159573     0.000001101729     0.000000019564

  **** Optimization is complete! (in 6 steps) ****
    Final optimized geometry and variables:
    Molecular point group: c1

    Geometry (in Angstrom), charge = 0, multiplicity = 1:

    O            1.296933398792     0.182035157519    -1.211918728030
    C            0.693364544895    -0.128028555840    -0.235182540902
    C           -0.639150560502    -0.833572987893    -0.236971045737
    O            1.106202092004     0.153678066235     0.993829161219
    C           -1.796193880639     0.177424014469    -0.234718438954
    H           -0.681660306735    -1.448985768866    -1.127162359392
    H           -0.706197274352    -1.475271768810     0.633808743098
    C           -3.159613169472    -0.510370125335    -0.261475474190
    H           -1.696889748447     0.829447570987    -1.097277312439
    H           -1.720251453966     0.805457481816     0.648051271190
    H           -3.271312170159    -1.124583962254    -1.150002664412
    H           -3.961751651574     0.220391907884    -0.260460004596
    H           -3.293180445543    -1.151199380265     0.605108757220
    C            2.324480544925     0.865487614017     1.114107537120
    H            3.136892960728     0.303297864510     0.676793521628
    H            2.486978774952     0.996244073515     2.172623421319
    H            2.253104447406     1.825933897662     0.624216521880

  Mulliken Charges: (a.u.)
   Center  Symbol    Alpha    Beta     Spin     Total
       1     O     4.28533  4.28533  0.00000 -0.57065
       2     C     2.61734  2.61734  0.00000  0.76532
       3     C     3.19255  3.19255  0.00000 -0.38511
       4     O     4.30281  4.30281  0.00000 -0.60563
       5     C     3.16543  3.16543  0.00000 -0.33086
       6     H     0.40050  0.40050  0.00000  0.19900
       7     H     0.40418  0.40418  0.00000  0.19163
       8     C     3.24078  3.24078  0.00000 -0.48157
       9     H     0.40842  0.40842  0.00000  0.18316
      10     H     0.41131  0.41131  0.00000  0.17738
      11     H     0.41809  0.41809  0.00000  0.16382
      12     H     0.41510  0.41510  0.00000  0.16981
      13     H     0.41918  0.41918  0.00000  0.16165
      14     C     3.09278  3.09278  0.00000 -0.18556
      15     H     0.40840  0.40840  0.00000  0.18320
      16     H     0.40871  0.40871  0.00000  0.18259
      17     H     0.40909  0.40909  0.00000  0.18181

   Total alpha = 28.00000, Total beta = 28.00000, Total charge = -0.00000
