  ==> Input File <==

--------------------------------------------------------------------------
set {
	reference rhf
	basis 6-31G*
}

set_num_threads( 4 )
memory 2 gb

molecule MOL {
0 1

H	 -3.420663	 1.227371	 -1.044276
O	 -3.452007	 0.283848	 -0.965577
C	 -3.181085	 -0.079926	 0.364119
C	 -1.765924	 0.277073	 0.805136
H	 -3.327791	 -1.152017	 0.410903
H	 -3.905698	 0.375695	 1.036898
C	 -0.677594	 -0.417312	 -0.014550
H	 -1.637766	 1.358238	 0.744969
H	 -1.659588	 0.017670	 1.857098
C	 0.730975	 0.083679	 0.311212
H	 -0.881901	 -0.275212	 -1.071326
H	 -0.729330	 -1.489988	 0.164566
C	 1.815430	 -0.620176	 -0.508928
H	 0.773141	 1.156631	 0.139701
H	 0.931685	 -0.064094	 1.371628
C	 3.251209	 -0.215612	 -0.155343
H	 1.641717	 -0.435982	 -1.567981
H	 1.715415	 -1.694463	 -0.368494
C	 3.599382	 1.239053	 -0.476481
H	 3.934991	 -0.864803	 -0.696898
H	 3.428028	 -0.404342	 0.901690
H	 3.420294	 1.460498	 -1.525303
H	 4.646760	 1.438949	 -0.271839
H	 3.014482	 1.936845	 0.113555

	symmetry c1
}
set optking {
	frozen_dihedral = ("
		11 7 4 3
	")
}

ee = optimize('scf')
oeprop('DIPOLE', 'QUADRUPOLE', 'MULLIKEN_CHARGES')
f=open( 'psi4out.xyz', 'w' )
f.write( "24  " )
f.write( str(ee) + "\n" )
f.write( MOL.save_string_xyz() )
f.close()
--------------------------------------------------------------------------

    Molecular point group: c1
  Charge       = 0
  Multiplicity = 1
  Basis Set: 6-31G*
  Basis Set:
  @DF-RHF Final Energy:  -349.24748373338468
    Total Energy =                       -349.2474837333844562
    Molecular point group: c1
  Basis Set: 6-31G*
  Basis Set:
  Basis Set: 6-31G*
  Basis Set:
  @DF-RHF Final Energy:  -349.24748744561879
    Total Energy =                       -349.2474874456188445
  Basis Set: 6-31G*
  Basis Set:
  Basis Set: 6-31G*
  Basis Set:
  @DF-RHF Final Energy:  -349.24750145623085
    Total Energy =                       -349.2475014562311912
  Basis Set: 6-31G*
  Basis Set:
  Basis Set: 6-31G*
  Basis Set:
  @DF-RHF Final Energy:  -349.24750247640492
    Total Energy =                       -349.2475024764046907
  Basis Set: 6-31G*
  Basis Set:
  Charge       = 0
  Multiplicity = 1
  Basis Set: 6-31G*
  Basis Set:

    Orbital Energies (a.u.)
    -----------------------

    Doubly Occupied:

       1A    -20.553797     2A    -11.267789     3A    -11.217445
       4A    -11.214032     5A    -11.212442     6A    -11.211529
       7A    -11.210829     8A    -11.207343     9A     -1.360432
      10A     -1.088438    11A     -1.048201    12A     -0.985649
      13A     -0.914911    14A     -0.850409    15A     -0.800936
      16A     -0.776341    17A     -0.679314    18A     -0.653494
      19A     -0.624648    20A     -0.620487    21A     -0.596246
      22A     -0.584759    23A     -0.558461    24A     -0.539595
      25A     -0.514317    26A     -0.511426    27A     -0.498502
      28A     -0.472018    29A     -0.467388    30A     -0.459253
      31A     -0.455349    32A     -0.451074    33A     -0.419263

  @DF-RHF Final Energy:  -349.24750195728734

   => Energetics <=

    Nuclear Repulsion Energy =            384.6700849289429698
    One-Electron Energy =               -1235.7829321789304231
    Two-Electron Energy =                 501.8653452927005105
    DFT Exchange-Correlation Energy =       0.0000000000000000
    Empirical Dispersion Energy =           0.0000000000000000
    PCM Polarization Energy =               0.0000000000000000
    EFP Energy =                            0.0000000000000000
    Total Energy =                       -349.2475019572869428
    Molecular point group: c1
  Basis Set: 6-31G*
  Basis Set:

  -Total Gradient:
     Atom            X                  Y                   Z
    ------   -----------------  -----------------  -----------------
       1       -0.000001017366     0.000013658363    -0.000015898687
       2        0.000035518111     0.000019547499     0.000044612967
       3       -0.000012886213     0.000520492205    -0.000513263895
       4       -0.000109135800    -0.000990218267     0.000635050655
       5       -0.000032739415    -0.000014795148     0.000002816738
       6        0.000005214596     0.000008801994    -0.000003086816
       7        0.000767046290     0.001299013328    -0.000041698159
       8        0.000036909023     0.000061970896     0.000045049384
       9       -0.000018304673    -0.000032609316    -0.000053067532
      10       -0.000066609585     0.000063715212    -0.000082438255
      11       -0.000583104119    -0.000907074493     0.000014903861
      12        0.000007542046    -0.000071817687    -0.000012602165
      13       -0.000019598470     0.000014388533    -0.000022259312
      14       -0.000008165000    -0.000012001652    -0.000001017393
      15       -0.000029520747     0.000000684205    -0.000018580684
      16       -0.000019215441     0.000012622698     0.000053811432
      17        0.000001196775     0.000034807590     0.000004415148
      18        0.000001473364    -0.000007685832    -0.000027155312
      19        0.000018357250    -0.000000881356    -0.000013790207
      20       -0.000003498043    -0.000017659454     0.000016491395
      21       -0.000008952204     0.000021106582     0.000011042647
      22       -0.000011288525     0.000006604436    -0.000005783771
      23        0.000003217899    -0.000011160681    -0.000012385816
      24        0.000047560254    -0.000011509653    -0.000005166221

  **** Optimization is complete! (in 5 steps) ****
    Final optimized geometry and variables:
    Molecular point group: c1

    Geometry (in Angstrom), charge = 0, multiplicity = 1:

    H           -3.422941613411     1.148377948741    -0.923082504906
    O           -3.444337899500     0.203384764611    -0.860695123999
    C           -3.164908142507    -0.180550245572     0.461460193500
    C           -1.751230178267     0.184320236345     0.901900255076
    H           -3.301836645939    -1.254571935371     0.490511607256
    H           -3.890991923509     0.256802018874     1.144531331661
    C           -0.660219784637    -0.498031177352     0.075062188276
    H           -1.634979444506     1.267049195529     0.841605669514
    H           -1.637603795865    -0.073912204670     1.953082736445
    C            0.747736268546     0.000399002836     0.404888957957
    H           -0.868893767574    -0.350769722018    -0.980066878597
    H           -0.710816632143    -1.572592383000     0.244978430464
    C            1.833985927013    -0.708965299911    -0.408006673849
    H            0.793011926106     1.072546126780     0.229834322601
    H            0.943325363465    -0.144156789853     1.466773401936
    C            3.269249441207    -0.306488269743    -0.049952593624
    H            1.664986868292    -0.528388948323    -1.468401474069
    H            1.730915452849    -1.782502445900    -0.263950525579
    C            3.625721196194     1.143053722352    -0.384813328167
    H            3.953487936761    -0.964392469782    -0.580223035114
    H            3.438799504107    -0.484476660492     1.010144098741
    H            3.451870044620     1.354396997431    -1.436577138282
    H            4.673266333178     1.339956915293    -0.178101025364
    H            3.041924943073     1.849789806697     0.195550737759

  Mulliken Charges: (a.u.)
   Center  Symbol    Alpha    Beta     Spin     Total
       1     H     0.28332  0.28332  0.00000  0.43336
       2     O     4.36815  4.36815  0.00000 -0.73631
       3     C     2.99655  2.99655  0.00000  0.00689
       4     C     3.16843  3.16843  0.00000 -0.33686
       5     H     0.41634  0.41634  0.00000  0.16732
       6     H     0.42809  0.42809  0.00000  0.14381
       7     C     3.15369  3.15369  0.00000 -0.30738
       8     H     0.42875  0.42875  0.00000  0.14250
       9     H     0.42203  0.42203  0.00000  0.15595
      10     C     3.15341  3.15341  0.00000 -0.30682
      11     H     0.41034  0.41034  0.00000  0.17932
      12     H     0.42392  0.42392  0.00000  0.15216
      13     C     3.15234  3.15234  0.00000 -0.30469
      14     H     0.42290  0.42290  0.00000  0.15420
      15     H     0.42550  0.42550  0.00000  0.14900
      16     C     3.15233  3.15233  0.00000 -0.30465
      17     H     0.42344  0.42344  0.00000  0.15312
      18     H     0.42218  0.42218  0.00000  0.15565
      19     C     3.24099  3.24099  0.00000 -0.48198
      20     H     0.42107  0.42107  0.00000  0.15785
      21     H     0.42380  0.42380  0.00000  0.15241
      22     H     0.42221  0.42221  0.00000  0.15558
      23     H     0.41956  0.41956  0.00000  0.16088
      24     H     0.42065  0.42065  0.00000  0.15869

   Total alpha = 33.00000, Total beta = 33.00000, Total charge =  0.00000
