                              Psi4 1.0.54 Driver

  ==> Input File <==

--------------------------------------------------------------------------
set {
	reference rhf
	basis cc-pvtz
}

set_num_threads( 4 )
memory 2 gb

molecule MOL {
0 1

H	 1.351567	 -2.119154	 -0.665860
C	 0.411423	 -1.611671	 -0.801593
O	 0.462329	 -0.453336	 -0.000137
H	 -0.393731	 -2.265532	 -0.491092
H	 0.292277	 -1.357369	 -1.847238
C	 -0.590565	 0.341382	 0.000062
O	 -1.693898	 -0.053880	 0.000252
H	 -0.340426	 1.403822	 0.000200

	symmetry c1
}
set optking {
	frozen_dihedral = ("
		2 3 6 7
	")
}

ee,wfn = optimize('scf', return_wfn=True)
oeprop( wfn, 'DIPOLE', 'QUADRUPOLE', 'MULLIKEN_CHARGES')
f=open( 'psi4out.xyz', 'w' )
f.write( "8  " )
f.write( str(ee) + "\n" )
f.write( MOL.save_string_xyz() )
f.close()
--------------------------------------------------------------------------

    Molecular point group: c1
  Charge       = 0
  Multiplicity = 1
  Basis Set: CC-PVTZ
  Basis Set:
  @DF-RHF Final Energy:  -227.86939867869933
    Total Energy =                       -227.8693986786992696
    Molecular point group: c1
  Basis Set: CC-PVTZ
  Basis Set:
  Basis Set: CC-PVTZ
  Basis Set:
  @DF-RHF Final Energy:  -227.86258461567476
    Total Energy =                       -227.8625846156749049
  Basis Set: CC-PVTZ
  Basis Set:
  Basis Set: CC-PVTZ
  Basis Set:
  @DF-RHF Final Energy:  -227.86899877208512
    Total Energy =                       -227.8689987720851491
  Basis Set: CC-PVTZ
  Basis Set:
  Basis Set: CC-PVTZ
  Basis Set:
  @DF-RHF Final Energy:  -227.87062622329921
    Total Energy =                       -227.8706262232993254
  Basis Set: CC-PVTZ
  Basis Set:
  Basis Set: CC-PVTZ
  Basis Set:
  @DF-RHF Final Energy:  -227.87063035569844
    Total Energy =                       -227.8706303556983812
  Basis Set: CC-PVTZ
  Basis Set:
  Basis Set: CC-PVTZ
  Basis Set:
  @DF-RHF Final Energy:  -227.87066739486545
    Total Energy =                       -227.8706673948654498
  Basis Set: CC-PVTZ
  Basis Set:
  Charge       = 0
  Multiplicity = 1
  Basis Set: CC-PVTZ
  Basis Set:

    Orbital Energies (a.u.)
    -----------------------

    Doubly Occupied:

       1A    -20.601629     2A    -20.553317     3A    -11.373882
       4A    -11.290061     5A     -1.477433     6A     -1.381287
       7A     -0.995351     8A     -0.823033     9A     -0.744898
      10A     -0.686687    11A     -0.677823    12A     -0.611381
      13A     -0.562255    14A     -0.528713    15A     -0.471725
      16A     -0.458829

  @DF-RHF Final Energy:  -227.87066764039338

   => Energetics <=

    Nuclear Repulsion Energy =            123.2479363468352176
    One-Electron Energy =                -555.7606005489801646
    Two-Electron Energy =                 204.6419965617516254
    DFT Exchange-Correlation Energy =       0.0000000000000000
    Empirical Dispersion Energy =           0.0000000000000000
    PCM Polarization Energy =               0.0000000000000000
    EFP Energy =                            0.0000000000000000
    Total Energy =                       -227.8706676403933216
    Molecular point group: c1
  Basis Set: CC-PVTZ
  Basis Set:

  -Total Gradient:
     Atom            X                  Y                   Z
    ------   -----------------  -----------------  -----------------
       1        0.000001575908    -0.000023721080    -0.000022150622
       2        0.003551082097     0.004332548702    -0.005642019760
       3       -0.005749098278    -0.006717836683     0.013923285390
       4       -0.000001699106     0.000000391886    -0.000009360954
       5       -0.000000400130     0.000026641707     0.000008570519
       6        0.002997491782     0.002810630692    -0.018746495959
       7       -0.000779350720    -0.000429213400     0.010478197592
       8       -0.000019601554     0.000000558177     0.000009973795

  **** Optimization is complete! (in 7 steps) ****
    Final optimized geometry and variables:
    Molecular point group: c1

    Geometry (in Angstrom), charge = 0, multiplicity = 1:

    H            1.752857620536    -1.634998928355    -0.419704347207
    C            0.809751772411    -1.141381405006    -0.585222851133
    O            0.799857899007    -0.010084701220     0.268945245153
    H           -0.005095366712    -1.809988549316    -0.353265695674
    H            0.737785321084    -0.825943960171    -1.617161689894
    C           -0.256093568231     0.784064184977     0.223860161636
    O           -1.374019139164     0.432693266303     0.128559816544
    H            0.034494578445     1.818341755114     0.384121577839

  Mulliken Charges: (a.u.)
   Center  Symbol    Alpha    Beta     Spin     Total
       1     H     0.44489  0.44489  0.00000  0.11022
       2     C     3.02670  3.02670  0.00000 -0.05340
       3     O     4.14728  4.14728  0.00000 -0.29456
       4     H     0.44806  0.44806  0.00000  0.10388
       5     H     0.46076  0.46076  0.00000  0.07848
       6     C     2.83352  2.83352  0.00000  0.33297
       7     O     4.18363  4.18363  0.00000 -0.36726
       8     H     0.45516  0.45516  0.00000  0.08968

   Total alpha = 16.00000, Total beta = 16.00000, Total charge =  0.00000

*** Psi4 exiting successfully. Buy a developer a beer!
