  ==> Input File <==

--------------------------------------------------------------------------
set {
	reference rhf
	basis cc-pvtz
}

set_num_threads( 4 )
memory 2 gb

molecule MOL {
0 1

H	 -4.239371	 0.023641	 0.657693
O	 -3.520448	 -0.329658	 0.167259
C	 -2.308455	 0.193930	 0.641964
C	 -1.175688	 -0.398187	 -0.171891
H	 -2.301325	 1.278266	 0.552877
H	 -2.174921	 -0.049010	 1.694094
C	 0.196029	 0.106276	 0.266738
H	 -1.343017	 -0.160370	 -1.217675
H	 -1.220254	 -1.479293	 -0.087387
C	 1.330220	 -0.826136	 -0.155230
H	 0.359542	 1.097229	 -0.145561
H	 0.212134	 0.218135	 1.348778
C	 2.719700	 -0.407669	 0.328325
H	 1.339388	 -0.911200	 -1.239363
H	 1.119001	 -1.821953	 0.224128
C	 3.241564	 0.893452	 -0.276737
H	 3.418299	 -1.204729	 0.093035
H	 2.711776	 -0.323368	 1.411960
H	 3.254204	 0.841071	 -1.360784
H	 2.634460	 1.745075	 0.005842
H	 4.254264	 1.092401	 0.054971

	symmetry c1
}
set optking {
	frozen_dihedral = ("
		8 4 7 10
	")
}

ee = optimize('scf')
oeprop('DIPOLE', 'QUADRUPOLE', 'MULLIKEN_CHARGES')
f=open( 'psi4out.xyz', 'w' )
f.write( "21  " )
f.write( str(ee) + "\n" )
f.write( MOL.save_string_xyz() )
f.close()
--------------------------------------------------------------------------

    Molecular point group: c1
  Charge       = 0
  Multiplicity = 1
  Basis Set: CC-PVTZ
  Basis Set:
  @DF-RHF Final Energy:  -310.33163071835475
    Total Energy =                       -310.3316307183547451
    Molecular point group: c1
  Basis Set: CC-PVTZ
  Basis Set:
  Basis Set: CC-PVTZ
  Basis Set:
  @DF-RHF Final Energy:  -310.33179938971080
    Total Energy =                       -310.3317993897109091
  Basis Set: CC-PVTZ
  Basis Set:
  Basis Set: CC-PVTZ
  Basis Set:
  @DF-RHF Final Energy:  -310.33182206027726
    Total Energy =                       -310.3318220602775455
  Basis Set: CC-PVTZ
  Basis Set:
  Basis Set: CC-PVTZ
  Basis Set:
  @DF-RHF Final Energy:  -310.33183011753647
    Total Energy =                       -310.3318301175362421
  Basis Set: CC-PVTZ
  Basis Set:
  Basis Set: CC-PVTZ
  Basis Set:
  @DF-RHF Final Energy:  -310.33183148450934
    Total Energy =                       -310.3318314845091663
  Basis Set: CC-PVTZ
  Basis Set:
  Charge       = 0
  Multiplicity = 1
  Basis Set: CC-PVTZ
  Basis Set:

    Orbital Energies (a.u.)
    -----------------------

    Doubly Occupied:

       1A    -20.545367     2A    -11.264966     3A    -11.213228
       4A    -11.213092     5A    -11.211429     6A    -11.208928
       7A    -11.206017     8A     -1.363293     9A     -1.087074
      10A     -1.034304    11A     -0.955501    12A     -0.876161
      13A     -0.807494    14A     -0.779651    15A     -0.696553
      16A     -0.662369    17A     -0.621427    18A     -0.609990
      19A     -0.590798    20A     -0.564625    21A     -0.544531
      22A     -0.519227    23A     -0.508303    24A     -0.492976
      25A     -0.477356    26A     -0.458662    27A     -0.456859
      28A     -0.444655    29A     -0.437066

  @DF-RHF Final Energy:  -310.33183163607225

   => Energetics <=

    Nuclear Repulsion Energy =            312.7939972932105093
    One-Electron Energy =               -1040.5478542587388802
    Two-Electron Energy =                 417.4220253294563463
    DFT Exchange-Correlation Energy =       0.0000000000000000
    Empirical Dispersion Energy =           0.0000000000000000
    PCM Polarization Energy =               0.0000000000000000
    EFP Energy =                            0.0000000000000000
    Total Energy =                       -310.3318316360720246
    Molecular point group: c1
  Basis Set: CC-PVTZ
  Basis Set:

  -Total Gradient:
     Atom            X                  Y                   Z
    ------   -----------------  -----------------  -----------------
       1       -0.000001143187     0.000005107536    -0.000003340969
       2       -0.000005996603    -0.000008652922     0.000004543172
       3        0.000000706440     0.000001722228    -0.000004732876
       4        0.001511666179    -0.003825828403    -0.000367123147
       5       -0.000001173141    -0.000002885228    -0.000001235856
       6        0.000005558068    -0.000002765622    -0.000003001657
       7       -0.000015129976     0.002323703416    -0.002436237654
       8       -0.001290794557     0.002713509189     0.000908520443
       9       -0.000001289245    -0.000003677256    -0.000007497954
      10       -0.000211651471    -0.001200244116     0.001922143807
      11        0.000005383558     0.000003430939    -0.000006258289
      12       -0.000002001041     0.000002853438    -0.000003168597
      13       -0.000001691779    -0.000004393812    -0.000000615253
      14        0.000004460196     0.000003010748     0.000007931629
      15        0.000003640185    -0.000003888214    -0.000000349396
      16       -0.000001115830     0.000004231941    -0.000001288927
      17        0.000002995701    -0.000000075172    -0.000002181746
      18       -0.000004367644    -0.000004099164    -0.000006123685
      19       -0.000000186473    -0.000002121643     0.000001418631
      20        0.000001316615    -0.000000888712    -0.000000774231
      21        0.000000814002     0.000001950828    -0.000000627444

  **** Optimization is complete! (in 6 steps) ****
    Final optimized geometry and variables:
    Molecular point group: c1

    Geometry (in Angstrom), charge = 0, multiplicity = 1:

    H           -4.243782933697     0.191971427299     0.473802892934
    O           -3.523968167762    -0.163874925879    -0.013413799378
    C           -2.307975776013     0.278627245197     0.528127226348
    C           -1.172254287566    -0.323159293403    -0.276686928214
    H           -2.249158100449     1.364929485918     0.495995531883
    H           -2.222880989423    -0.022860248338     1.569924466527
    C            0.197720177762     0.170401438029     0.190708736264
    H           -1.332112033768    -0.053039306787    -1.315177350185
    H           -1.235278377243    -1.403607706807    -0.208156658280
    C            1.341933565485    -0.742105537434    -0.247889661563
    H            0.355670304134     1.180685315694    -0.170370472664
    H            0.208666658223     0.230479001003     1.277455794151
    C            2.730999316175    -0.297301973373     0.212469850252
    H            1.337103422195    -0.833695440523    -1.331948624930
    H            1.151490107436    -1.738444385679     0.139918936015
    C            3.231733515238     0.996213084701    -0.425762203844
    H            3.436808174618    -1.090800947456    -0.013059767302
    H            2.732896421608    -0.190079230701     1.294185664714
    H            3.237603105682     0.918724107282    -1.508276123362
    H            2.615752956730     1.846416265506    -0.158782238535
    H            4.244024870569     1.215739028981    -0.106002879467

  Mulliken Charges: (a.u.)
   Center  Symbol    Alpha    Beta     Spin     Total
       1     H     0.39742  0.39742  0.00000  0.20517
       2     O     4.19476  4.19476  0.00000 -0.38952
       3     C     2.96253  2.96253  0.00000  0.07495
       4     C     3.08409  3.08409  0.00000 -0.16818
       5     H     0.47521  0.47521  0.00000  0.04957
       6     H     0.47463  0.47463  0.00000  0.05073
       7     C     3.10455  3.10455  0.00000 -0.20909
       8     H     0.44992  0.44992  0.00000  0.10016
       9     H     0.45157  0.45157  0.00000  0.09686
      10     C     3.09416  3.09416  0.00000 -0.18831
      11     H     0.45036  0.45036  0.00000  0.09928
      12     H     0.45802  0.45802  0.00000  0.08396
      13     C     3.08999  3.08999  0.00000 -0.17999
      14     H     0.45295  0.45295  0.00000  0.09411
      15     H     0.44873  0.44873  0.00000  0.10253
      16     C     3.15176  3.15176  0.00000 -0.30352
      17     H     0.44839  0.44839  0.00000  0.10322
      18     H     0.45531  0.45531  0.00000  0.08938
      19     H     0.45456  0.45456  0.00000  0.09089
      20     H     0.45438  0.45438  0.00000  0.09124
      21     H     0.44671  0.44671  0.00000  0.10657

   Total alpha = 29.00000, Total beta = 29.00000, Total charge = -0.00000
