  ==> Input File <==

--------------------------------------------------------------------------
set {
	reference rhf
	basis 6-31G*
}

set_num_threads( 1 )
memory 2 gb

molecule MOL {
0 1

O	 -1.276010	 1.052711	 -0.768302
C	 -1.204840	 0.067374	 -0.106123
C	 -2.388195	 -0.672128	 0.458071
O	 -0.067104	 -0.527208	 0.221609
H	 -2.388023	 -1.694060	 0.097175
H	 -3.300579	 -0.174919	 0.164318
H	 -2.315377	 -0.706351	 1.539059
C	 0.909521	 0.204853	 0.975410
C	 2.249273	 -0.432279	 0.651812
C	 0.564734	 0.147580	 2.455439
H	 0.890998	 1.229806	 0.635356
H	 2.448784	 -0.384618	 -0.412693
H	 3.046092	 0.087519	 1.173562
H	 2.262147	 -1.473466	 0.955815
H	 1.312830	 0.680452	 3.033726
H	 -0.397467	 0.606664	 2.643559
H	 0.536637	 -0.881709	 2.798633

	symmetry c1
}
set optking {
	frozen_dihedral = ("
		11 8 4 2
	")
}

ee = energy('scf')
oeprop('DIPOLE', 'QUADRUPOLE', 'MULLIKEN_CHARGES')
f=open( 'psi4out.xyz', 'w' )
f.write( "17  " )
f.write( str(ee) + "\n" )
f.write( MOL.save_string_xyz() )
f.close()
--------------------------------------------------------------------------

    Molecular point group: c1

    Geometry (in Angstrom), charge = 0, multiplicity = 1:

       Center              X                  Y                   Z               Mass
    ------------   -----------------  -----------------  -----------------  -----------------
           O         -1.101571191753     1.077613178695    -1.328695894784    15.994914619560
           C         -1.030401191753     0.092276178695    -0.666516894784    12.000000000000
           C         -2.213756191753    -0.647225821305    -0.102322894784    12.000000000000
           O          0.107334808247    -0.502305821305    -0.338784894784    15.994914619560
           H         -2.213584191753    -1.669157821305    -0.463218894784     1.007825032070
           H         -3.126140191753    -0.150016821305    -0.396075894784     1.007825032070
           H         -2.140938191753    -0.681448821305     0.978665105216     1.007825032070
           C          1.083959808247     0.229755178695     0.415016105216    12.000000000000
           C          2.423711808247    -0.407376821305     0.091418105216    12.000000000000
           C          0.739172808247     0.172482178695     1.895045105216    12.000000000000
           H          1.065436808247     1.254708178695     0.074962105216     1.007825032070
           H          2.623222808247    -0.359715821305    -0.973086894784     1.007825032070
           H          3.220530808247     0.112421178695     0.613168105216     1.007825032070
           H          2.436585808247    -1.448563821305     0.395421105216     1.007825032070
           H          1.487268808247     0.705354178695     2.473332105216     1.007825032070
           H         -0.223028191753     0.631566178695     2.083165105216     1.007825032070
           H          0.711075808247    -0.856806821305     2.238239105216     1.007825032070

  Charge       = 0
  Multiplicity = 1
  Basis Set: 6-31G*
  Basis Set:

    Orbital Energies (a.u.)
    -----------------------

    Doubly Occupied:

       1A    -20.585712     2A    -20.549131     3A    -11.374302
       4A    -11.298822     5A    -11.231389     6A    -11.227219
       7A    -11.220960     8A     -1.461101     9A     -1.362965
      10A     -1.079539    11A     -1.008112    12A     -0.954360
      13A     -0.849657    14A     -0.769008    15A     -0.694102
      16A     -0.668452    17A     -0.659576    18A     -0.622296
      19A     -0.586844    20A     -0.579147    21A     -0.565442
      22A     -0.553571    23A     -0.548076    24A     -0.521240
      25A     -0.497940    26A     -0.487331    27A     -0.446490
      28A     -0.434446

  @DF-RHF Final Energy:  -344.89994701950764

   => Energetics <=

    Nuclear Repulsion Energy =            323.1311830370309508
    One-Electron Energy =               -1110.3878415476804093
    Two-Electron Energy =                 442.3567114911438125
    DFT Exchange-Correlation Energy =       0.0000000000000000
    Empirical Dispersion Energy =           0.0000000000000000
    PCM Polarization Energy =               0.0000000000000000
    EFP Energy =                            0.0000000000000000
    Total Energy =                       -344.8999470195056460

  Mulliken Charges: (a.u.)
   Center  Symbol    Alpha    Beta     Spin     Total
       1     O     4.26827  4.26827  0.00000 -0.53655
       2     C     2.62172  2.62172  0.00000  0.75657
       3     C     3.28348  3.28348  0.00000 -0.56696
       4     O     4.31719  4.31719  0.00000 -0.63438
       5     H     0.39970  0.39970  0.00000  0.20060
       6     H     0.39975  0.39975  0.00000  0.20051
       7     H     0.40531  0.40531  0.00000  0.18938
       8     C     2.92991  2.92991  0.00000  0.14018
       9     C     3.24251  3.24251  0.00000 -0.48502
      10     C     3.24807  3.24807  0.00000 -0.49613
      11     H     0.40252  0.40252  0.00000  0.19496
      12     H     0.40614  0.40614  0.00000  0.18771
      13     H     0.41898  0.41898  0.00000  0.16204
      14     H     0.41362  0.41362  0.00000  0.17276
      15     H     0.41443  0.41443  0.00000  0.17114
      16     H     0.41592  0.41592  0.00000  0.16816
      17     H     0.41248  0.41248  0.00000  0.17504

   Total alpha = 28.00000, Total beta = 28.00000, Total charge =  0.00000
