                              Psi4 1.0.54 Driver

  ==> Input File <==

--------------------------------------------------------------------------
set {
	reference rhf
	basis cc-pvtz
}

set_num_threads( 4 )
memory 2 gb

molecule MOL {
0 1

H	 2.467378	 -1.016124	 0.672976
N	 2.433987	 -0.362316	 -0.080024
C	 1.263552	 0.494993	 0.021953
H	 2.416464	 -0.889971	 -0.927733
C	 -0.016533	 -0.325589	 -0.026925
H	 1.280915	 1.180773	 -0.818522
H	 1.263064	 1.106893	 0.925038
C	 -1.280353	 0.525521	 0.047747
H	 -0.016686	 -0.912532	 -0.939714
H	 -0.014099	 -1.037598	 0.796369
C	 -2.560681	 -0.301323	 -0.007747
H	 -1.279957	 1.241025	 -0.770189
H	 -1.270445	 1.110526	 0.963468
H	 -2.617064	 -0.872870	 -0.928010
H	 -3.439525	 0.331102	 0.043462
H	 -2.609427	 -1.002736	 0.818585

	symmetry c1
}
set optking {
	frozen_dihedral = ("
		1 2 3 6
	")
}

ee,wfn = optimize('scf', return_wfn=True)
oeprop( wfn, 'DIPOLE', 'QUADRUPOLE', 'MULLIKEN_CHARGES')
f=open( 'psi4out.xyz', 'w' )
f.write( "16  " )
f.write( str(ee) + "\n" )
f.write( MOL.save_string_xyz() )
f.close()
--------------------------------------------------------------------------

    Molecular point group: c1
  Charge       = 0
  Multiplicity = 1
  Basis Set: CC-PVTZ
  Basis Set:
  @DF-RHF Final Energy:  -212.39829925760594
    Total Energy =                       -212.3982992576057995
    Molecular point group: c1
  Basis Set: CC-PVTZ
  Basis Set:
  Basis Set: CC-PVTZ
  Basis Set:
  @DF-RHF Final Energy:  -212.40002993295968
    Total Energy =                       -212.4000299329597965
  Basis Set: CC-PVTZ
  Basis Set:
  Basis Set: CC-PVTZ
  Basis Set:
  @DF-RHF Final Energy:  -212.40025196560632
    Total Energy =                       -212.4002519656064010
  Basis Set: CC-PVTZ
  Basis Set:
  Basis Set: CC-PVTZ
  Basis Set:
  @DF-RHF Final Energy:  -212.40025572710064
    Total Energy =                       -212.4002557271008413
  Basis Set: CC-PVTZ
  Basis Set:
  Charge       = 0
  Multiplicity = 1
  Basis Set: CC-PVTZ
  Basis Set:

    Orbital Energies (a.u.)
    -----------------------

    Doubly Occupied:

       1A    -15.526672     2A    -11.238203     3A    -11.215553
       4A    -11.211159     5A    -11.208546     6A     -1.178868
       7A     -1.062881     8A     -0.960203     9A     -0.848415
      10A     -0.796852    11A     -0.679486    12A     -0.626358
      13A     -0.598627    14A     -0.588499    15A     -0.553393
      16A     -0.527359    17A     -0.499373    18A     -0.490906
      19A     -0.471508    20A     -0.466150    21A     -0.379221

  @DF-RHF Final Energy:  -212.40025597331962

   => Energetics <=

    Nuclear Repulsion Energy =            186.3798009111137901
    One-Electron Energy =                -655.3036491196548923
    Two-Electron Energy =                 256.5235922352214857
    DFT Exchange-Correlation Energy =       0.0000000000000000
    Empirical Dispersion Energy =           0.0000000000000000
    PCM Polarization Energy =               0.0000000000000000
    EFP Energy =                            0.0000000000000000
    Total Energy =                       -212.4002559733196449
    Molecular point group: c1
  Basis Set: CC-PVTZ
  Basis Set:

  -Total Gradient:
     Atom            X                  Y                   Z
    ------   -----------------  -----------------  -----------------
       1       -0.000161666085    -0.000245926655    -0.000195033905
       2        0.000177975284     0.000258944618     0.000203282059
       3        0.000093919539     0.000216318173     0.000169583218
       4       -0.000006353863    -0.000007261092    -0.000005614937
       5        0.000048120461     0.000003271486     0.000015462663
       6       -0.000131107754    -0.000212242857    -0.000187915626
       7        0.000005903806    -0.000005654471     0.000002959906
       8        0.000008778482    -0.000004428128    -0.000006588186
       9       -0.000006652511     0.000005590531     0.000012353882
      10       -0.000006560675    -0.000005641601    -0.000003081223
      11       -0.000023494290     0.000003846179    -0.000003114408
      12        0.000000655833     0.000001125815     0.000003300205
      13        0.000002354693    -0.000006273485    -0.000002564249
      14        0.000000648401     0.000000106720    -0.000001415150
      15       -0.000005166596    -0.000005959575    -0.000002005177
      16        0.000002645277     0.000004184341     0.000000390926

  **** Optimization is complete! (in 5 steps) ****
    Final optimized geometry and variables:
    Molecular point group: c1

    Geometry (in Angstrom), charge = 0, multiplicity = 1:

    H            2.535954502143    -0.978694406702     0.686487828196
    N            2.495331625381    -0.308503158374    -0.052841408309
    C            1.271085890187     0.470624265089     0.017290206066
    H            2.546245745632    -0.816604050517    -0.911019455208
    C           -0.026503194775    -0.332919669482    -0.022014344209
    H            1.281084025105     1.178304935391    -0.805173458755
    H            1.302735065986     1.061176434404     0.927075543998
    C           -1.277508705221     0.537433973616     0.053996063242
    H           -0.050908486680    -0.923801206821    -0.935380791576
    H           -0.029313182605    -1.043703028965     0.801971695579
    C           -2.572565983403    -0.267108317505     0.014528746363
    H           -1.270951338121     1.248061943972    -0.768085852509
    H           -1.249146213443     1.127995674706     0.965717271732
    H           -2.647768860799    -0.842428294125    -0.902210304410
    H           -3.439736150240     0.380820484653     0.070026500310
    H           -2.626059945760    -0.963023849642     0.845124393364

  Mulliken Charges: (a.u.)
   Center  Symbol    Alpha    Beta     Spin     Total
       1     H     0.43249  0.43249  0.00000  0.13501
       2     N     3.68835  3.68835  0.00000 -0.37669
       3     C     3.03011  3.03011  0.00000 -0.06023
       4     H     0.43248  0.43248  0.00000  0.13503
       5     C     3.08525  3.08525  0.00000 -0.17050
       6     H     0.45327  0.45327  0.00000  0.09347
       7     H     0.45302  0.45302  0.00000  0.09395
       8     C     3.08945  3.08945  0.00000 -0.17891
       9     H     0.46003  0.46003  0.00000  0.07993
      10     H     0.46003  0.46003  0.00000  0.07994
      11     C     3.14848  3.14848  0.00000 -0.29696
      12     H     0.45442  0.45442  0.00000  0.09116
      13     H     0.45439  0.45439  0.00000  0.09122
      14     H     0.45497  0.45497  0.00000  0.09007
      15     H     0.44831  0.44831  0.00000  0.10339
      16     H     0.45494  0.45494  0.00000  0.09011

   Total alpha = 21.00000, Total beta = 21.00000, Total charge = -0.00000

*** Psi4 exiting successfully. Buy a developer a beer!
