  ==> Input File <==

--------------------------------------------------------------------------
set {
	reference rhf
	basis 6-31G*
}

set_num_threads( 1 )
memory 2 gb

molecule MOL {
0 1

H	 -2.136362	 0.230651	 -1.033188
N	 -1.852125	 0.165761	 -0.074816
C	 -0.563778	 -0.502042	 0.037919
H	 -2.561668	 -0.356735	 0.402995
C	 0.575259	 0.508231	 -0.048326
H	 -0.482092	 -1.204004	 -0.786564
H	 -0.460411	 -1.085169	 0.956626
C	 1.954651	 -0.143624	 0.035137
H	 0.475158	 1.060484	 -0.977307
H	 0.469181	 1.234488	 0.755973
H	 2.103292	 -0.853109	 -0.774172
H	 2.742821	 0.599562	 -0.030094
H	 2.083613	 -0.679371	 0.971560

	symmetry c1
}
set optking {
	frozen_dihedral = ("
		6 3 5 9
	")
}

ee = energy('scf')
oeprop('DIPOLE', 'QUADRUPOLE', 'MULLIKEN_CHARGES')
f=open( 'psi4out.xyz', 'w' )
f.write( "13  " )
f.write( str(ee) + "\n" )
f.write( MOL.save_string_xyz() )
f.close()
--------------------------------------------------------------------------

    Molecular point group: c1

    Geometry (in Angstrom), charge = 0, multiplicity = 1:

       Center              X                  Y                   Z               Mass
    ------------   -----------------  -----------------  -----------------  -----------------
           H         -2.134824085662     0.237244494575    -1.011704790025     1.007825032070
           N         -1.850587085662     0.172354494575    -0.053332790025    14.003074004780
           C         -0.562240085662    -0.495448505425     0.059402209975    12.000000000000
           H         -2.560130085662    -0.350141505425     0.424478209975     1.007825032070
           C          0.576796914338     0.514824494575    -0.026842790025    12.000000000000
           H         -0.480554085662    -1.197410505425    -0.765080790025     1.007825032070
           H         -0.458873085662    -1.078575505425     0.978109209975     1.007825032070
           C          1.956188914338    -0.137030505425     0.056620209975    12.000000000000
           H          0.476695914338     1.067077494575    -0.955823790025     1.007825032070
           H          0.470718914338     1.241081494575     0.777456209975     1.007825032070
           H          2.104829914338    -0.846515505425    -0.752688790025     1.007825032070
           H          2.744358914338     0.606155494575    -0.008610790025     1.007825032070
           H          2.085150914338    -0.672777505425     0.993043209975     1.007825032070

  Charge       = 0
  Multiplicity = 1
  Basis Set: 6-31G*
  Basis Set:

    Orbital Energies (a.u.)
    -----------------------

    Doubly Occupied:

       1A    -15.531663     2A    -11.240557     3A    -11.207432
       4A    -11.206569     5A     -1.176554     6A     -1.032996
       7A     -0.897603     8A     -0.795307     9A     -0.670828
      10A     -0.615221    11A     -0.603598    12A     -0.571985
      13A     -0.524930    14A     -0.489036    15A     -0.481711
      16A     -0.464503    17A     -0.377671

  @DF-RHF Final Energy:  -173.27915709745670

   => Energetics <=

    Nuclear Repulsion Energy =            131.6818394076880452
    One-Electron Energy =                -494.1456454844711743
    Two-Electron Energy =                 189.1846489793261981
    DFT Exchange-Correlation Energy =       0.0000000000000000
    Empirical Dispersion Energy =           0.0000000000000000
    PCM Polarization Energy =               0.0000000000000000
    EFP Energy =                            0.0000000000000000
    Total Energy =                       -173.2791570974569595

  Mulliken Charges: (a.u.)
   Center  Symbol    Alpha    Beta     Spin     Total
       1     H     0.33276  0.33276  0.00000  0.33449
       2     N     3.92269  3.92269  0.00000 -0.84539
       3     C     3.06660  3.06660  0.00000 -0.13320
       4     H     0.33222  0.33222  0.00000  0.33555
       5     C     3.14197  3.14197  0.00000 -0.28395
       6     H     0.43221  0.43221  0.00000  0.13558
       7     H     0.42178  0.42178  0.00000  0.15643
       8     C     3.24528  3.24528  0.00000 -0.49055
       9     H     0.42449  0.42449  0.00000  0.15102
      10     H     0.41616  0.41616  0.00000  0.16768
      11     H     0.42328  0.42328  0.00000  0.15345
      12     H     0.41795  0.41795  0.00000  0.16411
      13     H     0.42261  0.42261  0.00000  0.15478

   Total alpha = 17.00000, Total beta = 17.00000, Total charge =  0.00000
