  ==> Input File <==

--------------------------------------------------------------------------
set {
	reference rhf
	basis 6-31G*
}

set_num_threads( 4 )
memory 2 gb

molecule MOL {
0 1

H	 -3.407059	 -1.043082	 0.000000
O	 -3.119761	 -0.140267	 0.000000
C	 -1.777559	 -0.059267	 0.000000
C	 -1.083053	 0.741106	 -0.902256
C	 -1.092509	 -0.812493	 0.945210
H	 -1.621665	 1.321765	 -1.631669
C	 0.294523	 0.785018	 -0.855598
H	 -1.650611	 -1.422026	 1.630238
C	 0.285281	 -0.758028	 0.979330
H	 0.843176	 1.398173	 -1.545612
C	 0.995144	 0.036729	 0.084857
H	 0.816635	 -1.341539	 1.711614
C	 2.469706	 0.084871	 0.133447
O	 3.152277	 0.737460	 -0.593864
H	 2.926845	 -0.539130	 0.908570

	symmetry c1
}
set optking {
	frozen_dihedral = ("
		5 3 2 1
	")
}

ee = optimize('scf')
oeprop('DIPOLE', 'QUADRUPOLE', 'MULLIKEN_CHARGES')
f=open( 'psi4out.xyz', 'w' )
f.write( "15  " )
f.write( str(ee) + "\n" )
f.write( MOL.save_string_xyz() )
f.close()
--------------------------------------------------------------------------

    Molecular point group: c1
  Charge       = 0
  Multiplicity = 1
  Basis Set: 6-31G*
  Basis Set:
  @DF-RHF Final Energy:  -418.28466701443932
    Total Energy =                       -418.2846670144393784
    Molecular point group: c1
  Basis Set: 6-31G*
  Basis Set:
  Basis Set: 6-31G*
  Basis Set:
  @DF-RHF Final Energy:  -418.28628399284258
    Total Energy =                       -418.2862839928426411
  Basis Set: 6-31G*
  Basis Set:
  Basis Set: 6-31G*
  Basis Set:
  @DF-RHF Final Energy:  -418.28633096602391
    Total Energy =                       -418.2863309660236837
  Basis Set: 6-31G*
  Basis Set:
  Basis Set: 6-31G*
  Basis Set:
  @DF-RHF Final Energy:  -418.28594469890521
    Total Energy =                       -418.2859446989057233
  Basis Set: 6-31G*
  Basis Set:
  Basis Set: 6-31G*
  Basis Set:
  @DF-RHF Final Energy:  -418.28641297373639
    Total Energy =                       -418.2864129737361054
  Basis Set: 6-31G*
  Basis Set:
  Charge       = 0
  Multiplicity = 1
  Basis Set: 6-31G*
  Basis Set:

    Orbital Energies (a.u.)
    -----------------------

    Doubly Occupied:

       1A    -20.600779     2A    -20.558675     3A    -11.329927
       4A    -11.317604     5A    -11.261805     6A    -11.253339
       7A    -11.244758     8A    -11.242340     9A    -11.239288
      10A     -1.419598    11A     -1.399790    12A     -1.170638
      13A     -1.042029    14A     -1.036786    15A     -0.890487
      16A     -0.856643    17A     -0.800241    18A     -0.753543
      19A     -0.698958    20A     -0.680412    21A     -0.642308
      22A     -0.627511    23A     -0.618197    24A     -0.607161
      25A     -0.562880    26A     -0.552901    27A     -0.544499
      28A     -0.502002    29A     -0.483513    30A     -0.420465
      31A     -0.355772    32A     -0.334516

  @DF-RHF Final Energy:  -418.28641495683485

   => Energetics <=

    Nuclear Repulsion Energy =            401.0055771617165874
    One-Electron Energy =               -1364.4852507665023040
    Two-Electron Energy =                 545.1932586479508700
    DFT Exchange-Correlation Energy =       0.0000000000000000
    Empirical Dispersion Energy =           0.0000000000000000
    PCM Polarization Energy =               0.0000000000000000
    EFP Energy =                            0.0000000000000000
    Total Energy =                       -418.2864149568348466
    Molecular point group: c1
  Basis Set: 6-31G*
  Basis Set:

  -Total Gradient:
     Atom            X                  Y                   Z
    ------   -----------------  -----------------  -----------------
       1        0.000091506666    -0.000120459503    -0.003333126504
       2       -0.000171487045     0.001178358075     0.004985980360
       3        0.000194242441    -0.002852434179    -0.003363528430
       4       -0.000273448830    -0.000104196625     0.000081479724
       5        0.000151157734     0.001916612483     0.001633446825
       6        0.000005840043    -0.000000714661     0.000004862025
       7        0.000289672661    -0.000102434490     0.000135539882
       8       -0.000002356420    -0.000000680192     0.000001423388
       9       -0.000241735904    -0.000146743760     0.000067523713
      10       -0.000019248141     0.000007672076    -0.000008032211
      11       -0.000024987955     0.000209855673    -0.000250777654
      12        0.000010704212     0.000019166634     0.000001994692
      13        0.000023441042     0.000031863523     0.000079961232
      14       -0.000023254828    -0.000015624117    -0.000024376880
      15       -0.000010045680    -0.000020240939    -0.000012370162

  **** Optimization is complete! (in 6 steps) ****
    Final optimized geometry and variables:
    Molecular point group: c1

    Geometry (in Angstrom), charge = 0, multiplicity = 1:

    H           -3.465177302841    -1.041804438083     0.008042332404
    O           -3.123744224012    -0.157899958177    -0.009282305167
    C           -1.767433697818    -0.162123368173     0.031750682473
    C           -1.085020035186     0.652521180150    -0.864540272610
    C           -1.077223469741    -0.897044961008     0.983763452177
    H           -1.648017064574     1.219961059364    -1.581382567229
    C            0.290712582270     0.714775015269    -0.815812717726
    H           -1.619044280955    -1.500137558849     1.690312118845
    C            0.304404545030    -0.836380177931     1.015696619366
    H            0.834406731400     1.336112035102    -1.502369876673
    C            0.999442378163    -0.033721972716     0.122084249192
    H            0.842206393166    -1.410265723077     1.750757655941
    C            2.475807921229     0.027026377415     0.171377642319
    O            3.151595760145     0.684540982387    -0.556779373761
    H            2.938427040003    -0.592507519362     0.946646210239

  Mulliken Charges: (a.u.)
   Center  Symbol    Alpha    Beta     Spin     Total
       1     H     0.26935  0.26935  0.00000  0.46130
       2     O     4.37931  4.37931  0.00000 -0.75862
       3     C     2.79939  2.79939  0.00000  0.40123
       4     C     3.12252  3.12252  0.00000 -0.24504
       5     C     3.13509  3.13509  0.00000 -0.27018
       6     H     0.38601  0.38601  0.00000  0.22799
       7     C     3.08235  3.08235  0.00000 -0.16471
       8     H     0.39446  0.39446  0.00000  0.21107
       9     C     3.09570  3.09570  0.00000 -0.19140
      10     H     0.37481  0.37481  0.00000  0.25038
      11     C     3.06353  3.06353  0.00000 -0.12705
      12     H     0.39004  0.39004  0.00000  0.21991
      13     C     2.83081  2.83081  0.00000  0.33837
      14     O     4.25216  4.25216  0.00000 -0.50433
      15     H     0.42446  0.42446  0.00000  0.15107

   Total alpha = 32.00000, Total beta = 32.00000, Total charge =  0.00000
