  ==> Input File <==

--------------------------------------------------------------------------
set {
	reference rhf
	basis cc-pvtz
}

set_num_threads( 4 )
memory 2 gb

molecule MOL {
0 1

H	 3.328943	 1.165041	 -1.248137
N	 2.562043	 0.526775	 -1.258089
C	 1.860978	 0.530248	 0.016256
H	 2.934595	 -0.378128	 -1.457349
C	 0.644130	 -0.381765	 -0.031064
H	 1.538449	 1.546959	 0.214197
H	 2.497763	 0.235802	 0.851577
C	 -0.678115	 0.376691	 0.025731
H	 0.693998	 -0.977147	 -0.936845
H	 0.693309	 -1.082142	 0.800523
C	 -1.900706	 -0.535531	 -0.022488
H	 -0.725296	 1.079516	 -0.802982
H	 -0.715474	 0.974884	 0.933278
C	 -3.220513	 0.226854	 0.028039
H	 -1.865036	 -1.134397	 -0.928236
H	 -1.857948	 -1.236381	 0.806820
H	 -3.309098	 0.911849	 -0.808725
H	 -4.066838	 -0.449485	 -0.008086
H	 -3.301685	 0.809374	 0.939860

	symmetry c1
}
set optking {
	frozen_dihedral = ("
		6 3 5 9
	")
}

ee = optimize('scf')
oeprop('DIPOLE', 'QUADRUPOLE', 'MULLIKEN_CHARGES')
f=open( 'psi4out.xyz', 'w' )
f.write( "19  " )
f.write( str(ee) + "\n" )
f.write( MOL.save_string_xyz() )
f.close()
--------------------------------------------------------------------------

    Molecular point group: c1
  Charge       = 0
  Multiplicity = 1
  Basis Set: CC-PVTZ
  Basis Set:
  @DF-RHF Final Energy:  -251.44231279687583
    Total Energy =                       -251.4423127968760809
    Molecular point group: c1
  Basis Set: CC-PVTZ
  Basis Set:
  Basis Set: CC-PVTZ
  Basis Set:
  @DF-RHF Final Energy:  -251.44270129545549
    Total Energy =                       -251.4427012954552083
  Basis Set: CC-PVTZ
  Basis Set:
  Basis Set: CC-PVTZ
  Basis Set:
  @DF-RHF Final Energy:  -251.44280404521763
    Total Energy =                       -251.4428040452173718
  Basis Set: CC-PVTZ
  Basis Set:
  Basis Set: CC-PVTZ
  Basis Set:
  @DF-RHF Final Energy:  -251.44280677619139
    Total Energy =                       -251.4428067761912757
  Basis Set: CC-PVTZ
  Basis Set:
  Charge       = 0
  Multiplicity = 1
  Basis Set: CC-PVTZ
  Basis Set:

    Orbital Energies (a.u.)
    -----------------------

    Doubly Occupied:

       1A    -15.526906     2A    -11.238171     3A    -11.209431
       4A    -11.207748     5A    -11.207061     6A    -11.203524
       7A     -1.177195     8A     -1.071276     9A     -0.996392
      10A     -0.899755    11A     -0.813799    12A     -0.787701
      13A     -0.659838    14A     -0.647919    15A     -0.614475
      16A     -0.589925    17A     -0.554444    18A     -0.548048
      19A     -0.538957    20A     -0.487549    21A     -0.485490
      22A     -0.460507    23A     -0.459069    24A     -0.453360
      25A     -0.381543

  @DF-RHF Final Energy:  -251.44280697597804

   => Energetics <=

    Nuclear Repulsion Energy =            247.1033416697990219
    One-Electron Energy =                -828.6521316257048966
    Two-Electron Energy =                 330.1059829799277168
    DFT Exchange-Correlation Energy =       0.0000000000000000
    Empirical Dispersion Energy =           0.0000000000000000
    PCM Polarization Energy =               0.0000000000000000
    EFP Energy =                            0.0000000000000000
    Total Energy =                       -251.4428069759782147
    Molecular point group: c1
  Basis Set: CC-PVTZ
  Basis Set:

  -Total Gradient:
     Atom            X                  Y                   Z
    ------   -----------------  -----------------  -----------------
       1        0.000010886093     0.000001224465    -0.000017430222
       2        0.000003086048     0.000003401779     0.000040395804
       3        0.000050061233    -0.000089683279     0.002741559291
       4        0.000000020529     0.000002248751     0.000000793894
       5        0.001505616281    -0.002078202148     0.000892508335
       6       -0.000282903774     0.000400494203    -0.002448910570
       7       -0.000005017651    -0.000015093456    -0.000016015246
       8        0.000014875821     0.000006036534    -0.000002635029
       9       -0.001297432291     0.001760151327    -0.001183420385
      10        0.000011876606     0.000014244001     0.000004594088
      11       -0.000000853546    -0.000000041618    -0.000020685041
      12        0.000005642396     0.000001070227     0.000001355827
      13       -0.000002454358    -0.000002223163    -0.000002237910
      14       -0.000008286665    -0.000004499389     0.000014000140
      15       -0.000001071822    -0.000002276650    -0.000002177560
      16       -0.000001339948     0.000001520678    -0.000005824552
      17        0.000002385484    -0.000005748095    -0.000001773867
      18       -0.000002768462     0.000002186659     0.000005408911
      19       -0.000002321972     0.000005189175     0.000000494096

  **** Optimization is complete! (in 5 steps) ****
    Final optimized geometry and variables:
    Molecular point group: c1

    Geometry (in Angstrom), charge = 0, multiplicity = 1:

    H            3.371686927168     1.066113253094    -1.080263636400
    N            2.619992647847     0.409497680295    -1.062585013261
    C            1.971474015826     0.392803283985     0.243209556086
    H            3.007195480592    -0.485431424449    -1.278585903033
    C            0.738556402506    -0.525707230666     0.232444218292
    H            1.662421637083     1.411314972562     0.446523921959
    H            2.649177759810     0.098689415021     1.042593234337
    C           -0.584048589999     0.237875565875     0.260605492653
    H            0.763775353058    -1.122605349439    -0.673162675841
    H            0.774090384998    -1.213121002216     1.071540129915
    C           -1.809598366841    -0.667396436597     0.187893392961
    H           -0.602155257336     0.937992673396    -0.570586397958
    H           -0.634659485872     0.836446666954     1.167524244354
    C           -3.126196781546     0.101669491489     0.222460385511
    H           -1.763091190562    -1.260254999601    -0.721518975646
    H           -1.784189670659    -1.374241867320     1.013202614294
    H           -3.196781398021     0.792959201422    -0.610709684289
    H           -3.975673574783    -0.569607453988     0.167834409230
    H           -3.218926680073     0.678176441238     1.137011983918

  Mulliken Charges: (a.u.)
   Center  Symbol    Alpha    Beta     Spin     Total
       1     H     0.42926  0.42926  0.00000  0.14149
       2     N     3.69108  3.69108  0.00000 -0.38216
       3     C     3.03559  3.03559  0.00000 -0.07118
       4     H     0.43065  0.43065  0.00000  0.13870
       5     C     3.08493  3.08493  0.00000 -0.16986
       6     H     0.45845  0.45845  0.00000  0.08309
       7     H     0.46082  0.46082  0.00000  0.07836
       8     C     3.08838  3.08838  0.00000 -0.17677
       9     H     0.45685  0.45685  0.00000  0.08630
      10     H     0.45178  0.45178  0.00000  0.09645
      11     C     3.08559  3.08559  0.00000 -0.17119
      12     H     0.45022  0.45022  0.00000  0.09956
      13     H     0.45656  0.45656  0.00000  0.08688
      14     C     3.15001  3.15001  0.00000 -0.30001
      15     H     0.45402  0.45402  0.00000  0.09196
      16     H     0.45612  0.45612  0.00000  0.08777
      17     H     0.45468  0.45468  0.00000  0.09064
      18     H     0.44913  0.44913  0.00000  0.10175
      19     H     0.45588  0.45588  0.00000  0.08823

   Total alpha = 25.00000, Total beta = 25.00000, Total charge =  0.00000
