                              Psi4 1.0.54 Driver

  ==> Input File <==

--------------------------------------------------------------------------
set {
	reference rhf
	basis cc-pvtz
}

set_num_threads( 4 )
memory 2 gb

molecule MOL {
0 1

H	 2.181408	 2.224769	 1.607804
O	 3.035471	 1.969902	 1.312083
C	 3.265542	 0.616112	 1.601206
C	 2.475077	 -0.335919	 0.716058
H	 4.324487	 0.457244	 1.448313
H	 3.057176	 0.411253	 2.649570
C	 0.962225	 -0.262899	 0.910472
H	 2.721082	 -0.127973	 -0.320956
H	 2.816134	 -1.347099	 0.924846
C	 0.204491	 -1.255314	 0.029684
H	 0.621276	 0.744380	 0.695657
H	 0.723451	 -0.458195	 1.954566
C	 -1.311023	 -1.277304	 0.237018
H	 0.420719	 -1.043141	 -1.014564
H	 0.591592	 -2.252234	 0.221448
C	 -2.041121	 -0.006551	 -0.194127
H	 -1.719154	 -2.115973	 -0.320290
H	 -1.526721	 -1.478245	 1.284039
C	 -3.489218	 0.042606	 0.286507
H	 -2.022185	 0.066287	 -1.279394
H	 -1.518764	 0.869305	 0.178730
C	 -4.219984	 1.311773	 -0.139038
H	 -4.022855	 -0.824300	 -0.093339
H	 -3.510372	 -0.038577	 1.370031
H	 -4.244251	 1.405725	 -1.219696
H	 -5.244345	 1.313233	 0.215630
H	 -3.732090	 2.196311	 0.257073

	symmetry c1
}
set optking {
	frozen_dihedral = ("
		10 13 16 20
	")
}

ee,wfn = optimize('scf', return_wfn=True)
oeprop( wfn, 'DIPOLE', 'QUADRUPOLE', 'MULLIKEN_CHARGES')
f=open( 'psi4out.xyz', 'w' )
f.write( "27  " )
f.write( str(ee) + "\n" )
f.write( MOL.save_string_xyz() )
f.close()
--------------------------------------------------------------------------

    Molecular point group: c1
  Charge       = 0
  Multiplicity = 1
  Basis Set: CC-PVTZ
  Basis Set:
  @DF-RHF Final Energy:  -388.42693447278202
    Total Energy =                       -388.4269344727822499
    Molecular point group: c1
  Basis Set: CC-PVTZ
  Basis Set:
  Basis Set: CC-PVTZ
  Basis Set:
  @DF-RHF Final Energy:  -388.41266378820546
    Total Energy =                       -388.4126637882056912
  Basis Set: CC-PVTZ
  Basis Set:
  Basis Set: CC-PVTZ
  Basis Set:
  @DF-RHF Final Energy:  -388.42689264978293
    Total Energy =                       -388.4268926497827579
  Basis Set: CC-PVTZ
  Basis Set:
  Basis Set: CC-PVTZ
  Basis Set:
  @DF-RHF Final Energy:  -388.42712352513792
    Total Energy =                       -388.4271235251383132
  Basis Set: CC-PVTZ
  Basis Set:
  Basis Set: CC-PVTZ
  Basis Set:
  @DF-RHF Final Energy:  -388.42712159741677
    Total Energy =                       -388.4271215974165443
  Basis Set: CC-PVTZ
  Basis Set:
  Basis Set: CC-PVTZ
  Basis Set:
  @DF-RHF Final Energy:  -388.42713247532799
    Total Energy =                       -388.4271324753279941
  Basis Set: CC-PVTZ
  Basis Set:
  Charge       = 0
  Multiplicity = 1
  Basis Set: CC-PVTZ
  Basis Set:

    Orbital Energies (a.u.)
    -----------------------

    Doubly Occupied:

       1A    -20.545524     2A    -11.265122     3A    -11.216910
       4A    -11.214725     5A    -11.213769     6A    -11.213335
       7A    -11.213175     8A    -11.211661     9A    -11.207129
      10A     -1.363394    11A     -1.096003    12A     -1.062590
      13A     -1.012380    14A     -0.949531    15A     -0.888230
      16A     -0.820640    17A     -0.800262    18A     -0.780153
      19A     -0.696621    20A     -0.649088    21A     -0.644116
      22A     -0.615317    23A     -0.601191    24A     -0.582942
      25A     -0.581395    26A     -0.553656    27A     -0.543502
      28A     -0.530305    29A     -0.505928    30A     -0.494499
      31A     -0.485640    32A     -0.475923    33A     -0.468942
      34A     -0.460858    35A     -0.452332    36A     -0.442185
      37A     -0.426049

  @DF-RHF Final Energy:  -388.42713256651660

   => Energetics <=

    Nuclear Repulsion Energy =            460.4331026874223767
    One-Electron Energy =               -1439.1504219861865295
    Two-Electron Energy =                 590.2901867322472071
    DFT Exchange-Correlation Energy =       0.0000000000000000
    Empirical Dispersion Energy =           0.0000000000000000
    PCM Polarization Energy =               0.0000000000000000
    EFP Energy =                            0.0000000000000000
    Total Energy =                       -388.4271325665168888
    Molecular point group: c1
  Basis Set: CC-PVTZ
  Basis Set:

  -Total Gradient:
     Atom            X                  Y                   Z
    ------   -----------------  -----------------  -----------------
       1        0.000006375018     0.000008172563    -0.000001054234
       2       -0.000014419799     0.000004371302     0.000008618894
       3        0.000014361863     0.000003479144    -0.000002602746
       4        0.000003530221     0.000005766197    -0.000003092024
       5        0.000005071926    -0.000011833464     0.000003989880
       6       -0.000002504427     0.000002663980    -0.000002945346
       7       -0.000004554062     0.000005297666    -0.000007062638
       8       -0.000000899769     0.000001420627     0.000002888797
       9       -0.000003755355    -0.000000162516    -0.000003832711
      10        0.000181371055     0.000464874391     0.001676938999
      11        0.000004666771    -0.000008264495    -0.000003008600
      12       -0.000001367840     0.000000785853    -0.000003378435
      13       -0.000694509826    -0.000995875530    -0.002421378935
      14       -0.000004879667     0.000001971832     0.000010318251
      15       -0.000001776714    -0.000004650490    -0.000003195458
      16        0.002378868341     0.001926571127     0.000989507162
      17       -0.000002380645    -0.000001535830    -0.000001561555
      18        0.000008884051     0.000003819296    -0.000002257150
      19       -0.000016019774    -0.000011654668    -0.000018207784
      20       -0.001865676599    -0.001399747214    -0.000218022193
      21        0.000001350228     0.000002011754    -0.000004547729
      22        0.000006387981     0.000003836973     0.000009121345
      23       -0.000000350593    -0.000001711603     0.000000212684
      24        0.000001666225     0.000002503582    -0.000008359625
      25        0.000000086530    -0.000004004965     0.000001760399
      26        0.000001017980     0.000000245672     0.000004718492
      27       -0.000000543116     0.000001648823    -0.000003567740

  **** Optimization is complete! (in 7 steps) ****
    Final optimized geometry and variables:
    Molecular point group: c1

    Geometry (in Angstrom), charge = 0, multiplicity = 1:

    H            2.075874457589     2.033908606157     1.566876454719
    O            2.930222939077     1.972294172603     1.182357304151
    C            3.339182409448     0.631376662854     1.119447718893
    C            2.609961927941    -0.175734867301     0.055834807012
    H            4.396798658659     0.655074926128     0.893940759328
    H            3.227752449856     0.154924892215     2.091496730942
    C            1.114214892102    -0.344834263914     0.312684051689
    H            2.763960547824     0.302430069905    -0.906742094736
    H            3.078623503962    -1.155364963729     0.000347081550
    C            0.426416223581    -1.208054720020    -0.744054401294
    H            0.643962676524     0.632119930362     0.347764282852
    H            0.966389191148    -0.798114022696     1.291172728996
    C           -1.069508682954    -1.434692834121    -0.512828091725
    H            0.577704280814    -0.763219717254    -1.724820176860
    H            0.922636847812    -2.174058156497    -0.772203088534
    C           -1.953526639692    -0.213692626573    -0.768487531219
    H           -1.406589149982    -2.245142550995    -1.152044518008
    H           -1.216697298705    -1.777496985680     0.509027045605
    C           -3.389261070140    -0.407082073461    -0.284689205984
    H           -1.975117818403    -0.011172613101    -1.836660621961
    H           -1.536621117637     0.666976235746    -0.291164107056
    C           -4.291317621286     0.783909490629    -0.590306500679
    H           -3.805091819870    -1.300433538948    -0.743084993982
    H           -3.384939161057    -0.589745274141     0.786415372362
    H           -4.349015782064     0.967706805546    -1.657994237649
    H           -5.299564706730     0.616541329389    -0.229090153502
    H           -3.918205050405     1.688283331125    -0.120910145078

  Mulliken Charges: (a.u.)
   Center  Symbol    Alpha    Beta     Spin     Total
       1     H     0.39227  0.39227  0.00000  0.21547
       2     O     4.20550  4.20550  0.00000 -0.41099
       3     C     2.98008  2.98008  0.00000  0.03985
       4     C     3.08922  3.08922  0.00000 -0.17844
       5     H     0.44859  0.44859  0.00000  0.10283
       6     H     0.46949  0.46949  0.00000  0.06103
       7     C     3.10151  3.10151  0.00000 -0.20302
       8     H     0.45053  0.45053  0.00000  0.09895
       9     H     0.45520  0.45520  0.00000  0.08959
      10     C     3.09852  3.09852  0.00000 -0.19704
      11     H     0.45644  0.45644  0.00000  0.08712
      12     H     0.45402  0.45402  0.00000  0.09195
      13     C     3.09915  3.09915  0.00000 -0.19830
      14     H     0.45229  0.45229  0.00000  0.09542
      15     H     0.44776  0.44776  0.00000  0.10448
      16     C     3.08675  3.08675  0.00000 -0.17349
      17     H     0.44651  0.44651  0.00000  0.10698
      18     H     0.45562  0.45562  0.00000  0.08876
      19     C     3.08463  3.08463  0.00000 -0.16926
      20     H     0.45381  0.45381  0.00000  0.09238
      21     H     0.45467  0.45467  0.00000  0.09065
      22     C     3.14943  3.14943  0.00000 -0.29886
      23     H     0.45422  0.45422  0.00000  0.09157
      24     H     0.45492  0.45492  0.00000  0.09016
      25     H     0.45488  0.45488  0.00000  0.09024
      26     H     0.44837  0.44837  0.00000  0.10327
      27     H     0.45564  0.45564  0.00000  0.08872

   Total alpha = 37.00000, Total beta = 37.00000, Total charge =  0.00000

*** Psi4 exiting successfully. Buy a developer a beer!
