                              Psi4 1.0.54 Driver

  ==> Input File <==

--------------------------------------------------------------------------
set {
	reference rhf
	basis cc-pvtz
}

set_num_threads( 4 )
memory 2 gb

molecule MOL {
0 1

H	 -3.561665	 -2.558572	 1.658482
C	 -3.071021	 -1.697568	 1.253204
C	 -1.870277	 -1.820216	 0.742796
H	 -3.579344	 -0.753669	 1.274675
O	 -1.189946	 -0.765863	 0.237511
H	 -1.355140	 -2.762864	 0.708478
C	 0.026572	 -0.995256	 -0.379403
C	 1.057223	 0.049888	 -0.004615
H	 -0.054361	 -1.010670	 -1.459674
H	 0.397526	 -1.952058	 -0.044198
F	 2.203233	 -0.234060	 -0.590375
F	 0.698147	 1.254887	 -0.392621
F	 1.266440	 0.094219	 1.288722

	symmetry c1
}
set optking {
	frozen_dihedral = ("
		3 5 7 9
	")
}

ee,wfn = optimize('scf', return_wfn=True)
oeprop( wfn, 'DIPOLE', 'QUADRUPOLE', 'MULLIKEN_CHARGES')
f=open( 'psi4out.xyz', 'w' )
f.write( "13  " )
f.write( str(ee) + "\n" )
f.write( MOL.save_string_xyz() )
f.close()
--------------------------------------------------------------------------

    Molecular point group: c1
  Charge       = 0
  Multiplicity = 1
  Basis Set: CC-PVTZ
  Basis Set:
  @DF-RHF Final Energy:  -527.73995857044702
    Total Energy =                       -527.7399585704465608
    Molecular point group: c1
  Basis Set: CC-PVTZ
  Basis Set:
  Basis Set: CC-PVTZ
  Basis Set:
  @DF-RHF Final Energy:  -527.74096442471455
    Total Energy =                       -527.7409644247143206
  Basis Set: CC-PVTZ
  Basis Set:
  Basis Set: CC-PVTZ
  Basis Set:
  @DF-RHF Final Energy:  -527.74124757971799
    Total Energy =                       -527.7412475797175375
  Basis Set: CC-PVTZ
  Basis Set:
  Basis Set: CC-PVTZ
  Basis Set:
  @DF-RHF Final Energy:  -527.74129129194330
    Total Energy =                       -527.7412912919430710
  Basis Set: CC-PVTZ
  Basis Set:
  @DF-RHF Final Energy:  -527.74133156850917
    Total Energy =                       -527.7413315685087127
  Basis Set: CC-PVTZ
  Basis Set:
  @DF-RHF Final Energy:  -527.74135223030703
    Total Energy =                       -527.7413522303066884
  Basis Set: CC-PVTZ
  Basis Set:
  Basis Set: CC-PVTZ
  Basis Set:
  @DF-RHF Final Energy:  -527.74136086650856
    Total Energy =                       -527.7413608665084439
  Basis Set: CC-PVTZ
  Basis Set:
  Basis Set: CC-PVTZ
  Basis Set:
  @DF-RHF Final Energy:  -527.74136211839743
    Total Energy =                       -527.7413621183974328
  Basis Set: CC-PVTZ
  Basis Set:
  Charge       = 0
  Multiplicity = 1
  Basis Set: CC-PVTZ
  Basis Set:

    Orbital Energies (a.u.)
    -----------------------

    Doubly Occupied:

       1A    -26.339986     2A    -26.337040     3A    -26.336317
       4A    -20.603235     5A    -11.497498     6A    -11.319923
       7A    -11.301052     8A    -11.217427     9A     -1.748576
      10A     -1.644761    11A     -1.643295    12A     -1.445214
      13A     -1.091059    14A     -1.019902    15A     -0.930259
      16A     -0.844436    17A     -0.838286    18A     -0.813438
      19A     -0.805949    20A     -0.730099    21A     -0.719233
      22A     -0.706020    23A     -0.684033    24A     -0.665049
      25A     -0.659978    26A     -0.648528    27A     -0.639451
      28A     -0.590164    29A     -0.564506    30A     -0.531305
      31A     -0.514480    32A     -0.360441

  @DF-RHF Final Energy:  -527.74136242159693

   => Energetics <=

    Nuclear Repulsion Energy =            408.3947296652946193
    One-Electron Energy =               -1540.6903056346404810
    Two-Electron Energy =                 604.5542135477488728
    DFT Exchange-Correlation Energy =       0.0000000000000000
    Empirical Dispersion Energy =           0.0000000000000000
    PCM Polarization Energy =               0.0000000000000000
    EFP Energy =                            0.0000000000000000
    Total Energy =                       -527.7413624215970458
    Molecular point group: c1
  Basis Set: CC-PVTZ
  Basis Set:

  -Total Gradient:
     Atom            X                  Y                   Z
    ------   -----------------  -----------------  -----------------
       1        0.000001710682    -0.000000236942    -0.000004088220
       2        0.000003076756     0.000000017851    -0.000001278394
       3        0.000263731452     0.000011195334     0.000412307083
       4        0.000001692427    -0.000004609301     0.000001497944
       5       -0.000340975803     0.000145297444    -0.000577204429
       6       -0.000010296768     0.000003485709    -0.000000071260
       7       -0.000055806548    -0.000695185231     0.000140823610
       8       -0.000040224522     0.000007676688    -0.000035249759
       9        0.000149653604     0.000541962089     0.000020611274
      10        0.000007164930     0.000004387536     0.000001934886
      11       -0.000003555170    -0.000011964334     0.000011115441
      12        0.000009582862    -0.000006467197     0.000013198688
      13        0.000014246091     0.000004440356     0.000016403139

  **** Optimization is complete! (in 9 steps) ****
    Final optimized geometry and variables:
    Molecular point group: c1

    Geometry (in Angstrom), charge = 0, multiplicity = 1:

    H           -3.716666178347    -2.034818182680     1.283990823832
    C           -3.194346520798    -1.193418287317     0.876714794095
    C           -1.929485875967    -1.312801034954     0.554109638419
    H           -3.719058219823    -0.265797095345     0.758581724626
    O           -1.199839580144    -0.277625161459     0.086438578201
    H           -1.393601007976    -2.238307020394     0.669929854065
    C           -0.049260053104    -0.559749077498    -0.630182551994
    C            1.019259186055     0.441933815807    -0.256434027335
    H           -0.224419464619    -0.476354993191    -1.695910279387
    H            0.340180441014    -1.546235711827    -0.411811410024
    F            2.109666798653     0.196308456498    -0.956095728305
    F            0.651210424055     1.674993961757    -0.508252962872
    F            1.335208024071     0.367931180109     1.015753882578

  Mulliken Charges: (a.u.)
   Center  Symbol    Alpha    Beta     Spin     Total
       1     H     0.42490  0.42490  0.00000  0.15019
       2     C     3.19398  3.19398  0.00000 -0.38796
       3     C     2.96665  2.96665  0.00000  0.06671
       4     H     0.42355  0.42355  0.00000  0.15290
       5     O     4.14223  4.14223  0.00000 -0.28445
       6     H     0.43530  0.43530  0.00000  0.12939
       7     C     3.00206  3.00206  0.00000 -0.00411
       8     C     2.67454  2.67454  0.00000  0.65091
       9     H     0.44962  0.44962  0.00000  0.10075
      10     H     0.45931  0.45931  0.00000  0.08138
      11     F     4.61261  4.61261  0.00000 -0.22522
      12     F     4.60662  4.60662  0.00000 -0.21324
      13     F     4.60863  4.60863  0.00000 -0.21727

   Total alpha = 32.00000, Total beta = 32.00000, Total charge = -0.00000

*** Psi4 exiting successfully. Buy a developer a beer!
