                              Psi4 1.0.54 Driver

  ==> Input File <==

--------------------------------------------------------------------------
set {
	reference rhf
	basis cc-pvtz
}

set_num_threads( 4 )
memory 2 gb

molecule MOL {
0 1

H	 1.328496	 1.411466	 0.990088
O	 0.523924	 0.917243	 1.033359
C	 0.489979	 0.078084	 0.002623
C	 -0.763662	 -0.754014	 0.000816
O	 1.364162	 0.017999	 -0.791169
C	 -2.038001	 0.074705	 -0.000833
H	 -0.712945	 -1.405886	 -0.864342
H	 -0.715137	 -1.405770	 0.866182
H	 -2.087267	 0.710831	 -0.874232
H	 -2.903419	 -0.576199	 -0.001922
H	 -2.089467	 0.710909	 0.872389

	symmetry c1
}
set optking {
	frozen_dihedral = ("
		2 3 4 7
	")
}

ee,wfn = optimize('scf', return_wfn=True)
oeprop( wfn, 'DIPOLE', 'QUADRUPOLE', 'MULLIKEN_CHARGES')
f=open( 'psi4out.xyz', 'w' )
f.write( "11  " )
f.write( str(ee) + "\n" )
f.write( MOL.save_string_xyz() )
f.close()
--------------------------------------------------------------------------

    Molecular point group: c1
  Charge       = 0
  Multiplicity = 1
  Basis Set: CC-PVTZ
  Basis Set:
  @DF-RHF Final Energy:  -266.95132269261603
    Total Energy =                       -266.9513226926159177
    Molecular point group: c1
  Basis Set: CC-PVTZ
  Basis Set:
  Basis Set: CC-PVTZ
  Basis Set:
  @DF-RHF Final Energy:  -266.95159355564431
    Total Energy =                       -266.9515935556444219
  Basis Set: CC-PVTZ
  Basis Set:
  Basis Set: CC-PVTZ
  Basis Set:
  @DF-RHF Final Energy:  -266.95137724830226
    Total Energy =                       -266.9513772483022649
  Basis Set: CC-PVTZ
  Basis Set:
  Basis Set: CC-PVTZ
  Basis Set:
  @DF-RHF Final Energy:  -266.95161972327230
    Total Energy =                       -266.9516197232721879
  Basis Set: CC-PVTZ
  Basis Set:
  Charge       = 0
  Multiplicity = 1
  Basis Set: CC-PVTZ
  Basis Set:

    Orbital Energies (a.u.)
    -----------------------

    Doubly Occupied:

       1A    -20.605650     2A    -20.540317     3A    -11.373672
       4A    -11.242108     5A    -11.227522     6A     -1.478477
       7A     -1.369083     8A     -1.068852     9A     -0.912933
      10A     -0.821656    11A     -0.705895    12A     -0.686445
      13A     -0.647853    14A     -0.614343    15A     -0.593613
      16A     -0.548888    17A     -0.527532    18A     -0.512373
      19A     -0.482187    20A     -0.443743

  @DF-RHF Final Energy:  -266.95162409449227

   => Energetics <=

    Nuclear Repulsion Energy =            180.4127653526000472
    One-Electron Energy =                -721.9224943853907916
    Two-Electron Energy =                 274.5581049382984702
    DFT Exchange-Correlation Energy =       0.0000000000000000
    Empirical Dispersion Energy =           0.0000000000000000
    PCM Polarization Energy =               0.0000000000000000
    EFP Energy =                            0.0000000000000000
    Total Energy =                       -266.9516240944923311
    Molecular point group: c1
  Basis Set: CC-PVTZ
  Basis Set:

  -Total Gradient:
     Atom            X                  Y                   Z
    ------   -----------------  -----------------  -----------------
       1        0.000042116423     0.000036953102     0.000009857160
       2       -0.000112201598     0.000221028945    -0.000286499835
       3       -0.000052740454    -0.000388181174     0.000471868522
       4        0.000069669151    -0.000165112331     0.000077171128
       5        0.000161350895     0.000074393144    -0.000114216347
       6        0.000087405270    -0.000038651849     0.000001694013
       7       -0.000184886548     0.000284199566    -0.000173670895
       8        0.000017511377    -0.000006654755     0.000023421715
       9       -0.000027784630     0.000012195550    -0.000000580004
      10       -0.000015566309    -0.000027073096    -0.000003487456
      11        0.000015126424    -0.000003097099    -0.000005557999

  **** Optimization is complete! (in 5 steps) ****
    Final optimized geometry and variables:
    Molecular point group: c1

    Geometry (in Angstrom), charge = 0, multiplicity = 1:

    H            1.405608261467     1.360792660141     0.852429426024
    O            0.612890707697     0.852925019012     0.938884820510
    C            0.551868396870    -0.006122898031    -0.074480656013
    C           -0.677892022833    -0.872311672256    -0.026215485913
    O            1.393962890873    -0.059701970610    -0.903268706011
    C           -1.980263967983    -0.071587104954    -0.013824259180
    H           -0.634498072642    -1.528179863795    -0.882345963119
    H           -0.611440755429    -1.479227201268     0.870294583003
    H           -2.062717119934     0.551392622323    -0.896607375218
    H           -2.826115018326    -0.746970817593    -0.003245000187
    H           -2.041854702506     0.564912527165     0.857795543180

  Mulliken Charges: (a.u.)
   Center  Symbol    Alpha    Beta     Spin     Total
       1     H     0.38036  0.38036  0.00000  0.23928
       2     O     4.16339  4.16339  0.00000 -0.32678
       3     C     2.80222  2.80222  0.00000  0.39557
       4     C     3.09038  3.09038  0.00000 -0.18076
       5     O     4.19325  4.19325  0.00000 -0.38650
       6     C     3.14802  3.14802  0.00000 -0.29604
       7     H     0.43502  0.43502  0.00000  0.12996
       8     H     0.44554  0.44554  0.00000  0.10891
       9     H     0.44977  0.44977  0.00000  0.10045
      10     H     0.44719  0.44719  0.00000  0.10562
      11     H     0.44486  0.44486  0.00000  0.11028

   Total alpha = 20.00000, Total beta = 20.00000, Total charge = -0.00000

*** Psi4 exiting successfully. Buy a developer a beer!
