  ==> Input File <==

--------------------------------------------------------------------------
set {
	reference rhf
	basis 6-31G*
}

set_num_threads( 1 )
memory 2 gb

molecule MOL {
0 1

H	 2.343573	 -1.194853	 -0.150204
O	 1.654024	 -0.625927	 -0.460906
C	 1.135793	 0.118896	 0.612333
C	 0.031547	 1.023609	 0.088541
H	 1.915668	 0.729681	 1.063582
H	 0.754543	 -0.542641	 1.387006
C	 -1.134819	 0.293262	 -0.585751
H	 0.474374	 1.714721	 -0.623187
H	 -0.338529	 1.620940	 0.920081
C	 -1.917817	 -0.639439	 0.339494
H	 -0.758119	 -0.268455	 -1.433105
H	 -1.813832	 1.041889	 -0.986690
H	 -2.777680	 -1.057197	 -0.174994
H	 -1.310268	 -1.471279	 0.680599
H	 -2.283753	 -0.111424	 1.216626

	symmetry c1
}
set optking {
	frozen_dihedral = ("
		8 4 7 11,
		2 3 4 8
	")
}

ee = energy('scf')
oeprop('DIPOLE', 'QUADRUPOLE', 'MULLIKEN_CHARGES')
f=open( 'psi4out.xyz', 'w' )
f.write( "15  " )
f.write( str(ee) + "\n" )
f.write( MOL.save_string_xyz() )
f.close()
--------------------------------------------------------------------------

    Molecular point group: c1

    Geometry (in Angstrom), charge = 0, multiplicity = 1:

       Center              X                  Y                   Z               Mass
    ------------   -----------------  -----------------  -----------------  -----------------
           H          2.343455422912    -1.194978273517    -0.150174720913     1.007825032070
           O          1.653906422912    -0.626052273517    -0.460876720913    15.994914619560
           C          1.135675422912     0.118770726483     0.612362279087    12.000000000000
           C          0.031429422912     1.023483726483     0.088570279087    12.000000000000
           H          1.915550422912     0.729555726483     1.063611279087     1.007825032070
           H          0.754425422912    -0.542766273517     1.387035279087     1.007825032070
           C         -1.134936577088     0.293136726483    -0.585721720913    12.000000000000
           H          0.474256422912     1.714595726483    -0.623157720913     1.007825032070
           H         -0.338646577088     1.620814726483     0.920110279087     1.007825032070
           C         -1.917934577088    -0.639564273517     0.339523279087    12.000000000000
           H         -0.758236577088    -0.268580273517    -1.433075720913     1.007825032070
           H         -1.813949577088     1.041763726483    -0.986660720913     1.007825032070
           H         -2.777797577088    -1.057322273517    -0.174964720913     1.007825032070
           H         -1.310385577088    -1.471404273517     0.680628279087     1.007825032070
           H         -2.283870577088    -0.111549273517     1.216655279087     1.007825032070

  Charge       = 0
  Multiplicity = 1
  Basis Set: 6-31G*
  Basis Set:

    Orbital Energies (a.u.)
    -----------------------

    Doubly Occupied:

       1A    -20.553405     2A    -11.267443     3A    -11.212395
       4A    -11.208444     5A    -11.204503     6A     -1.360012
       7A     -1.063599     8A     -0.969878     9A     -0.868326
      10A     -0.773988    11A     -0.704040    12A     -0.648579
      13A     -0.607329    14A     -0.572155    15A     -0.563762
      16A     -0.531784    17A     -0.509393    18A     -0.473498
      19A     -0.466319    20A     -0.452043    21A     -0.430693

  @DF-RHF Final Energy:  -232.14390165527868

   => Energetics <=

    Nuclear Repulsion Energy =            191.9058605139766200
    One-Electron Energy =                -695.2164133797882641
    Two-Electron Energy =                 271.1666512105333595
    DFT Exchange-Correlation Energy =       0.0000000000000000
    Empirical Dispersion Energy =           0.0000000000000000
    PCM Polarization Energy =               0.0000000000000000
    EFP Energy =                            0.0000000000000000
    Total Energy =                       -232.1439016552782846

  Mulliken Charges: (a.u.)
   Center  Symbol    Alpha    Beta     Spin     Total
       1     H     0.28059  0.28059  0.00000  0.43882
       2     O     4.36975  4.36975  0.00000 -0.73950
       3     C     2.99909  2.99909  0.00000  0.00182
       4     C     3.16106  3.16106  0.00000 -0.32213
       5     H     0.42930  0.42930  0.00000  0.14140
       6     H     0.43059  0.43059  0.00000  0.13882
       7     C     3.15347  3.15347  0.00000 -0.30695
       8     H     0.41445  0.41445  0.00000  0.17110
       9     H     0.42466  0.42466  0.00000  0.15067
      10     C     3.24323  3.24323  0.00000 -0.48646
      11     H     0.40734  0.40734  0.00000  0.18532
      12     H     0.42294  0.42294  0.00000  0.15412
      13     H     0.41905  0.41905  0.00000  0.16190
      14     H     0.41950  0.41950  0.00000  0.16100
      15     H     0.42497  0.42497  0.00000  0.15007

   Total alpha = 21.00000, Total beta = 21.00000, Total charge = -0.00000
