                              Psi4 1.0.54 Driver

  ==> Input File <==

--------------------------------------------------------------------------
set {
	reference rhf
	basis cc-pvtz
}

set_num_threads( 4 )
memory 2 gb

molecule MOL {
0 1

H	 -2.336769	 -1.526320	 1.128149
C	 -1.607596	 -0.907372	 0.649458
C	 -1.958923	 0.341804	 0.045073
C	 -0.326705	 -1.280976	 0.596832
H	 -2.980778	 0.670950	 0.070217
C	 -1.027743	 1.096223	 -0.546816
H	 0.013354	 -2.202329	 1.026495
N	 0.640204	 -0.530428	 -0.000115
H	 -1.254003	 2.035130	 -1.008576
C	 0.367863	 0.685792	 -0.602168
C	 2.006991	 -1.033007	 -0.000020
O	 1.232608	 1.335359	 -1.124203
H	 2.182444	 -1.636914	 -0.880881
H	 2.678769	 -0.195442	 -0.002236
H	 2.183828	 -1.633244	 0.883082

	symmetry c1
}
set optking {
	frozen_dihedral = ("
		10 8 11 13
	")
}

ee,wfn = optimize('scf', return_wfn=True)
oeprop( wfn, 'DIPOLE', 'QUADRUPOLE', 'MULLIKEN_CHARGES')
f=open( 'psi4out.xyz', 'w' )
f.write( "15  " )
f.write( str(ee) + "\n" )
f.write( MOL.save_string_xyz() )
f.close()
--------------------------------------------------------------------------

    Molecular point group: c1
  Charge       = 0
  Multiplicity = 1
  Basis Set: CC-PVTZ
  Basis Set:
  @DF-RHF Final Energy:  -360.72271876362379
    Total Energy =                       -360.7227187636237886
    Molecular point group: c1
  Basis Set: CC-PVTZ
  Basis Set:
  Basis Set: CC-PVTZ
  Basis Set:
  @DF-RHF Final Energy:  -360.72293902091639
    Total Energy =                       -360.7229390209164421
  Basis Set: CC-PVTZ
  Basis Set:
  Basis Set: CC-PVTZ
  Basis Set:
  @DF-RHF Final Energy:  -360.72295988690888
    Total Energy =                       -360.7229598869088250
  Basis Set: CC-PVTZ
  Basis Set:
  Basis Set: CC-PVTZ
  Basis Set:
  @DF-RHF Final Energy:  -360.72297020486059
    Total Energy =                       -360.7229702048605873
  Basis Set: CC-PVTZ
  Basis Set:
  Charge       = 0
  Multiplicity = 1
  Basis Set: CC-PVTZ
  Basis Set:

    Orbital Energies (a.u.)
    -----------------------

    Doubly Occupied:

       1A    -20.501828     2A    -15.617149     3A    -11.338613
       4A    -11.293844     5A    -11.264780     6A    -11.258155
       7A    -11.230099     8A    -11.228080     9A     -1.390832
      10A     -1.285805    11A     -1.118806    12A     -1.029052
      13A     -0.972521    14A     -0.876147    15A     -0.838759
      16A     -0.719379    17A     -0.702512    18A     -0.663741
      19A     -0.653010    20A     -0.625712    21A     -0.611880
      22A     -0.574749    23A     -0.555262    24A     -0.550754
      25A     -0.530322    26A     -0.483713    27A     -0.420550
      28A     -0.410499    29A     -0.310526

  @DF-RHF Final Energy:  -360.72297939572383

   => Energetics <=

    Nuclear Repulsion Energy =            358.6353561512817691
    One-Electron Energy =               -1200.6025121155921624
    Two-Electron Energy =                 481.2441765685868518
    DFT Exchange-Correlation Energy =       0.0000000000000000
    Empirical Dispersion Energy =           0.0000000000000000
    PCM Polarization Energy =               0.0000000000000000
    EFP Energy =                            0.0000000000000000
    Total Energy =                       -360.7229793957235984
    Molecular point group: c1
  Basis Set: CC-PVTZ
  Basis Set:

  -Total Gradient:
     Atom            X                  Y                   Z
    ------   -----------------  -----------------  -----------------
       1       -0.000010229360    -0.000001104388    -0.000002449755
       2        0.000077582102    -0.000035313737    -0.000015493564
       3       -0.000008331960     0.000067499416    -0.000021205328
       4       -0.000108472878    -0.000004749015     0.000079755556
       5       -0.000003757322    -0.000015172156     0.000003751155
       6       -0.000082745335     0.000003488942    -0.000008280634
       7        0.000012615788     0.000003345332    -0.000018407978
       8       -0.000179705214    -0.000519123092    -0.000933902681
       9        0.000009462188    -0.000004475066     0.000005190410
      10        0.000087107202     0.000180364935     0.000770909399
      11        0.000373251015     0.001010812394    -0.000244338807
      12        0.000076957838     0.000047439365    -0.000066916849
      13       -0.000251634751    -0.000705806410     0.000444018469
      14       -0.000039473692     0.000000005815     0.000004045477
      15        0.000047374378    -0.000027212332     0.000003325131

  **** Optimization is complete! (in 5 steps) ****
    Final optimized geometry and variables:
    Molecular point group: c1

    Geometry (in Angstrom), charge = 0, multiplicity = 1:

    H           -2.334547579880    -1.489843120243     1.253997340352
    C           -1.601441685778    -0.871157642133     0.780999654240
    C           -1.946170974254     0.382382089713     0.182960990441
    C           -0.320323867965    -1.247906183314     0.737213578626
    H           -2.967014942842     0.714759439511     0.207353482147
    C           -1.010544137013     1.137855739803    -0.401553363467
    H            0.013327982815    -2.170868979956     1.167178100841
    N            0.650433460975    -0.494666132966     0.151991196683
    H           -1.231949832172     2.079607064488    -0.860029439744
    C            0.380309977557     0.715512146993    -0.461484867063
    C            2.022152415404    -0.981219603572     0.132661566794
    O            1.251753517859     1.344599255079    -0.997473642693
    H            2.203295755294    -1.592449034289    -0.742591575319
    H            2.693287051783    -0.141610746651     0.114890935988
    H            2.201539911393    -1.572444324922     1.018892561286

  Mulliken Charges: (a.u.)
   Center  Symbol    Alpha    Beta     Spin     Total
       1     H     0.41389  0.41389  0.00000  0.17221
       2     C     3.10439  3.10439  0.00000 -0.20879
       3     C     3.06109  3.06109  0.00000 -0.12217
       4     C     3.03414  3.03414  0.00000 -0.06827
       5     H     0.41840  0.41840  0.00000  0.16319
       6     C     3.11782  3.11782  0.00000 -0.23564
       7     H     0.42132  0.42132  0.00000  0.15736
       8     N     3.51070  3.51070  0.00000 -0.02141
       9     H     0.40904  0.40904  0.00000  0.18191
      10     C     2.84523  2.84523  0.00000  0.30954
      11     C     3.09947  3.09947  0.00000 -0.19894
      12     O     4.23626  4.23626  0.00000 -0.47252
      13     H     0.44629  0.44629  0.00000  0.10743
      14     H     0.42701  0.42701  0.00000  0.14599
      15     H     0.45494  0.45494  0.00000  0.09011

   Total alpha = 29.00000, Total beta = 29.00000, Total charge =  0.00000

*** Psi4 exiting successfully. Buy a developer a beer!
