                              Psi4 1.0.54 Driver

  ==> Input File <==

--------------------------------------------------------------------------
set {
	reference rhf
	basis cc-pvtz
}

set_num_threads( 4 )
memory 2 gb

molecule MOL {
0 1

H	 -3.162190	 0.493205	 -0.000107
C	 -2.363908	 -0.234727	 0.000005
O	 -1.158738	 0.454634	 -0.000087
H	 -2.464314	 -0.863616	 -0.882153
H	 -2.464327	 -0.863359	 0.882345
C	 -0.880293	 1.129093	 -1.186632
C	 0.453817	 1.836140	 -1.057684
H	 -1.668947	 1.850895	 -1.400324
H	 -0.853809	 0.425660	 -2.019172
C	 0.832000	 2.601015	 -2.321129
H	 0.405790	 2.512788	 -0.211654
H	 1.214443	 1.098879	 -0.825637
H	 0.095393	 3.361416	 -2.558378
H	 1.787901	 3.095946	 -2.201477
H	 0.909743	 1.938028	 -3.176391

	symmetry c1
}
set optking {
	frozen_dihedral = ("
		6 3 2 4
	")
}

ee,wfn = optimize('scf', return_wfn=True)
oeprop( wfn, 'DIPOLE', 'QUADRUPOLE', 'MULLIKEN_CHARGES')
f=open( 'psi4out.xyz', 'w' )
f.write( "15  " )
f.write( str(ee) + "\n" )
f.write( MOL.save_string_xyz() )
f.close()
--------------------------------------------------------------------------

    Molecular point group: c1
  Charge       = 0
  Multiplicity = 1
  Basis Set: CC-PVTZ
  Basis Set:
  @DF-RHF Final Energy:  -232.22699762983754
    Total Energy =                       -232.2269976298376264
    Molecular point group: c1
  Basis Set: CC-PVTZ
  Basis Set:
  Basis Set: CC-PVTZ
  Basis Set:
  @DF-RHF Final Energy:  -232.22775442606545
    Total Energy =                       -232.2277544260655304
  Basis Set: CC-PVTZ
  Basis Set:
  Basis Set: CC-PVTZ
  Basis Set:
  @DF-RHF Final Energy:  -232.22795515942855
    Total Energy =                       -232.2279551594284612
  Basis Set: CC-PVTZ
  Basis Set:
  Charge       = 0
  Multiplicity = 1
  Basis Set: CC-PVTZ
  Basis Set:

    Orbital Energies (a.u.)
    -----------------------

    Doubly Occupied:

       1A    -20.547327     2A    -11.264488     3A    -11.261778
       4A    -11.212758     5A    -11.210725     6A     -1.381664
       7A     -1.058478     8A     -0.956141     9A     -0.877393
      10A     -0.809614    11A     -0.676866    12A     -0.655988
      13A     -0.632518    14A     -0.608274    15A     -0.565343
      16A     -0.540929    17A     -0.503708    18A     -0.490730
      19A     -0.478393    20A     -0.462979    21A     -0.416223

  @DF-RHF Final Energy:  -232.22795626859318

   => Energetics <=

    Nuclear Repulsion Energy =            190.0020726301166860
    One-Electron Energy =                -691.2354241431397668
    Two-Electron Energy =                 269.0053952444300194
    DFT Exchange-Correlation Energy =       0.0000000000000000
    Empirical Dispersion Energy =           0.0000000000000000
    PCM Polarization Energy =               0.0000000000000000
    EFP Energy =                            0.0000000000000000
    Total Energy =                       -232.2279562685930614
    Molecular point group: c1
  Basis Set: CC-PVTZ
  Basis Set:

  -Total Gradient:
     Atom            X                  Y                   Z
    ------   -----------------  -----------------  -----------------
       1        0.000028347022     0.000020164671     0.000003137997
       2        0.001077091228    -0.001724675649     0.000729220481
       3       -0.001006729892     0.001676887413     0.000405607309
       4       -0.000610469972     0.001091585693    -0.000757114584
       5        0.000055696478     0.000018890922     0.000003889605
       6        0.000515133110    -0.001010036504    -0.000562617767
       7        0.000003869954    -0.000029804944     0.000097921378
       8       -0.000006411354    -0.000013447285     0.000054311089
       9       -0.000007427001    -0.000006676541    -0.000012000272
      10       -0.000066547701    -0.000023062511     0.000000834134
      11        0.000021366279     0.000019671641     0.000008235781
      12        0.000010051015    -0.000003095554     0.000005687274
      13       -0.000002277540     0.000006268821    -0.000007819021
      14       -0.000013258701    -0.000018407364     0.000029259859
      15        0.000001567074    -0.000004262809     0.000001446739

  **** Optimization is complete! (in 4 steps) ****
    Final optimized geometry and variables:
    Molecular point group: c1

    Geometry (in Angstrom), charge = 0, multiplicity = 1:

    H           -2.554076281784    -0.717622819909     0.925582485481
    C           -1.697592836864    -1.389022797695     0.914434452915
    O           -0.501844881093    -0.683210168848     0.910468833545
    H           -1.786079609393    -2.030823553491     0.040585253351
    H           -1.723073679555    -1.999818714923     1.805123800457
    C           -0.224833352620    -0.019642109454    -0.282387233352
    C            1.092311933164     0.717627066418    -0.148334174048
    H           -1.025552616720     0.682740326800    -0.516279723466
    H           -0.174038660582    -0.734792535692    -1.103477389373
    C            1.471121734765     1.467892671285    -1.420344403535
    H            1.019227370363     1.408086888149     0.684718887735
    H            1.864943924856     0.000608489984     0.106699576715
    H            0.721830507771     2.208059811991    -1.680941786074
    H            2.414706946083     1.985206602610    -1.297112662486
    H            1.574388310957     0.791519297994    -2.262390421929

  Mulliken Charges: (a.u.)
   Center  Symbol    Alpha    Beta     Spin     Total
       1     H     0.47000  0.47000  0.00000  0.05999
       2     C     3.03320  3.03320  0.00000 -0.06640
       3     O     4.17179  4.17179  0.00000 -0.34359
       4     H     0.47381  0.47381  0.00000  0.05237
       5     H     0.44721  0.44721  0.00000  0.10557
       6     C     2.95613  2.95613  0.00000  0.08774
       7     C     3.08033  3.08033  0.00000 -0.16065
       8     H     0.47671  0.47671  0.00000  0.04659
       9     H     0.47485  0.47485  0.00000  0.05030
      10     C     3.15582  3.15582  0.00000 -0.31164
      11     H     0.45103  0.45103  0.00000  0.09794
      12     H     0.45115  0.45115  0.00000  0.09771
      13     H     0.45582  0.45582  0.00000  0.08835
      14     H     0.44627  0.44627  0.00000  0.10746
      15     H     0.45588  0.45588  0.00000  0.08824

   Total alpha = 21.00000, Total beta = 21.00000, Total charge =  0.00000

*** Psi4 exiting successfully. Buy a developer a beer!
