  ==> Input File <==

--------------------------------------------------------------------------
set {
	reference rhf
	basis 6-31G*
}

set_num_threads( 4 )
memory 2 gb

molecule MOL {
0 1

H	 1.767681	 -0.445260	 2.358350
O	 1.077370	 0.104527	 2.016450
C	 1.135793	 0.118896	 0.612333
C	 0.031547	 1.023609	 0.088541
H	 0.995365	 -0.884804	 0.215147
H	 2.109374	 0.466891	 0.274486
C	 -1.134819	 0.293262	 -0.585751
H	 0.474374	 1.714721	 -0.623187
H	 -0.338529	 1.620940	 0.920081
C	 -1.917817	 -0.639439	 0.339494
H	 -0.758119	 -0.268455	 -1.433105
H	 -1.813832	 1.041889	 -0.986690
H	 -2.777680	 -1.057197	 -0.174994
H	 -1.310268	 -1.471279	 0.680599
H	 -2.283753	 -0.111424	 1.216626

	symmetry c1
}
set optking {
	frozen_dihedral = ("
		2 3 4 8
	")
}

ee = optimize('scf')
oeprop('DIPOLE', 'QUADRUPOLE', 'MULLIKEN_CHARGES')
f=open( 'psi4out.xyz', 'w' )
f.write( "15  " )
f.write( str(ee) + "\n" )
f.write( MOL.save_string_xyz() )
f.close()
--------------------------------------------------------------------------

    Molecular point group: c1
  Charge       = 0
  Multiplicity = 1
  Basis Set: 6-31G*
  Basis Set:
  @DF-RHF Final Energy:  -232.13849420310621
    Total Energy =                       -232.1384942031062906
    Molecular point group: c1
  Basis Set: 6-31G*
  Basis Set:
  Basis Set: 6-31G*
  Basis Set:
  @DF-RHF Final Energy:  -232.13907020023836
    Total Energy =                       -232.1390702002383932
  Basis Set: 6-31G*
  Basis Set:
  Basis Set: 6-31G*
  Basis Set:
  @DF-RHF Final Energy:  -232.13918977025304
    Total Energy =                       -232.1391897702531537
  Basis Set: 6-31G*
  Basis Set:
  Basis Set: 6-31G*
  Basis Set:
  @DF-RHF Final Energy:  -232.13919756149167
    Total Energy =                       -232.1391975614916419
  Basis Set: 6-31G*
  Basis Set:
  Basis Set: 6-31G*
  Basis Set:
  @DF-RHF Final Energy:  -232.13918984959864
    Total Energy =                       -232.1391898495987789
  Basis Set: 6-31G*
  Basis Set:
  Basis Set: 6-31G*
  Basis Set:
  @DF-RHF Final Energy:  -232.13920158982444
    Total Energy =                       -232.1392015898245518
  Basis Set: 6-31G*
  Basis Set:
  Charge       = 0
  Multiplicity = 1
  Basis Set: 6-31G*
  Basis Set:

    Orbital Energies (a.u.)
    -----------------------

    Doubly Occupied:

       1A    -20.552305     2A    -11.267927     3A    -11.214916
       4A    -11.211190     5A    -11.203224     6A     -1.358196
       7A     -1.065431     8A     -0.967218     9A     -0.865942
      10A     -0.783254    11A     -0.698829    12A     -0.647688
      13A     -0.611354    14A     -0.572886    15A     -0.552887
      16A     -0.540040    17A     -0.502003    18A     -0.476492
      19A     -0.468784    20A     -0.456227    21A     -0.427320

  @DF-RHF Final Energy:  -232.13920162838755

   => Energetics <=

    Nuclear Repulsion Energy =            190.9838533327877315
    One-Electron Energy =                -693.3578828227475697
    Two-Electron Energy =                 270.2348278615722847
    DFT Exchange-Correlation Energy =       0.0000000000000000
    Empirical Dispersion Energy =           0.0000000000000000
    PCM Polarization Energy =               0.0000000000000000
    EFP Energy =                            0.0000000000000000
    Total Energy =                       -232.1392016283875819
    Molecular point group: c1
  Basis Set: 6-31G*
  Basis Set:

  -Total Gradient:
     Atom            X                  Y                   Z
    ------   -----------------  -----------------  -----------------
       1       -0.000002886148     0.000002141313    -0.000009623059
       2        0.001635131397     0.002146824377     0.000237167257
       3       -0.001988462778    -0.002272869842     0.000366677577
       4       -0.000170546683    -0.002060811555    -0.003272734239
       5       -0.000000752896     0.000002169601    -0.000007224655
       6       -0.000007072450     0.000005683390    -0.000007942112
       7        0.000005699553    -0.000010862043     0.000005408080
       8        0.000526777435     0.002192839917     0.002707229573
       9        0.000013024559     0.000001206576     0.000002812364
      10       -0.000001969472     0.000000712964    -0.000012828099
      11       -0.000007586524    -0.000007762802    -0.000005311246
      12       -0.000003260290    -0.000005509331    -0.000001504825
      13       -0.000005002276     0.000001632644    -0.000000162152
      14        0.000001110751     0.000002774992    -0.000000652725
      15        0.000005795821     0.000001829799    -0.000001311741

  **** Optimization is complete! (in 7 steps) ****
    Final optimized geometry and variables:
    Molecular point group: c1

    Geometry (in Angstrom), charge = 0, multiplicity = 1:

    H            1.858590810849    -0.689012683038     1.790959442801
    O            1.188787796311    -0.106210537963     1.461909088763
    C            1.274997762136    -0.035126117377     0.059072409997
    C            0.155503396864     0.874943477773    -0.459620677405
    H            1.196266561514    -1.028229116760    -0.379026113585
    H            2.245083543097     0.365050011739    -0.227486905403
    C           -1.007293270572     0.139126312638    -1.130932895133
    H            0.573099366755     1.612714104803    -1.138977485757
    H           -0.214348797393     1.437572119508     0.392167005341
    C           -1.787338375348    -0.765109823052    -0.175599222085
    H           -0.630663751311    -0.448839892732    -1.965969403808
    H           -1.685425106266     0.872747445162    -1.559465647059
    H           -2.594526509122    -1.273693957600    -0.694111116722
    H           -1.150931225577    -1.521441606271     0.271718883328
    H           -2.221601892076    -0.187311130760     0.634546909954

  Mulliken Charges: (a.u.)
   Center  Symbol    Alpha    Beta     Spin     Total
       1     H     0.28203  0.28203  0.00000  0.43593
       2     O     4.37080  4.37080  0.00000 -0.74159
       3     C     2.99840  2.99840  0.00000  0.00321
       4     C     3.16600  3.16600  0.00000 -0.33200
       5     H     0.43018  0.43018  0.00000  0.13964
       6     H     0.42870  0.42870  0.00000  0.14260
       7     C     3.15751  3.15751  0.00000 -0.31502
       8     H     0.41954  0.41954  0.00000  0.16091
       9     H     0.40501  0.40501  0.00000  0.18997
      10     C     3.23803  3.23803  0.00000 -0.47607
      11     H     0.42529  0.42529  0.00000  0.14942
      12     H     0.42074  0.42074  0.00000  0.15852
      13     H     0.42207  0.42207  0.00000  0.15586
      14     H     0.41728  0.41728  0.00000  0.16544
      15     H     0.41842  0.41842  0.00000  0.16317

   Total alpha = 21.00000, Total beta = 21.00000, Total charge = -0.00000
