                              Psi4 1.0.54 Driver

  ==> Input File <==

--------------------------------------------------------------------------
set {
	reference rhf
	basis cc-pvtz
}

set_num_threads( 4 )
memory 2 gb

molecule MOL {
0 1

H	 -2.123894	 -0.667238	 -0.609809
O	 -2.041679	 -0.058866	 0.103463
C	 -0.959304	 0.780994	 -0.094939
C	 0.354905	 0.037902	 -0.006215
H	 -0.985899	 1.279578	 -1.057596
H	 -0.969809	 1.529522	 0.682889
F	 0.297929	 -1.104754	 -0.667185
F	 1.323069	 0.756113	 -0.535770
F	 0.691456	 -0.241046	 1.230269

	symmetry c1
}
set optking {
	frozen_dihedral = ("
		7 4 3 5
	")
}

ee,wfn = optimize('scf', return_wfn=True)
oeprop( wfn, 'DIPOLE', 'QUADRUPOLE', 'MULLIKEN_CHARGES')
f=open( 'psi4out.xyz', 'w' )
f.write( "9  " )
f.write( str(ee) + "\n" )
f.write( MOL.save_string_xyz() )
f.close()
--------------------------------------------------------------------------

    Molecular point group: c1
  Charge       = 0
  Multiplicity = 1
  Basis Set: CC-PVTZ
  Basis Set:
  @DF-RHF Final Energy:  -450.84613873783422
    Total Energy =                       -450.8461387378343943
    Molecular point group: c1
  Basis Set: CC-PVTZ
  Basis Set:
  Basis Set: CC-PVTZ
  Basis Set:
  @DF-RHF Final Energy:  -450.84626999642802
    Total Energy =                       -450.8462699964280773
  Basis Set: CC-PVTZ
  Basis Set:
  Basis Set: CC-PVTZ
  Basis Set:
  @DF-RHF Final Energy:  -450.84631948099798
    Total Energy =                       -450.8463194809979768
  Basis Set: CC-PVTZ
  Basis Set:
  Basis Set: CC-PVTZ
  Basis Set:
  @DF-RHF Final Energy:  -450.84632194074675
    Total Energy =                       -450.8463219407466340
  Basis Set: CC-PVTZ
  Basis Set:
  Charge       = 0
  Multiplicity = 1
  Basis Set: CC-PVTZ
  Basis Set:

    Orbital Energies (a.u.)
    -----------------------

    Doubly Occupied:

       1A    -26.340787     2A    -26.340668     3A    -26.334775
       4A    -20.583978     5A    -11.494586     6A    -11.309885
       7A     -1.748387     8A     -1.646623     9A     -1.642033
      10A     -1.407840    11A     -1.049954    12A     -0.930247
      13A     -0.837596    14A     -0.837086    15A     -0.813759
      16A     -0.730352    17A     -0.719562    18A     -0.704484
      19A     -0.672613    20A     -0.666409    21A     -0.649536
      22A     -0.632591    23A     -0.620015    24A     -0.532731
      25A     -0.484791

  @DF-RHF Final Energy:  -450.84632237719103

   => Energetics <=

    Nuclear Repulsion Energy =            277.6154275479528337
    One-Electron Energy =               -1177.4609249202262617
    Two-Electron Energy =                 448.9991749950822282
    DFT Exchange-Correlation Energy =       0.0000000000000000
    Empirical Dispersion Energy =           0.0000000000000000
    PCM Polarization Energy =               0.0000000000000000
    EFP Energy =                            0.0000000000000000
    Total Energy =                       -450.8463223771912567
    Molecular point group: c1
  Basis Set: CC-PVTZ
  Basis Set:

  -Total Gradient:
     Atom            X                  Y                   Z
    ------   -----------------  -----------------  -----------------
       1        0.000005101654     0.000013245092    -0.000001407572
       2        0.000052275468     0.000050568775    -0.000009676313
       3       -0.002243172706    -0.004143787282    -0.001006487659
       4        0.001598956267     0.002421242737    -0.003027305866
       5        0.001554414566     0.002950088621     0.001488716694
       6       -0.000002566235     0.000008698472     0.000012878912
       7       -0.000993557418    -0.001362955938     0.002573384494
       8        0.000046276179     0.000040165102    -0.000011093533
       9       -0.000017727774     0.000022734415    -0.000019009154

  **** Optimization is complete! (in 5 steps) ****
    Final optimized geometry and variables:
    Molecular point group: c1

    Geometry (in Angstrom), charge = 0, multiplicity = 1:

    H           -2.117853796293    -0.692134389841    -0.553401083995
    O           -2.046338783339    -0.042039928637     0.123150900901
    C           -0.960828803714     0.781914829665    -0.106323132334
    C            0.356966876762     0.037800511976    -0.016014074281
    H           -0.991004040646     1.286404382487    -1.065961473193
    H           -0.954463674382     1.540949325212     0.661985658968
    F            0.308107623939    -1.102470043416    -0.679129571575
    F            1.333824019191     0.759993605974    -0.521178220579
    F            0.677867229356    -0.253157120527     1.224684932266

  Mulliken Charges: (a.u.)
   Center  Symbol    Alpha    Beta     Spin     Total
       1     H     0.38576  0.38576  0.00000  0.22848
       2     O     4.19123  4.19123  0.00000 -0.38245
       3     C     2.99256  2.99256  0.00000  0.01488
       4     C     2.68206  2.68206  0.00000  0.63589
       5     H     0.46313  0.46313  0.00000  0.07375
       6     H     0.44865  0.44865  0.00000  0.10271
       7     F     4.61651  4.61651  0.00000 -0.23302
       8     F     4.61098  4.61098  0.00000 -0.22197
       9     F     4.60913  4.60913  0.00000 -0.21827

   Total alpha = 25.00000, Total beta = 25.00000, Total charge =  0.00000

*** Psi4 exiting successfully. Buy a developer a beer!
