  ==> Input File <==

--------------------------------------------------------------------------
set {
	reference rhf
	basis cc-pvtz
}

set_num_threads( 4 )
memory 2 gb

molecule MOL {
0 1

H	 -0.381557	 -1.351365	 -0.669133
N	 -0.625934	 -0.663929	 -0.000707
C	 -1.978635	 -0.158664	 0.001017
C	 0.327705	 -0.250828	 0.863296
H	 -2.519057	 -0.493535	 -0.876362
H	 -1.938890	 0.917202	 -0.004137
H	 -2.514266	 -0.485137	 0.884506
C	 1.673270	 -0.918459	 0.682894
O	 0.134294	 0.570455	 1.710150
H	 2.061419	 -0.724731	 -0.310287
H	 2.358139	 -0.529326	 1.418147
H	 1.583406	 -1.991578	 0.805202

	symmetry c1
}
set optking {
	frozen_dihedral = ("
		4 2 3 5
	")
}

ee = optimize('scf')
oeprop('DIPOLE', 'QUADRUPOLE', 'MULLIKEN_CHARGES')
f=open( 'psi4out.xyz', 'w' )
f.write( "12  " )
f.write( str(ee) + "\n" )
f.write( MOL.save_string_xyz() )
f.close()
--------------------------------------------------------------------------

    Molecular point group: c1
  Charge       = 0
  Multiplicity = 1
  Basis Set: CC-PVTZ
  Basis Set:
  @DF-RHF Final Energy:  -247.10066784258123
    Total Energy =                       -247.1006678425811174
    Molecular point group: c1
  Basis Set: CC-PVTZ
  Basis Set:
  Basis Set: CC-PVTZ
  Basis Set:
  @DF-RHF Final Energy:  -247.10113342814705
    Total Energy =                       -247.1011334281470226
  Basis Set: CC-PVTZ
  Basis Set:
  Basis Set: CC-PVTZ
  Basis Set:
  @DF-RHF Final Energy:  -247.10108095566275
    Total Energy =                       -247.1010809556624963
  Basis Set: CC-PVTZ
  Basis Set:
  Basis Set: CC-PVTZ
  Basis Set:
  @DF-RHF Final Energy:  -247.10126044159739
    Total Energy =                       -247.1012604415974465
  Basis Set: CC-PVTZ
  Basis Set:
  @DF-RHF Final Energy:  -247.10126406706195
    Total Energy =                       -247.1012640670620613
  @DF-RHF Final Energy:  -247.10127545422043
    Total Energy =                       -247.1012754542202856
  @DF-RHF Final Energy:  -247.10128232975936
    Total Energy =                       -247.1012823297591581
  @DF-RHF Final Energy:  -247.10128573797348
    Total Energy =                       -247.1012857379734555
  @DF-RHF Final Energy:  -247.10128702279766
    Total Energy =                       -247.1012870227978055
  @DF-RHF Final Energy:  -247.10129027547731
    Total Energy =                       -247.1012902754772540
  @DF-RHF Final Energy:  -247.10131116613567
    Total Energy =                       -247.1013111661357016
  @DF-RHF Final Energy:  -247.10135672152336
    Total Energy =                       -247.1013567215234161
  @DF-RHF Final Energy:  -247.10138027404673
    Total Energy =                       -247.1013802740467895
  @DF-RHF Final Energy:  -247.10141443153111
    Total Energy =                       -247.1014144315309409
  @DF-RHF Final Energy:  -247.10143990991583
    Total Energy =                       -247.1014399099158254
  @DF-RHF Final Energy:  -247.10145586741220
    Total Energy =                       -247.1014558674122554
  Basis Set: CC-PVTZ
  Basis Set:
  @DF-RHF Final Energy:  -247.10145994735129
    Total Energy =                       -247.1014599473513726
  Basis Set: CC-PVTZ
  Basis Set:
  Basis Set: CC-PVTZ
  Basis Set:
  @DF-RHF Final Energy:  -247.10146272330047
    Total Energy =                       -247.1014627233005285
  Basis Set: CC-PVTZ
  Basis Set:
  Basis Set: CC-PVTZ
  Basis Set:
  @DF-RHF Final Energy:  -247.10146485185308
    Total Energy =                       -247.1014648518531658
  Basis Set: CC-PVTZ
  Basis Set:
  Charge       = 0
  Multiplicity = 1
  Basis Set: CC-PVTZ
  Basis Set:

    Orbital Energies (a.u.)
    -----------------------

    Doubly Occupied:

       1A    -20.504828     2A    -15.576466     3A    -11.335274
       4A    -11.254186     5A    -11.228445     6A     -1.387845
       7A     -1.231422     8A     -1.016065     9A     -0.934085
      10A     -0.790213    11A     -0.690701    12A     -0.651741
      13A     -0.636068    14A     -0.585342    15A     -0.582772
      16A     -0.556612    17A     -0.548129    18A     -0.505396
      19A     -0.416874    20A     -0.391136

  @DF-RHF Final Energy:  -247.10146532617955

   => Energetics <=

    Nuclear Repulsion Energy =            181.8947582530843192
    One-Electron Energy =                -696.3452431050189944
    Two-Electron Energy =                 267.3490195257548976
    DFT Exchange-Correlation Energy =       0.0000000000000000
    Empirical Dispersion Energy =           0.0000000000000000
    PCM Polarization Energy =               0.0000000000000000
    EFP Energy =                            0.0000000000000000
    Total Energy =                       -247.1014653261797775
    Molecular point group: c1
  Basis Set: CC-PVTZ
  Basis Set:

  -Total Gradient:
     Atom            X                  Y                   Z
    ------   -----------------  -----------------  -----------------
       1        0.000000751693    -0.000002327002     0.000001579386
       2       -0.000009106575    -0.000049485937     0.000036273058
       3       -0.000012728638    -0.000032444289     0.000009136785
       4        0.000000369296     0.000029171611    -0.000028562672
       5        0.000011887057     0.000039723698    -0.000012473340
       6       -0.000000744059    -0.000001322630     0.000000476788
       7       -0.000002468246    -0.000000292495    -0.000001244075
       8        0.000004115588    -0.000002788594    -0.000000073248
       9        0.000007909366     0.000018496097    -0.000006371579
      10        0.000006002232     0.000013981315    -0.000002218721
      11       -0.000000137648    -0.000005362065     0.000013717218
      12       -0.000005850065    -0.000007349711    -0.000010239595

  **** Optimization is complete! (in 20 steps) ****
    Final optimized geometry and variables:
    Molecular point group: c1

    Geometry (in Angstrom), charge = 0, multiplicity = 1:

    H           -0.221582131565    -0.865376749263    -1.485734711539
    N           -0.473699625996    -0.252191409411    -0.752834727758
    C           -1.843715825877     0.197616958040    -0.660424197138
    C            0.425386435579     0.004455597909     0.218826481481
    H           -2.327350059488     0.037459750887    -1.613740471677
    H           -1.874152491443     1.250552327272    -0.424181785206
    H           -2.391869440042    -0.336463514786     0.106194464844
    C            1.792895825625    -0.612876748293     0.033872193901
    O            0.160314428698     0.668440144967     1.177847260865
    H            1.995306491586    -0.897088692522    -0.990423704006
    H            2.538320948738     0.092242386255     0.369369914859
    H            1.858870510933    -1.494544765717     0.660092859269

  Mulliken Charges: (a.u.)
   Center  Symbol    Alpha    Beta     Spin     Total
       1     H     0.41118  0.41118  0.00000  0.17765
       2     N     3.61382  3.61382  0.00000 -0.22763
       3     C     3.07640  3.07640  0.00000 -0.15281
       4     C     2.84198  2.84198  0.00000  0.31605
       5     H     0.45582  0.45582  0.00000  0.08837
       6     H     0.44264  0.44264  0.00000  0.11472
       7     H     0.45469  0.45469  0.00000  0.09062
       8     C     3.14496  3.14496  0.00000 -0.28992
       9     O     4.21956  4.21956  0.00000 -0.43912
      10     H     0.45798  0.45798  0.00000  0.08404
      11     H     0.43711  0.43711  0.00000  0.12579
      12     H     0.44388  0.44388  0.00000  0.11225

   Total alpha = 20.00000, Total beta = 20.00000, Total charge =  0.00000
