  ==> Input File <==

--------------------------------------------------------------------------
set {
	reference rhf
	basis cc-pvtz
}

set_num_threads( 4 )
memory 2 gb

molecule MOL {
0 1

H	 3.273419	 0.176595	 -0.102789
N	 2.433987	 -0.362316	 -0.080024
C	 1.263552	 0.494993	 0.021953
H	 2.497638	 -0.973615	 0.707122
C	 -0.016533	 -0.325589	 -0.026925
H	 1.280915	 1.180773	 -0.818522
H	 1.263064	 1.106893	 0.925038
C	 -1.280353	 0.525521	 0.047747
H	 -0.016686	 -0.912532	 -0.939714
H	 -0.014099	 -1.037598	 0.796369
C	 -1.711775	 0.828804	 1.478790
H	 -2.088072	 0.014671	 -0.469541
H	 -1.121038	 1.459423	 -0.484532
H	 -1.911629	 -0.084753	 2.028517
H	 -2.612996	 1.430773	 1.498410
H	 -0.939543	 1.372070	 2.013301

	symmetry c1
}
set optking {
	frozen_dihedral = ("
		12 8 5 9
	")
}

ee = optimize('scf')
oeprop('DIPOLE', 'QUADRUPOLE', 'MULLIKEN_CHARGES')
f=open( 'psi4out.xyz', 'w' )
f.write( "16  " )
f.write( str(ee) + "\n" )
f.write( MOL.save_string_xyz() )
f.close()
--------------------------------------------------------------------------

    Molecular point group: c1
  Charge       = 0
  Multiplicity = 1
  Basis Set: CC-PVTZ
  Basis Set:
  @DF-RHF Final Energy:  -212.39729386572125
    Total Energy =                       -212.3972938657211671
    Molecular point group: c1
  Basis Set: CC-PVTZ
  Basis Set:
  Basis Set: CC-PVTZ
  Basis Set:
  @DF-RHF Final Energy:  -212.39751460824681
    Total Energy =                       -212.3975146082466381
  Basis Set: CC-PVTZ
  Basis Set:
  Basis Set: CC-PVTZ
  Basis Set:
  @DF-RHF Final Energy:  -212.39755259738718
    Total Energy =                       -212.3975525973871754
  Basis Set: CC-PVTZ
  Basis Set:
  Charge       = 0
  Multiplicity = 1
  Basis Set: CC-PVTZ
  Basis Set:

    Orbital Energies (a.u.)
    -----------------------

    Doubly Occupied:

       1A    -15.526552     2A    -11.238196     3A    -11.213207
       4A    -11.207986     5A    -11.206885     6A     -1.178323
       7A     -1.059544     8A     -0.957636     9A     -0.853904
      10A     -0.786353    11A     -0.659687    12A     -0.637084
      13A     -0.615710    14A     -0.574960    15A     -0.562704
      16A     -0.531693    17A     -0.501947    18A     -0.467658
      19A     -0.464269    20A     -0.461795    21A     -0.383528

  @DF-RHF Final Energy:  -212.39755326262969

   => Energetics <=

    Nuclear Repulsion Energy =            188.3301345745085200
    One-Electron Energy =                -659.2761308922990793
    Two-Electron Energy =                 258.5484430551608739
    DFT Exchange-Correlation Energy =       0.0000000000000000
    Empirical Dispersion Energy =           0.0000000000000000
    PCM Polarization Energy =               0.0000000000000000
    EFP Energy =                            0.0000000000000000
    Total Energy =                       -212.3975532626296854
    Molecular point group: c1
  Basis Set: CC-PVTZ
  Basis Set:

  -Total Gradient:
     Atom            X                  Y                   Z
    ------   -----------------  -----------------  -----------------
       1        0.000037039109    -0.000015189486     0.000002129555
       2        0.000030628678     0.000010506531     0.000007786432
       3        0.000008266442    -0.000008971036    -0.000002943362
       4        0.000004638463    -0.000004016339     0.000000252172
       5        0.001462241684     0.002467393382    -0.001846327928
       6       -0.000028048106     0.000005008981     0.000000348739
       7       -0.000008453441    -0.000009866309    -0.000010986844
       8       -0.001004031545    -0.001819117408     0.002699638974
       9       -0.001060039001    -0.001766730147     0.001123115475
      10       -0.000005305076     0.000017701132    -0.000010013454
      11        0.000001873261     0.000017797713     0.000030665350
      12        0.000546091654     0.001116201331    -0.001973409761
      13        0.000010668419    -0.000012077400     0.000020423662
      14        0.000010478225    -0.000001344411    -0.000027147311
      15       -0.000006415991     0.000005044656    -0.000005485736
      16        0.000000367224    -0.000002341188    -0.000008045962

  **** Optimization is complete! (in 4 steps) ****
    Final optimized geometry and variables:
    Molecular point group: c1

    Geometry (in Angstrom), charge = 0, multiplicity = 1:

    H            3.105381049767    -0.063715407082    -0.390328841550
    N            2.263094295393    -0.598308310778    -0.368144417529
    C            1.095162945660     0.265576914491    -0.297274415076
    H            2.314002089731    -1.195079114109     0.430978707951
    C           -0.186626292117    -0.553134831664    -0.356564899529
    H            1.125482120703     0.935348421787    -1.150025296229
    H            1.088057350533     0.893928665632     0.593432157795
    C           -1.464763061063     0.286386856345    -0.248197744046
    H           -0.190668872643    -1.126898851171    -1.276001256925
    H           -0.174252648244    -1.287927615728     0.446540523321
    C           -1.888916857390     0.599872131727     1.183903352813
    H           -2.272551032680    -0.225602984890    -0.760000820875
    H           -1.325445394970     1.217662518939    -0.791895276662
    H           -2.105801475429    -0.311060419558     1.731691100689
    H           -2.780883858177     1.215818942994     1.200777020069
    H           -1.113642196680     1.131999997636     1.723825792607

  Mulliken Charges: (a.u.)
   Center  Symbol    Alpha    Beta     Spin     Total
       1     H     0.43010  0.43010  0.00000  0.13980
       2     N     3.69009  3.69009  0.00000 -0.38018
       3     C     3.02544  3.02544  0.00000 -0.05087
       4     H     0.43036  0.43036  0.00000  0.13928
       5     C     3.08668  3.08668  0.00000 -0.17336
       6     H     0.45667  0.45667  0.00000  0.08666
       7     H     0.46722  0.46722  0.00000  0.06555
       8     C     3.09581  3.09581  0.00000 -0.19161
       9     H     0.44392  0.44392  0.00000  0.11217
      10     H     0.46223  0.46223  0.00000  0.07555
      11     C     3.14782  3.14782  0.00000 -0.29565
      12     H     0.44733  0.44733  0.00000  0.10534
      13     H     0.45674  0.45674  0.00000  0.08653
      14     H     0.45515  0.45515  0.00000  0.08970
      15     H     0.44824  0.44824  0.00000  0.10353
      16     H     0.45621  0.45621  0.00000  0.08758

   Total alpha = 21.00000, Total beta = 21.00000, Total charge =  0.00000
