  ==> Input File <==

--------------------------------------------------------------------------
set {
	reference rhf
	basis 6-31G*
}

set_num_threads( 4 )
memory 2 gb

molecule MOL {
0 1

H	 -0.597133	 3.651653	 -2.401813
C	 0.400038	 4.035094	 -2.152326
C	 0.718646	 4.071452	 -0.679309
O	 1.138513	 4.384680	 -3.014992
C	 0.473475	 2.721712	 0.009420
H	 1.744588	 4.399672	 -0.559211
H	 0.072345	 4.824963	 -0.230788
C	 1.429147	 1.618512	 -0.452033
H	 0.572958	 2.859827	 1.081946
H	 -0.556035	 2.410734	 -0.161344
C	 1.180775	 0.282413	 0.250794
H	 2.453888	 1.937780	 -0.273649
H	 1.340455	 1.479564	 -1.527842
C	 2.148627	 -0.814315	 -0.201312
H	 1.260371	 0.429492	 1.324928
H	 0.158041	 -0.040382	 0.060523
C	 3.580890	 -0.659131	 0.322722
H	 2.166869	 -0.852443	 -1.289387
H	 1.762857	 -1.776509	 0.128956
C	 4.324889	 0.564933	 -0.213704
H	 4.142010	 -1.551473	 0.056605
H	 3.564836	 -0.624694	 1.410140
H	 4.342616	 0.565491	 -1.300421
H	 3.866655	 1.493402	 0.110242
H	 5.353900	 0.572371	 0.132816

	symmetry c1
}
set optking {
	frozen_dihedral = ("
		8 11 14 18
	")
}

ee = optimize('scf')
oeprop('DIPOLE', 'QUADRUPOLE', 'MULLIKEN_CHARGES')
f=open( 'psi4out.xyz', 'w' )
f.write( "25  " )
f.write( str(ee) + "\n" )
f.write( MOL.save_string_xyz() )
f.close()
--------------------------------------------------------------------------

    Molecular point group: c1
  Charge       = 0
  Multiplicity = 1
  Basis Set: 6-31G*
  Basis Set:
  @DF-RHF Final Energy:  -387.10722938801183
    Total Energy =                       -387.1072293880115467
    Molecular point group: c1
  Basis Set: 6-31G*
  Basis Set:
  Basis Set: 6-31G*
  Basis Set:
  @DF-RHF Final Energy:  -387.11533712743420
    Total Energy =                       -387.1153371274338042
  Basis Set: 6-31G*
  Basis Set:
  Basis Set: 6-31G*
  Basis Set:
  @DF-RHF Final Energy:  -387.11664760268985
    Total Energy =                       -387.1166476026899090
  Basis Set: 6-31G*
  Basis Set:
  Basis Set: 6-31G*
  Basis Set:
  @DF-RHF Final Energy:  -387.11620307018052
    Total Energy =                       -387.1162030701801768
  Basis Set: 6-31G*
  Basis Set:
  @DF-RHF Final Energy:  -387.11690911354503
    Total Energy =                       -387.1169091135446934
  @DF-RHF Final Energy:  -387.11701700887676
    Total Energy =                       -387.1170170088767009
  @DF-RHF Final Energy:  -387.11704257128622
    Total Energy =                       -387.1170425712866745
  @DF-RHF Final Energy:  -387.11704970687180
    Total Energy =                       -387.1170497068717395
  @DF-RHF Final Energy:  -387.11705328927775
    Total Energy =                       -387.1170532892779192
  @DF-RHF Final Energy:  -387.11705608715357
    Total Energy =                       -387.1170560871530597
  @DF-RHF Final Energy:  -387.11705855079663
    Total Energy =                       -387.1170585507968553
  @DF-RHF Final Energy:  -387.11706503032008
    Total Energy =                       -387.1170650303203047
  Basis Set: 6-31G*
  Basis Set:
  @DF-RHF Final Energy:  -387.11707058101160
    Total Energy =                       -387.1170705810120580
  Basis Set: 6-31G*
  Basis Set:
  Basis Set: 6-31G*
  Basis Set:
  @DF-RHF Final Energy:  -387.11707533975436
    Total Energy =                       -387.1170753397548197
  Basis Set: 6-31G*
  Basis Set:
  Basis Set: 6-31G*
  Basis Set:
  @DF-RHF Final Energy:  -387.11707933063548
    Total Energy =                       -387.1170793306351925
  Basis Set: 6-31G*
  Basis Set:
  Charge       = 0
  Multiplicity = 1
  Basis Set: 6-31G*
  Basis Set:

    Orbital Energies (a.u.)
    -----------------------

    Doubly Occupied:

       1A    -20.562018     2A    -11.326180     3A    -11.235299
       4A    -11.234676     5A    -11.223335     6A    -11.220844
       7A    -11.217922     8A    -11.217306     9A    -11.208399
      10A     -1.401960    11A     -1.103040    12A     -1.066951
      13A     -1.011210    14A     -0.946847    15A     -0.873657
      16A     -0.822517    17A     -0.788186    18A     -0.778670
      19A     -0.664980    20A     -0.659503    21A     -0.629631
      22A     -0.621364    23A     -0.608407    24A     -0.592734
      25A     -0.569027    26A     -0.558566    27A     -0.531349
      28A     -0.520329    29A     -0.519103    30A     -0.494160
      31A     -0.489555    32A     -0.481152    33A     -0.465037
      34A     -0.449154    35A     -0.440900    36A     -0.409506

  @DF-RHF Final Energy:  -387.11708026752700

   => Energetics <=

    Nuclear Repulsion Energy =            447.7352109528727055
    One-Electron Energy =               -1411.8176327840458271
    Two-Electron Energy =                 576.9653415636455520
    DFT Exchange-Correlation Energy =       0.0000000000000000
    Empirical Dispersion Energy =           0.0000000000000000
    PCM Polarization Energy =               0.0000000000000000
    EFP Energy =                            0.0000000000000000
    Total Energy =                       -387.1170802675276263
    Molecular point group: c1
  Basis Set: 6-31G*
  Basis Set:

  -Total Gradient:
     Atom            X                  Y                   Z
    ------   -----------------  -----------------  -----------------
       1        0.000000288084    -0.000000678767    -0.000000406081
       2       -0.000002885186     0.000000706594     0.000000751944
       3        0.000000334162    -0.000002025993    -0.000000479302
       4       -0.000000275685     0.000000481966     0.000001108795
       5       -0.000001940879     0.000000381044    -0.000000491147
       6        0.000001623290    -0.000001071984    -0.000001638206
       7        0.000001476701     0.000001177541     0.000001757113
       8       -0.000330106527    -0.000147667519    -0.000398201345
       9       -0.000001720358    -0.000001990115    -0.000002131987
      10       -0.000001590251     0.000000836574    -0.000003458202
      11        0.000646616575     0.000333518368     0.000563067994
      12        0.000001665715     0.000002441854    -0.000002902436
      13       -0.000002920480    -0.000000482239     0.000003496455
      14       -0.000837226786    -0.000663457127    -0.000188520477
      15       -0.000000207865     0.000002739494    -0.000000944258
      16       -0.000001068983    -0.000003886224     0.000002150926
      17       -0.000005146048     0.000006406517     0.000001313860
      18        0.000559170589     0.000449482857    -0.000003642858
      19       -0.000010834313     0.000013416373     0.000025947507
      20       -0.000022719750     0.000024525527     0.000011920449
      21        0.000018791440     0.000007819709    -0.000014824813
      22       -0.000015429977    -0.000021245622     0.000006029777
      23       -0.000012656507     0.000011038279    -0.000003936730
      24        0.000012963145     0.000001164554     0.000016117434
      25        0.000003799895    -0.000013631659    -0.000012084409

  **** Optimization is complete! (in 16 steps) ****
    Final optimized geometry and variables:
    Molecular point group: c1

    Geometry (in Angstrom), charge = 0, multiplicity = 1:

    H           -2.251472486641     1.801579818231    -1.869186845336
    C           -1.347590588295     2.274821378095    -1.465670211388
    C           -1.248495514348     2.280452821406     0.038634014056
    O           -0.538764308212     2.740819454847    -2.200864718901
    C           -1.435373404620     0.883008072101     0.645793245516
    H           -0.293704575760     2.711666357506     0.316563496028
    H           -2.032756532711     2.939600963322     0.408705333901
    C           -0.306150944615    -0.091090716114     0.296685715253
    H           -1.504612440451     0.983274492590     1.725217271497
    H           -2.388901709293     0.471887266251     0.318717667483
    C           -0.502075599332    -1.462194393159     0.950335765779
    H            0.636255394494     0.347423466570     0.607310670736
    H           -0.244331266323    -0.212634689984    -0.783242555744
    C            0.460140782486    -2.576268023162     0.509662652334
    H           -0.454934789725    -1.355839089330     2.032801976762
    H           -1.513575439842    -1.796975078266     0.727557743725
    C            1.897811606528    -2.515255751168     1.054415882023
    H            0.490344628616    -2.620557152253    -0.577745394939
    H            0.025405406284    -3.517353974758     0.836434431692
    C            2.863284320310    -1.597452916498     0.300097363407
    H            2.307549723951    -3.521676368888     1.022650496758
    H            1.873846464234    -2.237014966144     2.106238559974
    H            2.894631589557    -1.851738696809    -0.755626642586
    H            2.593431566009    -0.551467334520     0.378036973343
    H            3.870346690229    -1.702464847187     0.692518830962

  Mulliken Charges: (a.u.)
   Center  Symbol    Alpha    Beta     Spin     Total
       1     H     0.43260  0.43260  0.00000  0.13481
       2     C     2.83072  2.83072  0.00000  0.33856
       3     C     3.20813  3.20813  0.00000 -0.41625
       4     O     4.23778  4.23778  0.00000 -0.47556
       5     C     3.16667  3.16667  0.00000 -0.33334
       6     H     0.39992  0.39992  0.00000  0.20016
       7     H     0.40663  0.40663  0.00000  0.18673
       8     C     3.15654  3.15654  0.00000 -0.31308
       9     H     0.41285  0.41285  0.00000  0.17430
      10     H     0.41964  0.41964  0.00000  0.16071
      11     C     3.15334  3.15334  0.00000 -0.30667
      12     H     0.41586  0.41586  0.00000  0.16827
      13     H     0.41880  0.41880  0.00000  0.16240
      14     C     3.15531  3.15531  0.00000 -0.31062
      15     H     0.42258  0.42258  0.00000  0.15483
      16     H     0.42267  0.42267  0.00000  0.15466
      17     C     3.15355  3.15355  0.00000 -0.30711
      18     H     0.42237  0.42237  0.00000  0.15526
      19     H     0.41979  0.41979  0.00000  0.16042
      20     C     3.24089  3.24089  0.00000 -0.48178
      21     H     0.42042  0.42042  0.00000  0.15916
      22     H     0.42342  0.42342  0.00000  0.15316
      23     H     0.42073  0.42073  0.00000  0.15855
      24     H     0.41911  0.41911  0.00000  0.16178
      25     H     0.41967  0.41967  0.00000  0.16066

   Total alpha = 36.00000, Total beta = 36.00000, Total charge =  0.00000
