                              Psi4 1.0.54 Driver

  ==> Input File <==

--------------------------------------------------------------------------
set {
	reference rhf
	basis cc-pvtz
}

set_num_threads( 4 )
memory 2 gb

molecule MOL {
0 1

H	 1.053009	 1.829246	 -0.266700
O	 0.237489	 1.351646	 -0.283813
C	 0.489979	 0.078084	 0.002623
C	 -0.763662	 -0.754014	 0.000816
O	 1.581950	 -0.312346	 0.233001
C	 -2.038001	 0.074705	 -0.000833
H	 -0.712945	 -1.405886	 -0.864342
H	 -0.715137	 -1.405770	 0.866182
H	 -2.087267	 0.710831	 -0.874232
H	 -2.903419	 -0.576199	 -0.001922
H	 -2.089467	 0.710909	 0.872389

	symmetry c1
}
set optking {
	frozen_dihedral = ("
		2 3 4 7
	")
}

ee,wfn = optimize('scf', return_wfn=True)
oeprop( wfn, 'DIPOLE', 'QUADRUPOLE', 'MULLIKEN_CHARGES')
f=open( 'psi4out.xyz', 'w' )
f.write( "11  " )
f.write( str(ee) + "\n" )
f.write( MOL.save_string_xyz() )
f.close()
--------------------------------------------------------------------------

    Molecular point group: c1
  Charge       = 0
  Multiplicity = 1
  Basis Set: CC-PVTZ
  Basis Set:
  @DF-RHF Final Energy:  -266.94942889268384
    Total Energy =                       -266.9494288926840682
    Molecular point group: c1
  Basis Set: CC-PVTZ
  Basis Set:
  Basis Set: CC-PVTZ
  Basis Set:
  @DF-RHF Final Energy:  -266.95002656474378
    Total Energy =                       -266.9500265647437800
  Basis Set: CC-PVTZ
  Basis Set:
  Basis Set: CC-PVTZ
  Basis Set:
  @DF-RHF Final Energy:  -266.95053112109463
    Total Energy =                       -266.9505311210945138
  Basis Set: CC-PVTZ
  Basis Set:
  Basis Set: CC-PVTZ
  Basis Set:
  @DF-RHF Final Energy:  -266.95056188765489
    Total Energy =                       -266.9505618876549420
  Basis Set: CC-PVTZ
  Basis Set:
  Basis Set: CC-PVTZ
  Basis Set:
  @DF-RHF Final Energy:  -266.95057978074885
    Total Energy =                       -266.9505797807487966
  Basis Set: CC-PVTZ
  Basis Set:
  Charge       = 0
  Multiplicity = 1
  Basis Set: CC-PVTZ
  Basis Set:

    Orbital Energies (a.u.)
    -----------------------

    Doubly Occupied:

       1A    -20.607890     2A    -20.537243     3A    -11.374972
       4A    -11.243201     5A    -11.223393     6A     -1.479874
       7A     -1.368853     8A     -1.067476     9A     -0.910937
      10A     -0.826834    11A     -0.705990    12A     -0.677669
      13A     -0.663480    14A     -0.599158    15A     -0.589611
      16A     -0.556571    17A     -0.524973    18A     -0.518085
      19A     -0.474936    20A     -0.443345

  @DF-RHF Final Energy:  -266.95059949145070

   => Energetics <=

    Nuclear Repulsion Energy =            180.4036541109429379
    One-Electron Energy =                -721.9195249468543807
    Two-Electron Energy =                 274.5652713444607684
    DFT Exchange-Correlation Energy =       0.0000000000000000
    Empirical Dispersion Energy =           0.0000000000000000
    PCM Polarization Energy =               0.0000000000000000
    EFP Energy =                            0.0000000000000000
    Total Energy =                       -266.9505994914506459
    Molecular point group: c1
  Basis Set: CC-PVTZ
  Basis Set:

  -Total Gradient:
     Atom            X                  Y                   Z
    ------   -----------------  -----------------  -----------------
       1       -0.000014319192    -0.000039729731     0.000006249868
       2       -0.000055043313     0.000202494891     0.000370586834
       3        0.000102754287    -0.000277085976    -0.000429938371
       4       -0.000208491743     0.000492792172    -0.000212770599
       5       -0.000000365387    -0.000022486446    -0.000015638130
       6       -0.000020153204    -0.000001011738     0.000009052927
       7        0.000201079188    -0.000348260083     0.000281611886
       8       -0.000005837707     0.000009426955    -0.000005237137
       9        0.000001838348    -0.000005852105     0.000006670233
      10       -0.000003200680    -0.000004055792    -0.000001796480
      11        0.000001739403    -0.000006232146    -0.000008791029

  **** Optimization is complete! (in 6 steps) ****
    Final optimized geometry and variables:
    Molecular point group: c1

    Geometry (in Angstrom), charge = 0, multiplicity = 1:

    H            1.349486076241     1.555888781895    -0.418827700885
    O            0.475150278347     1.200327811387    -0.361006938385
    C            0.569920943743    -0.075112892663    -0.006143604736
    C           -0.756701336444    -0.786304272594     0.102871750591
    O            1.613933619480    -0.596280644427     0.189465760806
    C           -2.002065994955     0.090161663854     0.114423648090
    H           -0.784142008530    -1.483481950987    -0.728060879703
    H           -0.694801812824    -1.393969929831     0.996116667351
    H           -2.092691683146     0.663414486173    -0.797870427762
    H           -2.883508294910    -0.531150700933     0.213288236918
    H           -1.987400793435     0.785839554375     0.943688839872

  Mulliken Charges: (a.u.)
   Center  Symbol    Alpha    Beta     Spin     Total
       1     H     0.38322  0.38322  0.00000  0.23356
       2     O     4.15284  4.15284  0.00000 -0.30569
       3     C     2.80621  2.80621  0.00000  0.38758
       4     C     3.09658  3.09658  0.00000 -0.19316
       5     O     4.19768  4.19768  0.00000 -0.39536
       6     C     3.14202  3.14202  0.00000 -0.28405
       7     H     0.44024  0.44024  0.00000  0.11952
       8     H     0.43521  0.43521  0.00000  0.12957
       9     H     0.44759  0.44759  0.00000  0.10483
      10     H     0.44908  0.44908  0.00000  0.10185
      11     H     0.44932  0.44932  0.00000  0.10135

   Total alpha = 20.00000, Total beta = 20.00000, Total charge = -0.00000

*** Psi4 exiting successfully. Buy a developer a beer!
