                              Psi4 1.0.54 Driver

  ==> Input File <==

--------------------------------------------------------------------------
set {
	reference rhf
	basis cc-pvtz
}

set_num_threads( 4 )
memory 2 gb

molecule MOL {
0 1

H	 2.614283	 2.028610	 0.296620
O	 3.358864	 1.662087	 -0.142800
C	 3.565468	 0.338079	 0.273842
C	 2.825829	 -0.686686	 -0.573199
H	 4.631032	 0.167818	 0.199258
H	 3.293456	 0.223070	 1.321331
C	 1.304328	 -0.598875	 -0.477428
H	 3.134739	 -0.567595	 -1.607389
H	 3.149481	 -1.676062	 -0.258904
C	 0.596930	 -1.663473	 -1.314719
H	 0.981131	 0.386102	 -0.797378
H	 1.002261	 -0.704750	 0.563164
C	 -0.928402	 -1.669228	 -1.198175
H	 0.876572	 -1.540817	 -2.358263
H	 0.967626	 -2.640045	 -1.015789
C	 -1.625907	 -0.440553	 -1.779197
H	 -1.305688	 -2.552732	 -1.705722
H	 -1.207634	 -1.780455	 -0.152798
C	 -3.148501	 -0.538401	 -1.728773
H	 -1.310576	 -0.304791	 -2.811478
H	 -1.314836	 0.452766	 -1.246075
C	 -3.848062	 0.688323	 -2.304669
H	 -3.469239	 -1.423347	 -2.271520
H	 -3.464668	 -0.682550	 -0.699054
H	 -3.577300	 0.841269	 -3.344156
H	 -4.926063	 0.585127	 -2.255977
H	 -3.577254	 1.586115	 -1.758790

	symmetry c1
}
set optking {
	frozen_dihedral = ("
		4 3 2 1
	")
}

ee,wfn = optimize('scf', return_wfn=True)
oeprop( wfn, 'DIPOLE', 'QUADRUPOLE', 'MULLIKEN_CHARGES')
f=open( 'psi4out.xyz', 'w' )
f.write( "27  " )
f.write( str(ee) + "\n" )
f.write( MOL.save_string_xyz() )
f.close()
--------------------------------------------------------------------------

    Molecular point group: c1
  Charge       = 0
  Multiplicity = 1
  Basis Set: CC-PVTZ
  Basis Set:
  @DF-RHF Final Energy:  -388.42747561382595
    Total Energy =                       -388.4274756138262319
    Molecular point group: c1
  Basis Set: CC-PVTZ
  Basis Set:
  Basis Set: CC-PVTZ
  Basis Set:
  @DF-RHF Final Energy:  -388.42751248060102
    Total Energy =                       -388.4275124806015356
  Basis Set: CC-PVTZ
  Basis Set:
  Basis Set: CC-PVTZ
  Basis Set:
  @DF-RHF Final Energy:  -388.42752581126325
    Total Energy =                       -388.4275258112627398
  Basis Set: CC-PVTZ
  Basis Set:
  Basis Set: CC-PVTZ
  Basis Set:
  @DF-RHF Final Energy:  -388.42752727573082
    Total Energy =                       -388.4275272757315633
  Basis Set: CC-PVTZ
  Basis Set:
  Charge       = 0
  Multiplicity = 1
  Basis Set: CC-PVTZ
  Basis Set:

    Orbital Energies (a.u.)
    -----------------------

    Doubly Occupied:

       1A    -20.545603     2A    -11.265509     3A    -11.213482
       4A    -11.212789     5A    -11.212594     6A    -11.211664
       7A    -11.211399     8A    -11.210333     9A    -11.206349
      10A     -1.363088    11A     -1.094426    12A     -1.061216
      13A     -1.011643    14A     -0.948238    15A     -0.886785
      16A     -0.818286    17A     -0.799949    18A     -0.776465
      19A     -0.701706    20A     -0.650676    21A     -0.635953
      22A     -0.617938    23A     -0.596800    24A     -0.582879
      25A     -0.580596    26A     -0.550190    27A     -0.541231
      28A     -0.530882    29A     -0.506311    30A     -0.491071
      31A     -0.483562    32A     -0.472438    33A     -0.468828
      34A     -0.460206    35A     -0.453559    36A     -0.442479
      37A     -0.423008

  @DF-RHF Final Energy:  -388.42752758604104

   => Energetics <=

    Nuclear Repulsion Energy =            460.2283385916197176
    One-Electron Energy =               -1438.8314727552910881
    Two-Electron Energy =                 590.1756065776297646
    DFT Exchange-Correlation Energy =       0.0000000000000000
    Empirical Dispersion Energy =           0.0000000000000000
    PCM Polarization Energy =               0.0000000000000000
    EFP Energy =                            0.0000000000000000
    Total Energy =                       -388.4275275860416059
    Molecular point group: c1
  Basis Set: CC-PVTZ
  Basis Set:

  -Total Gradient:
     Atom            X                  Y                   Z
    ------   -----------------  -----------------  -----------------
       1        0.000511035845     0.000312570626     0.000645740199
       2       -0.000432290270    -0.000396883416    -0.000911978776
       3       -0.000507403960     0.000137548120     0.000582918288
       4        0.000443664386    -0.000081462645    -0.000310568416
       5       -0.000003109503     0.000016103126     0.000001945451
       6        0.000000352087     0.000008518645    -0.000002934856
       7        0.000003462475    -0.000008343238     0.000005892252
       8        0.000005332871     0.000007613254     0.000009108609
       9       -0.000003274707    -0.000009081324    -0.000011019112
      10       -0.000003863751     0.000016609152    -0.000019812229
      11       -0.000006271495    -0.000006179827    -0.000001111751
      12        0.000002049819    -0.000001519575     0.000001094073
      13       -0.000000569105     0.000006891936     0.000017217955
      14        0.000007836278    -0.000012149780    -0.000005001315
      15        0.000000829827     0.000012948463     0.000011375974
      16       -0.000010021363     0.000003307248     0.000002291385
      17        0.000003926379     0.000007610242    -0.000004846372
      18       -0.000005104334    -0.000010665172     0.000001443231
      19        0.000001740722     0.000003236090    -0.000001908538
      20       -0.000003260864     0.000000805347    -0.000004300147
      21       -0.000006272349    -0.000007739344    -0.000004425558
      22       -0.000000194886    -0.000000082412    -0.000000241295
      23        0.000000082794    -0.000000549739    -0.000000166646
      24        0.000001851632    -0.000000388007    -0.000000674100
      25       -0.000000341513     0.000000191916    -0.000000330504
      26       -0.000000156120     0.000000315023     0.000000120617
      27       -0.000000030892     0.000000775294     0.000000171581

  **** Optimization is complete! (in 5 steps) ****
    Final optimized geometry and variables:
    Molecular point group: c1

    Geometry (in Angstrom), charge = 0, multiplicity = 1:

    H            2.322480792270     2.309689329216     1.256362677957
    O            3.070287787460     1.940091581514     0.826777523821
    C            3.293716067393     0.626789472886     1.273688753325
    C            2.560237446710    -0.413061641117     0.441086985550
    H            4.360477235091     0.457314453239     1.203968971888
    H            3.021526924384     0.530043478108     2.322075441252
    C            1.039200304956    -0.324695907803     0.532897657608
    H            2.870959370695    -0.303790098403    -0.593552081532
    H            2.887988581354    -1.397607240698     0.766745446763
    C            0.332337473265    -1.389154910408    -0.304644001715
    H            0.722901616804     0.661976040021     0.213976907467
    H            0.735164221440    -0.430573882575     1.573134098716
    C           -1.192745701186    -1.398054664469    -0.184823700369
    H            0.609217726711    -1.263902023201    -1.348634252167
    H            0.705254343383    -2.365938834390    -0.008862880573
    C           -1.893114644197    -0.166634845925    -0.756378646589
    H           -1.570265488400    -2.278702464914    -0.697154511599
    H           -1.469582654207    -1.516322259584     0.860432520845
    C           -3.415392238873    -0.265383821380    -0.700874641045
    H           -1.581720725495    -0.025216517366    -1.789031884053
    H           -1.580048071430     0.723781212393    -0.219829531720
    C           -4.117675790834     0.964226923663    -1.267123067301
    H           -3.737945719111    -1.147360737172    -1.247371418168
    H           -3.727683994015    -0.415471860617     0.329164926360
    H           -3.851435846726     1.122762734356    -2.306905902157
    H           -5.195447614326     0.860728869772    -1.214307632856
    H           -3.844461944954     1.859120765216    -0.717741642911

  Mulliken Charges: (a.u.)
   Center  Symbol    Alpha    Beta     Spin     Total
       1     H     0.39136  0.39136  0.00000  0.21728
       2     O     4.20695  4.20695  0.00000 -0.41389
       3     C     2.98398  2.98398  0.00000  0.03204
       4     C     3.08323  3.08323  0.00000 -0.16647
       5     H     0.44942  0.44942  0.00000  0.10116
       6     H     0.46852  0.46852  0.00000  0.06295
       7     C     3.10287  3.10287  0.00000 -0.20573
       8     H     0.45191  0.45191  0.00000  0.09617
       9     H     0.45516  0.45516  0.00000  0.08967
      10     C     3.09840  3.09840  0.00000 -0.19680
      11     H     0.45219  0.45219  0.00000  0.09563
      12     H     0.45626  0.45626  0.00000  0.08748
      13     C     3.09806  3.09806  0.00000 -0.19611
      14     H     0.45191  0.45191  0.00000  0.09617
      15     H     0.44873  0.44873  0.00000  0.10254
      16     C     3.08762  3.08762  0.00000 -0.17523
      17     H     0.44829  0.44829  0.00000  0.10342
      18     H     0.45424  0.45424  0.00000  0.09152
      19     C     3.08400  3.08400  0.00000 -0.16801
      20     H     0.45418  0.45418  0.00000  0.09164
      21     H     0.45506  0.45506  0.00000  0.08988
      22     C     3.14959  3.14959  0.00000 -0.29918
      23     H     0.45393  0.45393  0.00000  0.09214
      24     H     0.45495  0.45495  0.00000  0.09010
      25     H     0.45486  0.45486  0.00000  0.09029
      26     H     0.44850  0.44850  0.00000  0.10300
      27     H     0.45583  0.45583  0.00000  0.08833

   Total alpha = 37.00000, Total beta = 37.00000, Total charge = -0.00000

*** Psi4 exiting successfully. Buy a developer a beer!
