  ==> Input File <==

--------------------------------------------------------------------------
set {
	reference rhf
	basis 6-31G*
}

set_num_threads( 1 )
memory 2 gb

molecule MOL {
0 1

H	 -0.127094	 7.053262	 1.359990
C	 -1.101874	 6.584630	 1.266661
C	 -0.978591	 5.151231	 0.751544
H	 -1.574905	 6.607771	 2.243926
H	 -1.699367	 7.194826	 0.594751
C	 -2.337000	 4.462711	 0.601606
H	 -0.355822	 4.578580	 1.431125
H	 -0.470404	 5.157776	 -0.211469
C	 -2.246719	 3.032030	 0.070318
H	 -2.846707	 4.451597	 1.558537
H	 -2.955594	 5.042035	 -0.080132
C	 -1.669635	 2.031013	 1.060360
H	 -3.241478	 2.672961	 -0.189094
H	 -1.671398	 2.995556	 -0.852098
C	 -1.181045	 0.701995	 0.511084
O	 -1.616576	 2.267210	 2.229890
C	 -2.285934	 -0.139295	 -0.145128
H	 -0.739595	 0.160166	 1.338887
H	 -0.395853	 0.896370	 -0.217186
C	 -3.651768	 0.085446	 0.506485
H	 -2.346596	 0.110469	 -1.202272
H	 -2.034737	 -1.195320	 -0.088721
C	 -4.759797	 -0.746382	 -0.137905
H	 -3.908762	 1.140117	 0.445781
H	 -3.588286	 -0.154158	 1.565709
H	 -4.868882	 -0.505166	 -1.191300
H	 -4.548009	 -1.809175	 -0.062213
H	 -5.715422	 -0.564821	 0.343442

	symmetry c1
}
set optking {
	frozen_dihedral = ("
		10 6 3 2,
		16 12 15 17
	")
}

ee = energy('scf')
oeprop('DIPOLE', 'QUADRUPOLE', 'MULLIKEN_CHARGES')
f=open( 'psi4out.xyz', 'w' )
f.write( "28  " )
f.write( str(ee) + "\n" )
f.write( MOL.save_string_xyz() )
f.close()
--------------------------------------------------------------------------

    Molecular point group: c1

    Geometry (in Angstrom), charge = 0, multiplicity = 1:

       Center              X                  Y                   Z               Mass
    ------------   -----------------  -----------------  -----------------  -----------------
           H          2.066804444735     4.700580271111     0.682271927365     1.007825032070
           C          1.092024444735     4.231948271111     0.588942927365    12.000000000000
           C          1.215307444735     2.798549271111     0.073825927365    12.000000000000
           H          0.618993444735     4.255089271111     1.566207927365     1.007825032070
           H          0.494531444735     4.842144271111    -0.082967072635     1.007825032070
           C         -0.143101555265     2.110029271111    -0.076112072635    12.000000000000
           H          1.838076444735     2.225898271111     0.753406927365     1.007825032070
           H          1.723494444735     2.805094271111    -0.889187072635     1.007825032070
           C         -0.052820555265     0.679348271111    -0.607400072635    12.000000000000
           H         -0.652808555265     2.098915271111     0.880818927365     1.007825032070
           H         -0.761695555265     2.689353271111    -0.757850072635     1.007825032070
           C          0.524263444735    -0.321668728889     0.382641927365    12.000000000000
           H         -1.047579555265     0.320279271111    -0.866812072635     1.007825032070
           H          0.522500444735     0.642874271111    -1.529816072635     1.007825032070
           C          1.012853444735    -1.650686728889    -0.166634072635    12.000000000000
           O          0.577322444735    -0.085471728889     1.552171927365    15.994914619560
           C         -0.092035555265    -2.491976728889    -0.822846072635    12.000000000000
           H          1.454303444735    -2.192515728889     0.661168927365     1.007825032070
           H          1.798045444735    -1.456311728889    -0.894904072635     1.007825032070
           C         -1.457869555265    -2.267235728889    -0.171233072635    12.000000000000
           H         -0.152697555265    -2.242212728889    -1.879990072635     1.007825032070
           H          0.159161444735    -3.548001728889    -0.766439072635     1.007825032070
           C         -2.565898555265    -3.099063728889    -0.815623072635    12.000000000000
           H         -1.714863555265    -1.212564728889    -0.231937072635     1.007825032070
           H         -1.394387555265    -2.506839728889     0.887990927365     1.007825032070
           H         -2.674983555265    -2.857847728889    -1.869018072635     1.007825032070
           H         -2.354110555265    -4.161856728889    -0.739931072635     1.007825032070
           H         -3.521523555265    -2.917502728889    -0.334276072635     1.007825032070

  Charge       = 0
  Multiplicity = 1
  Basis Set: 6-31G*
  Basis Set:

    Orbital Energies (a.u.)
    -----------------------

    Doubly Occupied:

       1A    -20.549036     2A    -11.322365     3A    -11.231277
       4A    -11.229145     5A    -11.227971     6A    -11.222888
       7A    -11.216694     8A    -11.215309     9A    -11.212416
      10A    -11.205789    11A     -1.394093    12A     -1.098183
      13A     -1.076425    14A     -1.018732    15A     -0.992428
      16A     -0.905641    17A     -0.877293    18A     -0.815447
      19A     -0.795812    20A     -0.719671    21A     -0.660871
      22A     -0.658905    23A     -0.633414    24A     -0.618909
      25A     -0.609550    26A     -0.583211    27A     -0.580910
      28A     -0.574969    29A     -0.552991    30A     -0.533596
      31A     -0.515076    32A     -0.506417    33A     -0.501956
      34A     -0.489731    35A     -0.477845    36A     -0.469190
      37A     -0.467229    38A     -0.462705    39A     -0.451926
      40A     -0.393907

  @DF-RHF Final Energy:  -426.15914105840591

   => Energetics <=

    Nuclear Repulsion Energy =            548.2580814969313678
    One-Electron Energy =               -1664.6948428516975582
    Two-Electron Energy =                 690.2776202963603964
    DFT Exchange-Correlation Energy =       0.0000000000000000
    Empirical Dispersion Energy =           0.0000000000000000
    PCM Polarization Energy =               0.0000000000000000
    EFP Energy =                            0.0000000000000000
    Total Energy =                       -426.1591410584056803

  Mulliken Charges: (a.u.)
   Center  Symbol    Alpha    Beta     Spin     Total
       1     H     0.41934  0.41934  0.00000  0.16133
       2     C     3.24013  3.24013  0.00000 -0.48026
       3     C     3.15628  3.15628  0.00000 -0.31256
       4     H     0.41835  0.41835  0.00000  0.16330
       5     H     0.42364  0.42364  0.00000  0.15273
       6     C     3.14883  3.14883  0.00000 -0.29767
       7     H     0.41055  0.41055  0.00000  0.17891
       8     H     0.42759  0.42759  0.00000  0.14482
       9     C     3.21350  3.21350  0.00000 -0.42701
      10     H     0.40669  0.40669  0.00000  0.18662
      11     H     0.42203  0.42203  0.00000  0.15594
      12     C     2.73654  2.73654  0.00000  0.52692
      13     H     0.39929  0.39929  0.00000  0.20141
      14     H     0.41299  0.41299  0.00000  0.17403
      15     C     3.19980  3.19980  0.00000 -0.39960
      16     O     4.26664  4.26664  0.00000 -0.53328
      17     C     3.15981  3.15981  0.00000 -0.31961
      18     H     0.39973  0.39973  0.00000  0.20055
      19     H     0.41051  0.41051  0.00000  0.17897
      20     C     3.16426  3.16426  0.00000 -0.32851
      21     H     0.41997  0.41997  0.00000  0.16006
      22     H     0.41188  0.41188  0.00000  0.17625
      23     C     3.23857  3.23857  0.00000 -0.47714
      24     H     0.42291  0.42291  0.00000  0.15419
      25     H     0.41140  0.41140  0.00000  0.17721
      26     H     0.42212  0.42212  0.00000  0.15576
      27     H     0.42016  0.42016  0.00000  0.15967
      28     H     0.41650  0.41650  0.00000  0.16700

   Total alpha = 40.00000, Total beta = 40.00000, Total charge = -0.00000
