  ==> Input File <==

--------------------------------------------------------------------------
set {
	reference rhf
	basis 6-31G*
}

set_num_threads( 4 )
memory 2 gb

molecule MOL {
0 1

H	 3.276176	 0.174363	 -0.109463
N	 2.434251	 -0.367735	 -0.081097
C	 1.267428	 0.496480	 0.024474
H	 2.501951	 -0.965776	 0.720575
C	 -0.016086	 -0.325158	 -0.029487
H	 1.288818	 1.183521	 -0.816092
H	 1.267576	 1.109062	 0.929528
C	 -1.282277	 0.529072	 0.046735
H	 -0.012495	 -0.908639	 -0.945788
H	 -0.015903	 -1.041248	 0.791956
C	 -0.988784	 2.003955	 0.319290
H	 -1.931805	 0.141584	 0.829009
H	 -1.838754	 0.439236	 -0.883974
H	 -0.463282	 2.130703	 1.261364
H	 -1.904539	 2.584762	 0.370052
H	 -0.368906	 2.431280	 -0.463887

	symmetry c1
}
set optking {
	frozen_dihedral = ("
		12 8 5 9
	")
}

ee = optimize('scf')
oeprop('DIPOLE', 'QUADRUPOLE', 'MULLIKEN_CHARGES')
f=open( 'psi4out.xyz', 'w' )
f.write( "16  " )
f.write( str(ee) + "\n" )
f.write( MOL.save_string_xyz() )
f.close()
--------------------------------------------------------------------------

    Molecular point group: c1
  Charge       = 0
  Multiplicity = 1
  Basis Set: 6-31G*
  Basis Set:
  @DF-RHF Final Energy:  -212.30286256368947
    Total Energy =                       -212.3028625636894731
    Molecular point group: c1
  Basis Set: 6-31G*
  Basis Set:
  Basis Set: 6-31G*
  Basis Set:
  @DF-RHF Final Energy:  -212.30296968292964
    Total Energy =                       -212.3029696829297563
  Basis Set: 6-31G*
  Basis Set:
  Basis Set: 6-31G*
  Basis Set:
  @DF-RHF Final Energy:  -212.30667344928457
    Total Energy =                       -212.3066734492844034
  Basis Set: 6-31G*
  Basis Set:
  Basis Set: 6-31G*
  Basis Set:
  @DF-RHF Final Energy:  -212.30722915852959
    Total Energy =                       -212.3072291585295943
  Basis Set: 6-31G*
  Basis Set:
  @DF-RHF Final Energy:  -212.30724437451275
    Total Energy =                       -212.3072443745128339
  Basis Set: 6-31G*
  Basis Set:
  @DF-RHF Final Energy:  -212.30731125255699
    Total Energy =                       -212.3073112525569854
  Basis Set: 6-31G*
  Basis Set:
  Basis Set: 6-31G*
  Basis Set:
  @DF-RHF Final Energy:  -212.30731214933829
    Total Energy =                       -212.3073121493383155
  Basis Set: 6-31G*
  Basis Set:
  Basis Set: 6-31G*
  Basis Set:
  @DF-RHF Final Energy:  -212.30731540439390
    Total Energy =                       -212.3073154043938189
  Basis Set: 6-31G*
  Basis Set:
  Charge       = 0
  Multiplicity = 1
  Basis Set: 6-31G*
  Basis Set:

    Orbital Energies (a.u.)
    -----------------------

    Doubly Occupied:

       1A    -15.532179     2A    -11.239221     3A    -11.215687
       4A    -11.210016     5A    -11.208932     6A     -1.176351
       7A     -1.053412     8A     -0.954074     9A     -0.863660
      10A     -0.773378    11A     -0.659789    12A     -0.637681
      13A     -0.615573    14A     -0.575651    15A     -0.546213
      16A     -0.533009    17A     -0.515574    18A     -0.466505
      19A     -0.461715    20A     -0.449951    21A     -0.380472

  @DF-RHF Final Energy:  -212.30731551399802

   => Energetics <=

    Nuclear Repulsion Energy =            188.8793281846012349
    One-Electron Energy =                -660.2352065876409597
    Two-Electron Energy =                 259.0485628890418184
    DFT Exchange-Correlation Energy =       0.0000000000000000
    Empirical Dispersion Energy =           0.0000000000000000
    PCM Polarization Energy =               0.0000000000000000
    EFP Energy =                            0.0000000000000000
    Total Energy =                       -212.3073155139978780
    Molecular point group: c1
  Basis Set: 6-31G*
  Basis Set:

  -Total Gradient:
     Atom            X                  Y                   Z
    ------   -----------------  -----------------  -----------------
       1        0.000001311798     0.000000451710     0.000005022972
       2        0.000005614801    -0.000004320157     0.000014743356
       3        0.000001489199    -0.000001717969    -0.000071032895
       4        0.000007011388    -0.000005782322     0.000001531971
       5       -0.000985554616    -0.001635087027     0.001525774818
       6        0.000008693631    -0.000006670815     0.000010238994
       7       -0.000007421294    -0.000002916689     0.000008946036
       8       -0.000871967790    -0.001172905971    -0.001894902853
       9        0.000978682135     0.001569030986    -0.000986308000
      10       -0.000008129176    -0.000003901020     0.000003971848
      11       -0.000004259324     0.000001107344    -0.000003537135
      12        0.000889233233     0.001264726389     0.001377056575
      13       -0.000004305273    -0.000000217695     0.000005651848
      14       -0.000008153687    -0.000000165242     0.000005085960
      15       -0.000000201170    -0.000000788887    -0.000009027728
      16       -0.000002043852    -0.000000842632     0.000006784233

  **** Optimization is complete! (in 9 steps) ****
    Final optimized geometry and variables:
    Molecular point group: c1

    Geometry (in Angstrom), charge = 0, multiplicity = 1:

    H            3.003931054929    -0.450172189102    -0.207891966332
    N            2.128263455466    -0.936020155672    -0.178727957283
    C            1.023494185669     0.003461140550    -0.039123000778
    H            2.166399793976    -1.553338956049     0.610301310253
    C           -0.301105379960    -0.759584764132    -0.075391971816
    H            1.076703144047     0.692747101079    -0.874997791030
    H            1.090741361850     0.602793399877     0.869505747390
    C           -1.601796759176     0.087025426273    -0.011666228892
    H           -0.291100477329    -1.343364328980    -0.989178706623
    H           -0.296973229450    -1.475604686866     0.743324652263
    C           -1.445007149367     1.588783722515     0.254888630619
    H           -2.241159308144    -0.313468271599     0.769434163000
    H           -2.149223988785    -0.035076989087    -0.941087893686
    H           -0.975654692595     1.784671591898     1.213587503205
    H           -2.421528795615     2.063135723253     0.269121525328
    H           -0.856560357203     2.082531515200    -0.511307011544

  Mulliken Charges: (a.u.)
   Center  Symbol    Alpha    Beta     Spin     Total
       1     H     0.33243  0.33243  0.00000  0.33514
       2     N     3.92230  3.92230  0.00000 -0.84460
       3     C     3.06348  3.06348  0.00000 -0.12697
       4     H     0.33560  0.33560  0.00000  0.32881
       5     C     3.15667  3.15667  0.00000 -0.31334
       6     H     0.42015  0.42015  0.00000  0.15971
       7     H     0.43266  0.43266  0.00000  0.13469
       8     C     3.15756  3.15756  0.00000 -0.31513
       9     H     0.40967  0.40967  0.00000  0.18066
      10     H     0.42579  0.42579  0.00000  0.14842
      11     C     3.24395  3.24395  0.00000 -0.48791
      12     H     0.42035  0.42035  0.00000  0.15930
      13     H     0.41880  0.41880  0.00000  0.16239
      14     H     0.42130  0.42130  0.00000  0.15739
      15     H     0.41869  0.41869  0.00000  0.16261
      16     H     0.42059  0.42059  0.00000  0.15882

   Total alpha = 21.00000, Total beta = 21.00000, Total charge =  0.00000
