                              Psi4 1.0.54 Driver

  ==> Input File <==

--------------------------------------------------------------------------
set {
	reference rhf
	basis cc-pvtz
}

set_num_threads( 4 )
memory 2 gb

molecule MOL {
0 1

O	 1.275986	 1.135713	 0.690721
C	 0.860843	 0.273204	 -0.013120
C	 -0.623368	 -0.117453	 -0.005652
C	 1.809959	 -0.466221	 -0.935320
C	 -0.892588	 -1.253841	 -1.002900
C	 -1.473463	 1.100646	 -0.372896
C	 -0.981836	 -0.579025	 1.418506
H	 -0.609333	 -0.970024	 -2.010649
H	 -1.950451	 -1.487353	 -1.013175
H	 -0.360848	 -2.161259	 -0.746463
H	 -1.232203	 1.461623	 -1.364827
H	 -2.524364	 0.834451	 -0.354500
H	 -1.312381	 1.914833	 0.318657
H	 -2.035706	 -0.826342	 1.468082
H	 -0.425078	 -1.458934	 1.716857
H	 -0.788494	 0.205047	 2.140903
H	 1.699708	 -0.081041	 -1.942913
H	 2.822153	 -0.289451	 -0.605646
H	 1.612393	 -1.528793	 -0.969093

	symmetry c1
}
set optking {
	frozen_dihedral = ("
		1 2 3 5
	")
}

ee,wfn = optimize('scf', return_wfn=True)
oeprop( wfn, 'DIPOLE', 'QUADRUPOLE', 'MULLIKEN_CHARGES')
f=open( 'psi4out.xyz', 'w' )
f.write( "19  " )
f.write( str(ee) + "\n" )
f.write( MOL.save_string_xyz() )
f.close()
--------------------------------------------------------------------------

    Molecular point group: c1
  Charge       = 0
  Multiplicity = 1
  Basis Set: CC-PVTZ
  Basis Set:
  @DF-RHF Final Energy:  -309.17073117819905
    Total Energy =                       -309.1707311781991621
    Molecular point group: c1
  Basis Set: CC-PVTZ
  Basis Set:
  Basis Set: CC-PVTZ
  Basis Set:
  @DF-RHF Final Energy:  -309.17132871974297
    Total Energy =                       -309.1713287197428599
  Basis Set: CC-PVTZ
  Basis Set:
  Basis Set: CC-PVTZ
  Basis Set:
  @DF-RHF Final Energy:  -309.17127157314769
    Total Energy =                       -309.1712715731480330
  Basis Set: CC-PVTZ
  Basis Set:
  Basis Set: CC-PVTZ
  Basis Set:
  @DF-RHF Final Energy:  -309.17244244237986
    Total Energy =                       -309.1724424423797473
  Basis Set: CC-PVTZ
  Basis Set:
  @DF-RHF Final Energy:  -309.14963187751033
    Total Energy =                       -309.1496318775105010
  @DF-RHF Final Energy:  -309.16874707094530
    Total Energy =                       -309.1687470709454146
  @DF-RHF Final Energy:  -309.16991319777827
    Total Energy =                       -309.1699131977783850
  @DF-RHF Final Energy:  -309.17278753197428
    Total Energy =                       -309.1727875319744498
  @DF-RHF Final Energy:  -309.17292248809412
    Total Energy =                       -309.1729224880942866
  Basis Set: CC-PVTZ
  Basis Set:
  @DF-RHF Final Energy:  -309.17291527115901
    Total Energy =                       -309.1729152711588995
  Basis Set: CC-PVTZ
  Basis Set:
  Basis Set: CC-PVTZ
  Basis Set:
  @DF-RHF Final Energy:  -309.17291179323462
    Total Energy =                       -309.1729117932349027
  Basis Set: CC-PVTZ
  Basis Set:
  Basis Set: CC-PVTZ
  Basis Set:
  @DF-RHF Final Energy:  -309.17293200377730
    Total Energy =                       -309.1729320037773050
  Basis Set: CC-PVTZ
  Basis Set:
  Charge       = 0
  Multiplicity = 1
  Basis Set: CC-PVTZ
  Basis Set:

    Orbital Energies (a.u.)
    -----------------------

    Doubly Occupied:

       1A    -20.536276     2A    -11.318606     3A    -11.245473
       4A    -11.226183     5A    -11.219745     6A    -11.214192
       7A    -11.214174     8A     -1.398307     9A     -1.108772
      10A     -1.004893    11A     -0.941801    12A     -0.940420
      13A     -0.833853    14A     -0.705723    15A     -0.666859
      16A     -0.633518    17A     -0.624321    18A     -0.588176
      19A     -0.585710    20A     -0.574341    21A     -0.553300
      22A     -0.546790    23A     -0.522901    24A     -0.515380
      25A     -0.502925    26A     -0.472629    27A     -0.462316
      28A     -0.393793

  @DF-RHF Final Energy:  -309.17293179922632

   => Energetics <=

    Nuclear Repulsion Energy =            326.7625019314949100
    One-Electron Energy =               -1066.7681119946430499
    Two-Electron Energy =                 430.8326782639218209
    DFT Exchange-Correlation Energy =       0.0000000000000000
    Empirical Dispersion Energy =           0.0000000000000000
    PCM Polarization Energy =               0.0000000000000000
    EFP Energy =                            0.0000000000000000
    Total Energy =                       -309.1729317992263759
    Molecular point group: c1
  Basis Set: CC-PVTZ
  Basis Set:

  -Total Gradient:
     Atom            X                  Y                   Z
    ------   -----------------  -----------------  -----------------
       1        0.000033844005     0.000010014300     0.000042879946
       2       -0.000075587558     0.000112574890    -0.000035321281
       3        0.000050259187    -0.000053721984     0.000002736521
       4        0.000037530019    -0.000104289922     0.000064845527
       5       -0.000011050536    -0.000038870052     0.000010340396
       6        0.000013360076    -0.000010528140     0.000016664009
       7       -0.000018582423    -0.000003036896    -0.000015382268
       8        0.000017138822    -0.000010433053     0.000024737074
       9        0.000034761340     0.000000031969    -0.000032151547
      10       -0.000034160859     0.000018153388    -0.000004061567
      11       -0.000016451233     0.000008620662    -0.000023663726
      12       -0.000016461447    -0.000010986342     0.000037575060
      13        0.000034946417     0.000043037274    -0.000030189894
      14       -0.000004067578     0.000005738512     0.000007419177
      15       -0.000008200608    -0.000018444614    -0.000001339170
      16        0.000002715440    -0.000005970849    -0.000020130540
      17       -0.000024368682     0.000025580958    -0.000026058843
      18       -0.000017034651     0.000000709644     0.000002515982
      19        0.000001410270     0.000031820257    -0.000021414858

  **** Optimization is complete! (in 13 steps) ****
    Final optimized geometry and variables:
    Molecular point group: c1

    Geometry (in Angstrom), charge = 0, multiplicity = 1:

    O            1.466719475166     1.012297395212     0.406986056485
    C            0.841948309865     0.234681061805    -0.239530991928
    C           -0.586780592150    -0.140867543414     0.197778044309
    C            1.450735541975    -0.378167674300    -1.480614368412
    C           -1.269050301965    -1.152198333569    -0.729687873927
    C           -1.409430546843     1.156197089697     0.232253860243
    C           -0.491054244746    -0.730203457529     1.613263303399
    H           -1.371522948514    -0.775788913136    -1.740302724212
    H           -2.265680430981    -1.363723147085    -0.361360906388
    H           -0.734312058097    -2.093342439601    -0.772587153599
    H           -1.490398209938     1.598054498417    -0.755629845646
    H           -2.413385898772     0.949890389419     0.585479545272
    H           -0.953382215408     1.882809426870     0.889041312299
    H           -1.481443321988    -0.968843215507     1.983892615080
    H            0.094266779074    -1.643972482366     1.621149686837
    H           -0.027344529092    -0.028062644120     2.290902632211
    H            0.855448190101    -0.143460359288    -2.354950967199
    H            2.449013005729     0.010687688234    -1.607008551658
    H            1.488052696716    -1.457591881183    -1.397211069166

  Mulliken Charges: (a.u.)
   Center  Symbol    Alpha    Beta     Spin     Total
       1     O     4.18181  4.18181  0.00000 -0.36361
       2     C     2.84546  2.84546  0.00000  0.30908
       3     C     3.00573  3.00573  0.00000 -0.01147
       4     C     3.16196  3.16196  0.00000 -0.32391
       5     C     3.16526  3.16526  0.00000 -0.33053
       6     C     3.15354  3.15354  0.00000 -0.30708
       7     C     3.15344  3.15344  0.00000 -0.30687
       8     H     0.44584  0.44584  0.00000  0.10832
       9     H     0.44243  0.44243  0.00000  0.11514
      10     H     0.44582  0.44582  0.00000  0.10837
      11     H     0.45026  0.45026  0.00000  0.09949
      12     H     0.45010  0.45010  0.00000  0.09980
      13     H     0.43573  0.43573  0.00000  0.12854
      14     H     0.45010  0.45010  0.00000  0.09981
      15     H     0.45024  0.45024  0.00000  0.09952
      16     H     0.43576  0.43576  0.00000  0.12848
      17     H     0.44745  0.44745  0.00000  0.10509
      18     H     0.43167  0.43167  0.00000  0.13666
      19     H     0.44741  0.44741  0.00000  0.10518

   Total alpha = 28.00000, Total beta = 28.00000, Total charge =  0.00000

*** Psi4 exiting successfully. Buy a developer a beer!
