  ==> Input File <==

--------------------------------------------------------------------------
set {
	reference rhf
	basis cc-pvtz
}

set_num_threads( 4 )
memory 2 gb

molecule MOL {
0 1

H	 -4.235753	 0.507087	 0.090372
O	 -3.518407	 -0.038625	 -0.173841
C	 -2.305858	 0.508074	 0.272549
C	 -1.175688	 -0.398187	 -0.171891
H	 -2.164088	 1.505691	 -0.137860
H	 -2.304676	 0.596960	 1.356952
C	 0.196029	 0.106276	 0.266738
H	 -1.211489	 -0.487216	 -1.253100
H	 -1.353639	 -1.391172	 0.228398
C	 1.330220	 -0.826136	 -0.155230
H	 0.359542	 1.097229	 -0.145561
H	 0.212134	 0.218135	 1.348778
C	 2.719700	 -0.407669	 0.328325
H	 1.339388	 -0.911200	 -1.239363
H	 1.119001	 -1.821953	 0.224128
C	 3.241564	 0.893452	 -0.276737
H	 3.418299	 -1.204729	 0.093035
H	 2.711776	 -0.323368	 1.411960
H	 3.254204	 0.841071	 -1.360784
H	 2.634460	 1.745075	 0.005842
H	 4.254264	 1.092401	 0.054971

	symmetry c1
}
set optking {
	frozen_dihedral = ("
		8 4 7 10
	")
}

ee = optimize('scf')
oeprop('DIPOLE', 'QUADRUPOLE', 'MULLIKEN_CHARGES')
f=open( 'psi4out.xyz', 'w' )
f.write( "21  " )
f.write( str(ee) + "\n" )
f.write( MOL.save_string_xyz() )
f.close()
--------------------------------------------------------------------------

    Molecular point group: c1
  Charge       = 0
  Multiplicity = 1
  Basis Set: CC-PVTZ
  Basis Set:
  @DF-RHF Final Energy:  -310.33305072132123
    Total Energy =                       -310.3330507213215697
    Molecular point group: c1
  Basis Set: CC-PVTZ
  Basis Set:
  Charge       = 0
  Multiplicity = 1
  Basis Set: CC-PVTZ
  Basis Set:

    Orbital Energies (a.u.)
    -----------------------

    Doubly Occupied:

       1A    -20.545370     2A    -11.264947     3A    -11.213178
       4A    -11.213073     5A    -11.211273     6A    -11.208954
       7A    -11.206084     8A     -1.363216     9A     -1.087440
      10A     -1.034476    11A     -0.955557    12A     -0.876410
      13A     -0.807533    14A     -0.779337    15A     -0.696179
      16A     -0.663029    17A     -0.622868    18A     -0.608378
      19A     -0.588844    20A     -0.570646    21A     -0.538043
      22A     -0.520625    23A     -0.511754    24A     -0.487992
      25A     -0.479865    26A     -0.460728    27A     -0.456231
      28A     -0.444260    29A     -0.437373

  @DF-RHF Final Energy:  -310.33305172015707

   => Energetics <=

    Nuclear Repulsion Energy =            312.9098961350053969
    One-Electron Energy =               -1040.7785766513131875
    Two-Electron Energy =                 417.5356287961509452
    DFT Exchange-Correlation Energy =       0.0000000000000000
    Empirical Dispersion Energy =           0.0000000000000000
    PCM Polarization Energy =               0.0000000000000000
    EFP Energy =                            0.0000000000000000
    Total Energy =                       -310.3330517201568455
    Molecular point group: c1
  Basis Set: CC-PVTZ
  Basis Set:

  -Total Gradient:
     Atom            X                  Y                   Z
    ------   -----------------  -----------------  -----------------
       1       -0.000004363573     0.000003055423    -0.000007558537
       2       -0.000008481261     0.000008805059    -0.000002969652
       3        0.000038999069    -0.000037431904    -0.000039967972
       4        0.000086644340    -0.000367414887     0.000207804836
       5       -0.000017186722     0.000014927985     0.000000854591
       6        0.000026545211    -0.000015000377    -0.000016906241
       7        0.000006426539     0.000244418851    -0.000316105234
       8       -0.000075708617     0.000280040666    -0.000007875318
       9       -0.000037083258    -0.000039935280     0.000006202923
      10       -0.000026085041    -0.000112789279     0.000184155235
      11        0.000018339357     0.000032065147     0.000015004210
      12       -0.000016018498    -0.000025817552    -0.000031833757
      13       -0.000009885319     0.000020831122     0.000011087659
      14       -0.000022157541     0.000016557990     0.000003936584
      15        0.000018728024    -0.000012379950    -0.000004520399
      16        0.000014798529    -0.000005605715     0.000000967012
      17       -0.000001808278     0.000002406639     0.000001770501
      18       -0.000003508131     0.000006244589    -0.000001117311
      19       -0.000004399044     0.000001830291    -0.000002827285
      20        0.000012320499    -0.000011665895     0.000005358557
      21        0.000003883715    -0.000003142922    -0.000005460401

  **** Optimization is complete! (in 2 steps) ****
    Final optimized geometry and variables:
    Molecular point group: c1

    Geometry (in Angstrom), charge = 0, multiplicity = 1:

    H           -4.233973091997     0.517336865347     0.073346354050
    O           -3.516847365393    -0.029230135219    -0.189546250430
    C           -2.304746703826     0.513177569789     0.263227280481
    C           -1.174837903035    -0.394107672448    -0.179759736770
    H           -2.159322301069     1.511880867126    -0.143320130420
    H           -2.307391725835     0.598419824306     1.347875220337
    C            0.196592528383     0.110795076058     0.259032124750
    H           -1.210448746488    -0.481468688585    -1.261063755714
    H           -1.353828230359    -1.386908908426     0.220470980016
    C            1.331404891051    -0.819964552700    -0.164563781771
    H            0.358648698698     1.103210179740    -0.150137984085
    H            0.213172415604     0.219052160418     1.341424911984
    C            2.720807545031    -0.400389201875     0.318227542688
    H            1.339843577428    -0.904332065174    -1.248762400042
    H            1.121392955669    -1.816137703369     0.214380397210
    C            3.242619432124     0.899664257282    -0.288998908978
    H            3.419516273700    -1.197656520083     0.084094064558
    H            2.712994337377    -0.314350083335     1.401710352044
    H            3.253545269298     0.846038222792    -1.372977802792
    H            2.636531789334     1.751965729763    -0.006419937902
    H            4.255949497963     1.098285623474     0.040943821661

  Mulliken Charges: (a.u.)
   Center  Symbol    Alpha    Beta     Spin     Total
       1     H     0.39761  0.39761  0.00000  0.20478
       2     O     4.19428  4.19428  0.00000 -0.38856
       3     C     2.96327  2.96327  0.00000  0.07347
       4     C     3.08381  3.08381  0.00000 -0.16762
       5     H     0.47508  0.47508  0.00000  0.04984
       6     H     0.47488  0.47488  0.00000  0.05024
       7     C     3.10325  3.10325  0.00000 -0.20650
       8     H     0.45086  0.45086  0.00000  0.09828
       9     H     0.45064  0.45064  0.00000  0.09872
      10     C     3.09426  3.09426  0.00000 -0.18853
      11     H     0.45330  0.45330  0.00000  0.09341
      12     H     0.45577  0.45577  0.00000  0.08847
      13     C     3.08987  3.08987  0.00000 -0.17974
      14     H     0.45315  0.45315  0.00000  0.09370
      15     H     0.44879  0.44879  0.00000  0.10243
      16     C     3.15231  3.15231  0.00000 -0.30463
      17     H     0.44844  0.44844  0.00000  0.10312
      18     H     0.45503  0.45503  0.00000  0.08994
      19     H     0.45464  0.45464  0.00000  0.09073
      20     H     0.45427  0.45427  0.00000  0.09145
      21     H     0.44650  0.44650  0.00000  0.10700

   Total alpha = 29.00000, Total beta = 29.00000, Total charge = -0.00000
