  ==> Input File <==

--------------------------------------------------------------------------
set {
	reference rhf
	basis 6-31G*
}

set_num_threads( 1 )
memory 2 gb

molecule MOL {
0 1

H	 -1.743970	 1.149322	 -2.348589
O	 -2.022793	 1.770622	 -1.689729
C	 -1.032080	 1.869976	 -0.708618
C	 -0.793441	 0.596080	 0.058728
H	 -1.356974	 2.649243	 -0.028625
H	 -0.091077	 2.207639	 -1.141657
C	 -1.530462	 -0.493172	 -0.025500
H	 0.056793	 0.617349	 0.722906
H	 -1.092586	 -1.461565	 -0.186463
H	 -2.602122	 -0.450675	 0.050101

	symmetry c1
}
set optking {
	frozen_dihedral = ("
		5 3 2 1,
		5 3 4 7
	")
}

ee = energy('scf')
oeprop('DIPOLE', 'QUADRUPOLE', 'MULLIKEN_CHARGES')
f=open( 'psi4out.xyz', 'w' )
f.write( "10  " )
f.write( str(ee) + "\n" )
f.write( MOL.save_string_xyz() )
f.close()
--------------------------------------------------------------------------

    Molecular point group: c1

    Geometry (in Angstrom), charge = 0, multiplicity = 1:

       Center              X                  Y                   Z               Mass
    ------------   -----------------  -----------------  -----------------  -----------------
           H         -0.374103989426     0.171687406890    -1.692389827879     1.007825032070
           O         -0.652926989426     0.792987406890    -1.033529827879    15.994914619560
           C          0.337786010574     0.892341406890    -0.052418827879    12.000000000000
           C          0.576425010574    -0.381554593110     0.714927172121    12.000000000000
           H          0.012892010574     1.671608406890     0.627574172121     1.007825032070
           H          1.278789010574     1.230004406890    -0.485457827879     1.007825032070
           C         -0.160595989426    -1.470806593110     0.630699172121    12.000000000000
           H          1.426659010574    -0.360285593110     1.379105172121     1.007825032070
           H          0.277280010574    -2.439199593110     0.469736172121     1.007825032070
           H         -1.232255989426    -1.428309593110     0.706300172121     1.007825032070

  Charge       = 0
  Multiplicity = 1
  Basis Set: 6-31G*
  Basis Set:

    Orbital Energies (a.u.)
    -----------------------

    Doubly Occupied:

       1A    -20.557389     2A    -11.278427     3A    -11.234891
       4A    -11.218646     5A     -1.366301     6A     -1.058995
       7A     -0.927907     8A     -0.769311     9A     -0.686078
      10A     -0.649442    11A     -0.616964    12A     -0.574418
      13A     -0.549979    14A     -0.503773    15A     -0.447462
      16A     -0.317422

  @DF-RHF Final Energy:  -191.86025590138951

   => Energetics <=

    Nuclear Repulsion Energy =            119.2252829015114344
    One-Electron Energy =                -496.6562551160427574
    Two-Electron Energy =                 185.5707163131417303
    DFT Exchange-Correlation Energy =       0.0000000000000000
    Empirical Dispersion Energy =           0.0000000000000000
    PCM Polarization Energy =               0.0000000000000000
    EFP Energy =                            0.0000000000000000
    Total Energy =                       -191.8602559013895927

  Mulliken Charges: (a.u.)
   Center  Symbol    Alpha    Beta     Spin     Total
       1     H     0.28256  0.28256  0.00000  0.43489
       2     O     4.36444  4.36444  0.00000 -0.72889
       3     C     2.99928  2.99928  0.00000  0.00145
       4     C     3.09584  3.09584  0.00000 -0.19168
       5     H     0.41254  0.41254  0.00000  0.17491
       6     H     0.42058  0.42058  0.00000  0.15883
       7     C     3.20417  3.20417  0.00000 -0.40835
       8     H     0.40841  0.40841  0.00000  0.18317
       9     H     0.40916  0.40916  0.00000  0.18169
      10     H     0.40301  0.40301  0.00000  0.19398

   Total alpha = 16.00000, Total beta = 16.00000, Total charge =  0.00000
