                              Psi4 1.0.54 Driver

  ==> Input File <==

--------------------------------------------------------------------------
set {
	reference rhf
	basis cc-pvtz
}

set_num_threads( 4 )
memory 2 gb

molecule MOL {
0 1

O	 2.954240	 1.211100	 -0.553004
C	 2.841259	 0.166180	 -0.000295
C	 1.542794	 -0.614730	 -0.000853
C	 3.997465	 -0.458911	 0.747150
C	 0.288398	 0.247429	 0.000314
H	 1.557171	 -1.273139	 -0.866508
H	 1.557484	 -1.274998	 0.863344
C	 -0.993089	 -0.581367	 -0.000217
H	 0.305153	 0.900562	 -0.864701
H	 0.305567	 0.898805	 0.866656
C	 -2.258482	 0.271340	 0.000669
H	 -1.002280	 -1.233920	 -0.870484
H	 -1.002061	 -1.235367	 0.868958
C	 -3.544441	 -0.550271	 -0.000253
H	 -2.250545	 0.925250	 -0.867923
H	 -2.250598	 0.923423	 0.870642
C	 -4.804551	 0.308747	 0.000556
H	 -3.553737	 -1.201524	 -0.870151
H	 -3.553831	 -1.203282	 0.868313
H	 -4.842050	 0.949078	 -0.874436
H	 -5.698404	 -0.304480	 -0.000254
H	 -4.842277	 0.947103	 0.876982
H	 4.228394	 -1.433591	 0.331556
H	 4.864819	 0.179516	 0.680068
H	 3.733017	 -0.607234	 1.788356

	symmetry c1
}
set optking {
	frozen_dihedral = ("
		1 2 3 6
	")
}

ee,wfn = optimize('scf', return_wfn=True)
oeprop( wfn, 'DIPOLE', 'QUADRUPOLE', 'MULLIKEN_CHARGES')
f=open( 'psi4out.xyz', 'w' )
f.write( "25  " )
f.write( str(ee) + "\n" )
f.write( MOL.save_string_xyz() )
f.close()
--------------------------------------------------------------------------

    Molecular point group: c1
  Charge       = 0
  Multiplicity = 1
  Basis Set: CC-PVTZ
  Basis Set:
  @DF-RHF Final Energy:  -387.27332854922855
    Total Energy =                       -387.2733285492284949
    Molecular point group: c1
  Basis Set: CC-PVTZ
  Basis Set:
  Basis Set: CC-PVTZ
  Basis Set:
  @DF-RHF Final Energy:  -387.27276270841679
    Total Energy =                       -387.2727627084163942
  Basis Set: CC-PVTZ
  Basis Set:
  Basis Set: CC-PVTZ
  Basis Set:
  @DF-RHF Final Energy:  -387.27344581631769
    Total Energy =                       -387.2734458163175759
  Basis Set: CC-PVTZ
  Basis Set:
  Basis Set: CC-PVTZ
  Basis Set:
  @DF-RHF Final Energy:  -387.27385107507075
    Total Energy =                       -387.2738510750710930
  Basis Set: CC-PVTZ
  Basis Set:
  Basis Set: CC-PVTZ
  Basis Set:
  @DF-RHF Final Energy:  -387.27386201817154
    Total Energy =                       -387.2738620181717124
  Basis Set: CC-PVTZ
  Basis Set:
  Basis Set: CC-PVTZ
  Basis Set:
  @DF-RHF Final Energy:  -387.27386579667797
    Total Energy =                       -387.2738657966780238
  Basis Set: CC-PVTZ
  Basis Set:
  Basis Set: CC-PVTZ
  Basis Set:
  @DF-RHF Final Energy:  -387.27386722142643
    Total Energy =                       -387.2738672214262579
  Basis Set: CC-PVTZ
  Basis Set:
  Charge       = 0
  Multiplicity = 1
  Basis Set: CC-PVTZ
  Basis Set:

    Orbital Energies (a.u.)
    -----------------------

    Doubly Occupied:

       1A    -20.537706     2A    -11.320623     3A    -11.229676
       4A    -11.227082     5A    -11.217011     6A    -11.215531
       7A    -11.213944     8A    -11.212135     9A    -11.206794
      10A     -1.398292    11A     -1.095708    12A     -1.057710
      13A     -1.015644    14A     -0.970596    15A     -0.891834
      16A     -0.815045    17A     -0.792005    18A     -0.731363
      19A     -0.664560    20A     -0.652393    21A     -0.635544
      22A     -0.622035    23A     -0.598597    24A     -0.585613
      25A     -0.568799    26A     -0.561020    27A     -0.541385
      28A     -0.530069    29A     -0.513186    30A     -0.492287
      31A     -0.489513    32A     -0.474145    33A     -0.464411
      34A     -0.463749    35A     -0.452829    36A     -0.399749

  @DF-RHF Final Energy:  -387.27386735820897

   => Energetics <=

    Nuclear Repulsion Energy =            439.0984457078884020
    One-Electron Energy =               -1395.0274647445326082
    Two-Electron Energy =                 568.6551516784355726
    DFT Exchange-Correlation Energy =       0.0000000000000000
    Empirical Dispersion Energy =           0.0000000000000000
    PCM Polarization Energy =               0.0000000000000000
    EFP Energy =                            0.0000000000000000
    Total Energy =                       -387.2738673582085767
    Molecular point group: c1
  Basis Set: CC-PVTZ
  Basis Set:

  -Total Gradient:
     Atom            X                  Y                   Z
    ------   -----------------  -----------------  -----------------
       1        0.000403059937    -0.000654321772    -0.001192559997
       2       -0.000669368779     0.001120502219     0.001538573300
       3        0.000873418945    -0.001449323429     0.000403941712
       4       -0.000007146271     0.000014264906    -0.000018491838
       5       -0.000000760568     0.000001361159    -0.000000168755
       6       -0.000595618537     0.000980617202    -0.000745604954
       7       -0.000000899644    -0.000000572199    -0.000000330545
       8        0.000002604704    -0.000001798517    -0.000000707693
       9       -0.000000106586    -0.000001605130     0.000000745728
      10        0.000002464026    -0.000000712823     0.000000440515
      11       -0.000000540076     0.000000062670    -0.000001023165
      12       -0.000001157389    -0.000000758763     0.000000298639
      13        0.000001285294     0.000000153943     0.000000096835
      14        0.000001473213     0.000000799615    -0.000000492498
      15       -0.000000166777     0.000000624706     0.000000319651
      16       -0.000000387927    -0.000000063142    -0.000000376166
      17       -0.000003222879    -0.000000129875     0.000000466886
      18       -0.000000099227    -0.000000069763     0.000000136630
      19       -0.000000266150    -0.000000153269    -0.000000391764
      20        0.000000467396    -0.000000237894     0.000000324302
      21       -0.000000648237     0.000000212815     0.000000159439
      22        0.000000279450     0.000000270305    -0.000000250849
      23       -0.000002991051    -0.000006681018     0.000000328307
      24        0.000001131941     0.000000785532     0.000001662833
      25       -0.000002804794    -0.000003227480     0.000012903445

  **** Optimization is complete! (in 8 steps) ****
    Final optimized geometry and variables:
    Molecular point group: c1

    Geometry (in Angstrom), charge = 0, multiplicity = 1:

    O            2.937490447932     1.199801232850    -0.455128792268
    C            2.840433201822     0.151361851354     0.094080924724
    C            1.543378136870    -0.635965795990     0.093245935549
    C            4.017178810088    -0.486017197276     0.793563552946
    C            0.292590943628     0.234593431475     0.030578357908
    H            1.586151909127    -1.277573287200    -0.785293522280
    H            1.515936862230    -1.296199179912     0.953638121479
    C           -0.991981998248    -0.585617532146    -0.043541078912
    H            0.364183857325     0.891038687870    -0.827020233405
    H            0.262766513544     0.878858078525     0.904544794664
    C           -2.250592890762     0.275306755978    -0.098572837564
    H           -0.958327598998    -1.227161244036    -0.921168563217
    H           -1.050023260056    -1.249882788724     0.815853469602
    C           -3.539295849526    -0.538052207764    -0.178651339600
    H           -2.192383120155     0.940203945307    -0.956743668891
    H           -2.285776056101     0.916032478341     0.779306666483
    C           -4.792784454164     0.328881436320    -0.232789870056
    H           -3.506051114932    -1.177389169101    -1.056697021878
    H           -3.598381730881    -1.202641059220     0.679146546730
    H           -4.780155457185     0.981080669481    -1.099673098843
    H           -5.688738142022    -0.278636499155    -0.289396411775
    H           -4.873466244126     0.955658695384     0.649122656341
    H            4.146710008586    -1.509976362120     0.460337102891
    H            4.914879891583     0.081904966329     0.603414975307
    H            3.827024326281    -0.517900525025     1.861553076027

  Mulliken Charges: (a.u.)
   Center  Symbol    Alpha    Beta     Spin     Total
       1     O     4.17342  4.17342  0.00000 -0.34684
       2     C     2.86026  2.86026  0.00000  0.27947
       3     C     3.11100  3.11100  0.00000 -0.22200
       4     C     3.15283  3.15283  0.00000 -0.30566
       5     C     3.08815  3.08815  0.00000 -0.17631
       6     H     0.44440  0.44440  0.00000  0.11120
       7     H     0.44513  0.44513  0.00000  0.10975
       8     C     3.09005  3.09005  0.00000 -0.18011
       9     H     0.43911  0.43911  0.00000  0.12178
      10     H     0.45213  0.45213  0.00000  0.09575
      11     C     3.08631  3.08631  0.00000 -0.17262
      12     H     0.45478  0.45478  0.00000  0.09044
      13     H     0.45607  0.45607  0.00000  0.08786
      14     C     3.08435  3.08435  0.00000 -0.16870
      15     H     0.45309  0.45309  0.00000  0.09382
      16     H     0.45456  0.45456  0.00000  0.09088
      17     C     3.15037  3.15037  0.00000 -0.30074
      18     H     0.45480  0.45480  0.00000  0.09039
      19     H     0.45530  0.45530  0.00000  0.08940
      20     H     0.45454  0.45454  0.00000  0.09092
      21     H     0.44859  0.44859  0.00000  0.10282
      22     H     0.45505  0.45505  0.00000  0.08990
      23     H     0.45026  0.45026  0.00000  0.09948
      24     H     0.43608  0.43608  0.00000  0.12783
      25     H     0.44937  0.44937  0.00000  0.10126

   Total alpha = 36.00000, Total beta = 36.00000, Total charge = -0.00000

*** Psi4 exiting successfully. Buy a developer a beer!
