  ==> Input File <==

--------------------------------------------------------------------------
set {
	reference rhf
	basis cc-pvtz
}

set_num_threads( 4 )
memory 2 gb

molecule MOL {
0 1

O	 -0.694481	 1.313155	 -0.204815
C	 -0.862519	 0.151932	 -0.046791
C	 -2.171428	 -0.477048	 0.339095
O	 0.085519	 -0.757083	 -0.192238
H	 -2.467997	 -1.191667	 -0.417688
H	 -2.923379	 0.287970	 0.444097
H	 -2.053854	 -1.015120	 1.270901
C	 1.392036	 -0.330828	 -0.560749
C	 1.914074	 0.743405	 0.370593
H	 1.378355	 0.013783	 -1.582938
H	 1.998372	 -1.222000	 -0.498128
H	 2.933573	 0.994373	 0.100241
H	 1.313712	 1.640150	 0.301346
H	 1.909722	 0.395525	 1.396533

	symmetry c1
}
set optking {
	frozen_dihedral = ("
		10 8 4 2
	")
}

ee = optimize('scf')
oeprop('DIPOLE', 'QUADRUPOLE', 'MULLIKEN_CHARGES')
f=open( 'psi4out.xyz', 'w' )
f.write( "14  " )
f.write( str(ee) + "\n" )
f.write( MOL.save_string_xyz() )
f.close()
--------------------------------------------------------------------------

    Molecular point group: c1
  Charge       = 0
  Multiplicity = 1
  Basis Set: CC-PVTZ
  Basis Set:
  @DF-RHF Final Energy:  -305.98370987290104
    Total Energy =                       -305.9837098729008744
    Molecular point group: c1
  Basis Set: CC-PVTZ
  Basis Set:
  Basis Set: CC-PVTZ
  Basis Set:
  @DF-RHF Final Energy:  -305.98769734318984
    Total Energy =                       -305.9876973431901206
  Basis Set: CC-PVTZ
  Basis Set:
  Basis Set: CC-PVTZ
  Basis Set:
  @DF-RHF Final Energy:  -305.98765240955748
    Total Energy =                       -305.9876524095574837
  Basis Set: CC-PVTZ
  Basis Set:
  Basis Set: CC-PVTZ
  Basis Set:
  @DF-RHF Final Energy:  -305.98714985915933
    Total Energy =                       -305.9871498591596151
  Basis Set: CC-PVTZ
  Basis Set:
  @DF-RHF Final Energy:  -305.98802379415844
    Total Energy =                       -305.9880237941586074
  Basis Set: CC-PVTZ
  Basis Set:
  @DF-RHF Final Energy:  -305.98803052249264
    Total Energy =                       -305.9880305224924086
  Basis Set: CC-PVTZ
  Basis Set:
  Basis Set: CC-PVTZ
  Basis Set:
  @DF-RHF Final Energy:  -305.98803161571931
    Total Energy =                       -305.9880316157190805
  Basis Set: CC-PVTZ
  Basis Set:
  Basis Set: CC-PVTZ
  Basis Set:
  @DF-RHF Final Energy:  -305.98803263906279
    Total Energy =                       -305.9880326390628511
  Basis Set: CC-PVTZ
  Basis Set:
  Charge       = 0
  Multiplicity = 1
  Basis Set: CC-PVTZ
  Basis Set:

    Orbital Energies (a.u.)
    -----------------------

    Doubly Occupied:

       1A    -20.593805     2A    -20.532398     3A    -11.367585
       4A    -11.286118     5A    -11.230996     6A    -11.215131
       7A     -1.469117     8A     -1.365585     9A     -1.055497
      10A     -0.998966    11A     -0.889428    12A     -0.757853
      13A     -0.699431    14A     -0.685154    15A     -0.664282
      16A     -0.613238    17A     -0.589001    18A     -0.571139
      19A     -0.554629    20A     -0.532320    21A     -0.516112
      22A     -0.495024    23A     -0.455702    24A     -0.438054

  @DF-RHF Final Energy:  -305.98803331012454

   => Energetics <=

    Nuclear Repulsion Energy =            249.9993214360677598
    One-Electron Energy =                -912.8215856393421745
    Two-Electron Energy =                 356.8342308931501066
    DFT Exchange-Correlation Energy =       0.0000000000000000
    Empirical Dispersion Energy =           0.0000000000000000
    PCM Polarization Energy =               0.0000000000000000
    EFP Energy =                            0.0000000000000000
    Total Energy =                       -305.9880333101243650
    Molecular point group: c1
  Basis Set: CC-PVTZ
  Basis Set:

  -Total Gradient:
     Atom            X                  Y                   Z
    ------   -----------------  -----------------  -----------------
       1       -0.000022211318    -0.000003417424     0.000036420788
       2        0.000870182097     0.000403641130     0.004796637414
       3        0.000034384550     0.000024098396     0.000036890361
       4       -0.001249686585    -0.001910049446    -0.007617441562
       5        0.000009560262    -0.000000615553    -0.000019599888
       6        0.000009134477     0.000006583142    -0.000006696329
       7        0.000003648554    -0.000006563202    -0.000000763710
       8       -0.001111379255     0.006410688249     0.004757104390
       9        0.000047760626     0.000088082741    -0.000146105494
      10        0.001381939574    -0.005004798424    -0.001727468659
      11       -0.000016343364    -0.000030256709    -0.000079367899
      12        0.000020815567     0.000035807360     0.000012209108
      13        0.000023481059     0.000009140891     0.000002554306
      14       -0.000001286243    -0.000022341150    -0.000044372830

  **** Optimization is complete! (in 9 steps) ****
    Final optimized geometry and variables:
    Molecular point group: c1

    Geometry (in Angstrom), charge = 0, multiplicity = 1:

    O           -0.754827919877     1.190292794316    -0.292291468898
    C           -0.845155059179     0.038075231081    -0.036630638837
    C           -2.098952562783    -0.629682293120     0.454184833960
    O            0.141328439635    -0.830329216685    -0.166731186322
    H           -2.358893998206    -1.447723237219    -0.204692610123
    H           -2.900717749025     0.089692557249     0.491574543331
    H           -1.925111360281    -1.043804188282     1.439259156199
    C            1.458594942441    -0.387086179540    -0.478502203425
    C            2.052934730920     0.601575007983     0.503973240276
    H            1.475994837490    -0.027266546570    -1.498613676370
    H            2.033332595749    -1.301782704752    -0.460571236229
    H            3.104046410861     0.727458396594     0.269205820409
    H            1.570400937782     1.563831850282     0.458750968417
    H            1.981433125311     0.216992877486     1.515084137576

  Mulliken Charges: (a.u.)
   Center  Symbol    Alpha    Beta     Spin     Total
       1     O     4.19962  4.19962  0.00000 -0.39923
       2     C     2.80048  2.80048  0.00000  0.39903
       3     C     3.13810  3.13810  0.00000 -0.27620
       4     O     4.15605  4.15605  0.00000 -0.31210
       5     H     0.44478  0.44478  0.00000  0.11045
       6     H     0.43843  0.43843  0.00000  0.12313
       7     H     0.44683  0.44683  0.00000  0.10635
       8     C     2.98225  2.98225  0.00000  0.03551
       9     C     3.15600  3.15600  0.00000 -0.31200
      10     H     0.45396  0.45396  0.00000  0.09208
      11     H     0.44637  0.44637  0.00000  0.10725
      12     H     0.44995  0.44995  0.00000  0.10010
      13     H     0.43358  0.43358  0.00000  0.13284
      14     H     0.45360  0.45360  0.00000  0.09280

   Total alpha = 24.00000, Total beta = 24.00000, Total charge = -0.00000
