  ==> Input File <==

--------------------------------------------------------------------------
set {
	reference rhf
	basis 6-31G*
}

set_num_threads( 4 )
memory 2 gb

molecule MOL {
0 1

H	 3.416919	 -0.502134	 0.843938
N	 3.092854	 -0.246221	 -0.068770
C	 1.865559	 0.531981	 0.018834
H	 2.932210	 -1.100055	 -0.568761
C	 0.645745	 -0.382037	 -0.029944
H	 1.841966	 1.207024	 -0.831236
H	 1.815756	 1.155410	 0.915079
C	 -0.679275	 0.379305	 0.025956
H	 0.698998	 -0.976915	 -0.937203
H	 0.693479	 -1.083846	 0.802235
C	 -1.903357	 -0.536963	 -0.023547
H	 -0.726309	 1.082987	 -0.803784
H	 -0.717680	 0.977832	 0.934877
C	 -3.225172	 0.228290	 0.028445
H	 -1.867824	 -1.134999	 -0.931459
H	 -1.860449	 -1.239604	 0.805977
H	 -3.313397	 0.915643	 -0.808262
H	 -4.073500	 -0.448134	 -0.008893
H	 -3.306061	 0.809945	 0.942516

	symmetry c1
}
set optking {
	frozen_dihedral = ("
		1 2 3 6
	")
}

ee = optimize('scf')
oeprop('DIPOLE', 'QUADRUPOLE', 'MULLIKEN_CHARGES')
f=open( 'psi4out.xyz', 'w' )
f.write( "19  " )
f.write( str(ee) + "\n" )
f.write( MOL.save_string_xyz() )
f.close()
--------------------------------------------------------------------------

    Molecular point group: c1
  Charge       = 0
  Multiplicity = 1
  Basis Set: 6-31G*
  Basis Set:
  @DF-RHF Final Energy:  -251.34764222110721
    Total Energy =                       -251.3476422211070940
    Molecular point group: c1
  Basis Set: 6-31G*
  Basis Set:
  Basis Set: 6-31G*
  Basis Set:
  @DF-RHF Final Energy:  -251.34973012406036
    Total Energy =                       -251.3497301240602155
  Basis Set: 6-31G*
  Basis Set:
  Basis Set: 6-31G*
  Basis Set:
  @DF-RHF Final Energy:  -251.35000181269663
    Total Energy =                       -251.3500018126965756
  Basis Set: 6-31G*
  Basis Set:
  Basis Set: 6-31G*
  Basis Set:
  @DF-RHF Final Energy:  -251.35001311620971
    Total Energy =                       -251.3500131162097091
  Basis Set: 6-31G*
  Basis Set:
  Basis Set: 6-31G*
  Basis Set:
  @DF-RHF Final Energy:  -251.35001482293342
    Total Energy =                       -251.3500148229335309
  Basis Set: 6-31G*
  Basis Set:
  Basis Set: 6-31G*
  Basis Set:
  @DF-RHF Final Energy:  -251.35001684409815
    Total Energy =                       -251.3500168440980929
  Basis Set: 6-31G*
  Basis Set:
  Charge       = 0
  Multiplicity = 1
  Basis Set: 6-31G*
  Basis Set:

    Orbital Energies (a.u.)
    -----------------------

    Doubly Occupied:

       1A    -15.530103     2A    -11.239320     3A    -11.216803
       4A    -11.215690     5A    -11.214019     6A    -11.209488
       7A     -1.174574     8A     -1.075488     9A     -0.999892
      10A     -0.901298    11A     -0.819287    12A     -0.792911
      13A     -0.676211    14A     -0.639348    15A     -0.600527
      16A     -0.589401    17A     -0.571960    18A     -0.557229
      19A     -0.522789    20A     -0.503726    21A     -0.481677
      22A     -0.469103    23A     -0.466841    24A     -0.462731
      25A     -0.371757

  @DF-RHF Final Energy:  -251.35001690273072

   => Energetics <=

    Nuclear Repulsion Energy =            245.3841033454955323
    One-Electron Energy =                -824.8638920560808856
    Two-Electron Energy =                 328.1297718078548655
    DFT Exchange-Correlation Energy =       0.0000000000000000
    Empirical Dispersion Energy =           0.0000000000000000
    PCM Polarization Energy =               0.0000000000000000
    EFP Energy =                            0.0000000000000000
    Total Energy =                       -251.3500169027304878
    Molecular point group: c1
  Basis Set: 6-31G*
  Basis Set:

  -Total Gradient:
     Atom            X                  Y                   Z
    ------   -----------------  -----------------  -----------------
       1        0.001636692247     0.003035010339     0.000387097895
       2       -0.001760329143    -0.003255059932    -0.000059744260
       3       -0.001127998064    -0.001924482416    -0.002175120810
       4        0.000009270444    -0.000014163028    -0.000003820809
       5       -0.000040853623    -0.000011397865     0.000010967344
       6        0.001278474426     0.002193990471     0.001850459011
       7       -0.000002011703    -0.000004926274    -0.000012767262
       8       -0.000027588884    -0.000002062264    -0.000001043706
       9       -0.000004769362     0.000000593811    -0.000011599849
      10       -0.000014558137    -0.000011892291     0.000006488974
      11        0.000008108323    -0.000016814479     0.000015949841
      12       -0.000002677951     0.000006612552    -0.000004562191
      13        0.000009460369    -0.000004895333     0.000007197861
      14        0.000025519184     0.000017955399    -0.000016935517
      15        0.000000661209    -0.000006404715     0.000001560020
      16        0.000001401394    -0.000000070634     0.000008559180
      17       -0.000003370328     0.000008935101     0.000000407975
      18        0.000015801933    -0.000006771603    -0.000006489042
      19       -0.000001232338    -0.000004156840     0.000003395345

  **** Optimization is complete! (in 7 steps) ****
    Final optimized geometry and variables:
    Molecular point group: c1

    Geometry (in Angstrom), charge = 0, multiplicity = 1:

    H            3.452047996125    -0.464549937729     0.868972879857
    N            3.150709547406    -0.184643073570    -0.042229482060
    C            1.870338472793     0.505750983090     0.006079168602
    H            3.118364689733    -0.996615625672    -0.626500680211
    C            0.636833801486    -0.397894023743    -0.022932217111
    H            1.829875401269     1.221457956916    -0.810843358876
    H            1.857337123068     1.103945986181     0.912817893437
    C           -0.680171288772     0.378313318069     0.023825150800
    H            0.664858458215    -1.006730581338    -0.926272130046
    H            0.684707094348    -1.090909878604     0.815755765552
    C           -1.916376993402    -0.521876420708    -0.017368720858
    H           -0.717067672002     1.075824977735    -0.811316313651
    H           -0.709229041465     0.984911941048     0.927707124729
    C           -3.227533483164     0.261816472506     0.028655025866
    H           -1.889905490969    -1.127846106834    -0.920499896099
    H           -1.882625824973    -1.218080479698     0.817950608818
    H           -3.306372338744     0.943894856955    -0.813205662209
    H           -4.084887875447    -0.403390708062    -0.003493679545
    H           -3.300291495254     0.851326184330     0.938278935891

  Mulliken Charges: (a.u.)
   Center  Symbol    Alpha    Beta     Spin     Total
       1     H     0.33249  0.33249  0.00000  0.33502
       2     N     3.92575  3.92575  0.00000 -0.85151
       3     C     3.05516  3.05516  0.00000 -0.11032
       4     H     0.33333  0.33333  0.00000  0.33334
       5     C     3.16026  3.16026  0.00000 -0.32052
       6     H     0.41923  0.41923  0.00000  0.16155
       7     H     0.42271  0.42271  0.00000  0.15458
       8     C     3.15493  3.15493  0.00000 -0.30986
       9     H     0.42616  0.42616  0.00000  0.14767
      10     H     0.42569  0.42569  0.00000  0.14861
      11     C     3.15084  3.15084  0.00000 -0.30167
      12     H     0.42232  0.42232  0.00000  0.15537
      13     H     0.42357  0.42357  0.00000  0.15287
      14     C     3.23938  3.23938  0.00000 -0.47876
      15     H     0.42283  0.42283  0.00000  0.15434
      16     H     0.42310  0.42310  0.00000  0.15380
      17     H     0.42141  0.42141  0.00000  0.15718
      18     H     0.41917  0.41917  0.00000  0.16167
      19     H     0.42168  0.42168  0.00000  0.15665

   Total alpha = 25.00000, Total beta = 25.00000, Total charge = -0.00000
