                              Psi4 1.0.54 Driver

  ==> Input File <==

--------------------------------------------------------------------------
set {
	reference rhf
	basis cc-pvtz
}

set_num_threads( 4 )
memory 2 gb

molecule MOL {
0 1

O	 -1.913355	 -2.212007	 -0.431933
C	 -0.858756	 -1.713695	 -0.228576
C	 0.457750	 -2.448270	 -0.195842
O	 -0.695554	 -0.422406	 0.000602
C	 0.324215	 -3.940273	 -0.454817
H	 0.909624	 -2.254100	 0.770625
H	 1.106373	 -1.977193	 -0.926124
H	 -0.310225	 -4.408846	 0.285549
H	 1.298384	 -4.412561	 -0.418936
H	 -0.111699	 -4.129442	 -1.426630
C	 -1.852370	 0.402254	 0.000718
C	 -3.063338	 -0.501097	 -0.000437
H	 -1.831732	 1.039442	 -0.872158
H	 -1.832493	 1.038301	 0.874430
H	 -3.071944	 -1.133732	 -0.879113
H	 -3.966302	 0.097976	 -0.000483
H	 -3.072764	 -1.134834	 0.877435

	symmetry c1
}
set optking {
	frozen_dihedral = ("
		2 4 11 13
	")
}

ee,wfn = optimize('scf', return_wfn=True)
oeprop( wfn, 'DIPOLE', 'QUADRUPOLE', 'MULLIKEN_CHARGES')
f=open( 'psi4out.xyz', 'w' )
f.write( "17  " )
f.write( str(ee) + "\n" )
f.write( MOL.save_string_xyz() )
f.close()
--------------------------------------------------------------------------

    Molecular point group: c1
  Charge       = 0
  Multiplicity = 1
  Basis Set: CC-PVTZ
  Basis Set:
  @DF-RHF Final Energy:  -344.96677346220082
    Total Energy =                       -344.9667734622009903
    Molecular point group: c1
  Basis Set: CC-PVTZ
  Basis Set:
  Basis Set: CC-PVTZ
  Basis Set:
  @DF-RHF Final Energy:  -345.01139665417253
    Total Energy =                       -345.0113966541724722
  Basis Set: CC-PVTZ
  Basis Set:
  Basis Set: CC-PVTZ
  Basis Set:
  @DF-RHF Final Energy:  -345.00267399994419
    Total Energy =                       -345.0026739999441361
  Basis Set: CC-PVTZ
  Basis Set:
  Basis Set: CC-PVTZ
  Basis Set:
  @DF-RHF Final Energy:  -345.02318898065056
    Total Energy =                       -345.0231889806504455
  Basis Set: CC-PVTZ
  Basis Set:
  @DF-RHF Final Energy:  -344.99780024989582
    Total Energy =                       -344.9978002498952492
  @DF-RHF Final Energy:  -345.02299741302659
    Total Energy =                       -345.0229974130262462
  @DF-RHF Final Energy:  -345.00580710908150
    Total Energy =                       -345.0058071090816156
  @DF-RHF Final Energy:  -345.02834394927868
    Total Energy =                       -345.0283439492789057
  @DF-RHF Final Energy:  -345.02879098836127
    Total Energy =                       -345.0287909883610382
  Basis Set: CC-PVTZ
  Basis Set:
  @DF-RHF Final Energy:  -345.02883487343081
    Total Energy =                       -345.0288348734308101
  Basis Set: CC-PVTZ
  Basis Set:
  Basis Set: CC-PVTZ
  Basis Set:
  @DF-RHF Final Energy:  -345.02885013333577
    Total Energy =                       -345.0288501333361069
  Basis Set: CC-PVTZ
  Basis Set:
  Basis Set: CC-PVTZ
  Basis Set:
  @DF-RHF Final Energy:  -345.02885329001373
    Total Energy =                       -345.0288532900141263
  Basis Set: CC-PVTZ
  Basis Set:
  Charge       = 0
  Multiplicity = 1
  Basis Set: CC-PVTZ
  Basis Set:

    Orbital Energies (a.u.)
    -----------------------

    Doubly Occupied:

       1A    -20.589931     2A    -20.528760     3A    -11.364659
       4A    -11.289028     5A    -11.233085     6A    -11.214066
       7A    -11.211791     8A     -1.462920     9A     -1.364203
      10A     -1.068261    11A     -1.028690    12A     -0.920386
      13A     -0.859151    14A     -0.742819    15A     -0.693417
      16A     -0.683752    17A     -0.672320    18A     -0.628666
      19A     -0.603882    20A     -0.568553    21A     -0.546193
      22A     -0.530541    23A     -0.522682    24A     -0.517606
      25A     -0.494507    26A     -0.492361    27A     -0.445398
      28A     -0.430731

  @DF-RHF Final Energy:  -345.02885359644802

   => Energetics <=

    Nuclear Repulsion Energy =            318.9800292891846993
    One-Electron Energy =               -1102.6010470601515863
    Two-Electron Energy =                 438.5921641745184161
    DFT Exchange-Correlation Energy =       0.0000000000000000
    Empirical Dispersion Energy =           0.0000000000000000
    PCM Polarization Energy =               0.0000000000000000
    EFP Energy =                            0.0000000000000000
    Total Energy =                       -345.0288535964484709
    Molecular point group: c1
  Basis Set: CC-PVTZ
  Basis Set:

  -Total Gradient:
     Atom            X                  Y                   Z
    ------   -----------------  -----------------  -----------------
       1        0.000009891172     0.000008980710     0.000015358900
       2       -0.001515981100    -0.002733292624     0.001540937093
       3       -0.000008809182    -0.000021524094    -0.000011552814
       4        0.002132807567     0.004409137069    -0.001677799983
       5       -0.000012576790     0.000013357304    -0.000002861986
       6        0.000010939944     0.000008659869     0.000004497060
       7        0.000007072928     0.000007604248     0.000003584469
       8        0.000002371152    -0.000001109277    -0.000000083709
       9       -0.000004209353     0.000001519613     0.000003708484
      10       -0.000004279773    -0.000002730104     0.000005193098
      11        0.000278288437    -0.002523784354    -0.003227821375
      12        0.000008195388     0.000026298147    -0.000032697010
      13       -0.000876778199     0.000818160204     0.003356605024
      14        0.000000142286     0.000003850580    -0.000000731064
      15       -0.000019578324    -0.000003869590     0.000023284289
      16       -0.000005490254    -0.000005987836     0.000000300210
      17       -0.000002005899    -0.000005269863     0.000000079320

  **** Optimization is complete! (in 13 steps) ****
    Final optimized geometry and variables:
    Molecular point group: c1

    Geometry (in Angstrom), charge = 0, multiplicity = 1:

    O            0.224051399454    -0.449999837243    -1.088941835640
    C            0.368468689251    -0.082967604504     0.026407000999
    C            1.535370256851    -0.466179714195     0.906291819407
    O           -0.445260774673     0.727327237474     0.677010479763
    C            2.558390152525    -1.345621082222     0.205906831392
    H            1.127241630498    -0.958573740743     1.782254217002
    H            1.984094606033     0.452828119749     1.265771071110
    H            2.110353960096    -2.269105158517    -0.135383505447
    H            3.367143929810    -1.587869771488     0.884786394701
    H            2.976073552810    -0.845645170719    -0.657818881140
    C           -1.726341248112     1.178307111649     0.235330637102
    C           -2.420643400757     0.437384201218    -0.891193705839
    H           -1.619511874922     2.230752159410     0.007373020332
    H           -2.336210051895     1.115034468440     1.125913556492
    H           -1.927557979967     0.561239089477    -1.840322230195
    H           -3.424653825002     0.843935366140    -0.959138399741
    H           -2.499782291804    -0.621059377945    -0.683718928979

  Mulliken Charges: (a.u.)
   Center  Symbol    Alpha    Beta     Spin     Total
       1     O     4.19821  4.19821  0.00000 -0.39641
       2     C     2.80544  2.80544  0.00000  0.38913
       3     C     3.09123  3.09123  0.00000 -0.18246
       4     O     4.15480  4.15480  0.00000 -0.30960
       5     C     3.14012  3.14012  0.00000 -0.28025
       6     H     0.44357  0.44357  0.00000  0.11287
       7     H     0.44127  0.44127  0.00000  0.11746
       8     H     0.44864  0.44864  0.00000  0.10271
       9     H     0.45096  0.45096  0.00000  0.09807
      10     H     0.44900  0.44900  0.00000  0.10199
      11     C     2.98363  2.98363  0.00000  0.03275
      12     C     3.15017  3.15017  0.00000 -0.30034
      13     H     0.45442  0.45442  0.00000  0.09115
      14     H     0.45184  0.45184  0.00000  0.09633
      15     H     0.43658  0.43658  0.00000  0.12684
      16     H     0.45206  0.45206  0.00000  0.09588
      17     H     0.44806  0.44806  0.00000  0.10387

   Total alpha = 28.00000, Total beta = 28.00000, Total charge = -0.00000

*** Psi4 exiting successfully. Buy a developer a beer!
