  ==> Input File <==

--------------------------------------------------------------------------
set {
	reference rhf
	basis 6-31G*
}

set_num_threads( 4 )
memory 2 gb

molecule MOL {
0 1

H	 -3.892951	 0.981613	 -0.358725
C	 -3.196921	 0.361773	 0.172313
C	 -2.076860	 -0.007332	 -0.404944
H	 -3.439953	 0.057760	 1.173024
O	 -1.479270	 -1.195124	 -0.124057
H	 -1.578194	 0.594521	 -1.144066
C	 -0.214717	 -1.432425	 -0.640239
C	 0.869261	 -0.889550	 0.263404
H	 -0.082927	 -0.997348	 -1.624634
H	 -0.082754	 -2.502103	 -0.709962
F	 2.056320	 -1.172637	 -0.252890
F	 0.789731	 0.424747	 0.390400
F	 0.816041	 -1.413754	 1.470370

	symmetry c1
}
set optking {
	frozen_dihedral = ("
		6 3 2 1
	")
}

ee = optimize('scf')
oeprop('DIPOLE', 'QUADRUPOLE', 'MULLIKEN_CHARGES')
f=open( 'psi4out.xyz', 'w' )
f.write( "13  " )
f.write( str(ee) + "\n" )
f.write( MOL.save_string_xyz() )
f.close()
--------------------------------------------------------------------------

    Molecular point group: c1
  Charge       = 0
  Multiplicity = 1
  Basis Set: 6-31G*
  Basis Set:
  @DF-RHF Final Energy:  -527.51657612735198
    Total Energy =                       -527.5165761273517546
    Molecular point group: c1
  Basis Set: 6-31G*
  Basis Set:
  Basis Set: 6-31G*
  Basis Set:
  @DF-RHF Final Energy:  -527.52752958476469
    Total Energy =                       -527.5275295847648067
  Basis Set: 6-31G*
  Basis Set:
  Basis Set: 6-31G*
  Basis Set:
  @DF-RHF Final Energy:  -527.52920835875295
    Total Energy =                       -527.5292083587529532
  Basis Set: 6-31G*
  Basis Set:
  Basis Set: 6-31G*
  Basis Set:
  @DF-RHF Final Energy:  -527.52938079512705
    Total Energy =                       -527.5293807951277358
  Basis Set: 6-31G*
  Basis Set:
  @DF-RHF Final Energy:  -527.52940634356537
    Total Energy =                       -527.5294063435651424
  @DF-RHF Final Energy:  -527.52940802634089
    Total Energy =                       -527.5294080263412297
  @DF-RHF Final Energy:  -527.52940755595932
    Total Energy =                       -527.5294075559592102
  @DF-RHF Final Energy:  -527.52940686188401
    Total Energy =                       -527.5294068618840129
  Basis Set: 6-31G*
  Basis Set:
  @DF-RHF Final Energy:  -527.52940847784316
    Total Energy =                       -527.5294084778428214
  Basis Set: 6-31G*
  Basis Set:
  Basis Set: 6-31G*
  Basis Set:
  @DF-RHF Final Energy:  -527.52940847569846
    Total Energy =                       -527.5294084756982329
  Basis Set: 6-31G*
  Basis Set:
  Basis Set: 6-31G*
  Basis Set:
  @DF-RHF Final Energy:  -527.52940759490639
    Total Energy =                       -527.5294075949067292
  Basis Set: 6-31G*
  Basis Set:
  Charge       = 0
  Multiplicity = 1
  Basis Set: 6-31G*
  Basis Set:

    Orbital Energies (a.u.)
    -----------------------

    Doubly Occupied:

       1A    -26.344496     2A    -26.343528     3A    -26.340562
       4A    -20.608548     5A    -11.503098     6A    -11.318650
       7A    -11.301233     8A    -11.216589     9A     -1.741676
      10A     -1.639731    11A     -1.638244    12A     -1.438254
      13A     -1.084149    14A     -1.016246    15A     -0.925109
      16A     -0.836924    17A     -0.830879    18A     -0.821415
      19A     -0.792468    20A     -0.721112    21A     -0.711180
      22A     -0.695392    23A     -0.675267    24A     -0.660648
      25A     -0.654506    26A     -0.643015    27A     -0.636813
      28A     -0.582884    29A     -0.563051    30A     -0.519414
      31A     -0.514027    32A     -0.351325

  @DF-RHF Final Energy:  -527.52940840515248

   => Energetics <=

    Nuclear Repulsion Energy =            414.3997334725131054
    One-Electron Energy =               -1552.5174175212562204
    Two-Electron Energy =                 610.5882756435905776
    DFT Exchange-Correlation Energy =       0.0000000000000000
    Empirical Dispersion Energy =           0.0000000000000000
    PCM Polarization Energy =               0.0000000000000000
    EFP Energy =                            0.0000000000000000
    Total Energy =                       -527.5294084051524806
    Molecular point group: c1
  Basis Set: 6-31G*
  Basis Set:

  -Total Gradient:
     Atom            X                  Y                   Z
    ------   -----------------  -----------------  -----------------
       1       -0.008591927204    -0.010077074075    -0.005572491409
       2        0.016588615521     0.016134611772     0.012603264953
       3       -0.017627227375    -0.010417610478    -0.017458582848
       4       -0.000000056596    -0.000017563639    -0.000062319522
       5        0.000162072184     0.000052010603     0.000130436601
       6        0.009600116881     0.004314224340     0.010450113985
       7       -0.000029339851    -0.000014098341    -0.000108384246
       8        0.000001130963    -0.000019216149     0.000031889648
       9        0.000039111415    -0.000011119151     0.000004356206
      10       -0.000018048195    -0.000032113803    -0.000022505117
      11       -0.000218771636     0.000021064407     0.000087337598
      12        0.000036137528     0.000148602645    -0.000047414520
      13        0.000058186361    -0.000081718127    -0.000035701326

  **** Optimization is complete! (in 12 steps) ****
    Final optimized geometry and variables:
    Molecular point group: c1

    Geometry (in Angstrom), charge = 0, multiplicity = 1:

    H           -3.584228246808     1.841000384802    -0.302171688500
    C           -2.944871006104     1.073152589084     0.090166692010
    C           -1.946430534331     0.604434614266    -0.628646340811
    H           -3.321339371305     0.502955121975     0.920158436289
    O           -1.331439581646    -0.563738190875    -0.300584016871
    H           -1.417967598163     1.192460198202    -1.359158650240
    C           -0.051192514752    -0.791889584088    -0.781433533397
    C            1.003799165432    -0.195309164467     0.122644914002
    H            0.091742298356    -0.387947382672    -1.777708071272
    H            0.103519300983    -1.860299405727    -0.810935276941
    F            2.205977244822    -0.482658432931    -0.354448363958
    F            0.903934055659     1.121995464747     0.191235448650
    F            0.930032363220    -0.669127225217     1.349149743806

  Mulliken Charges: (a.u.)
   Center  Symbol    Alpha    Beta     Spin     Total
       1     H     0.40753  0.40753  0.00000  0.18495
       2     C     3.23017  3.23017  0.00000 -0.46034
       3     C     2.89927  2.89927  0.00000  0.20145
       4     H     0.40356  0.40356  0.00000  0.19287
       5     O     4.29955  4.29955  0.00000 -0.59910
       6     H     0.40746  0.40746  0.00000  0.18507
       7     C     3.06385  3.06385  0.00000 -0.12770
       8     C     2.45582  2.45582  0.00000  1.08835
       9     H     0.40581  0.40581  0.00000  0.18837
      10     H     0.39035  0.39035  0.00000  0.21930
      11     F     4.68276  4.68276  0.00000 -0.36551
      12     F     4.67944  4.67944  0.00000 -0.35889
      13     F     4.67442  4.67442  0.00000 -0.34883

   Total alpha = 32.00000, Total beta = 32.00000, Total charge =  0.00000
