  ==> Input File <==

--------------------------------------------------------------------------
set {
	reference rhf
	basis 6-31G*
}

set_num_threads( 4 )
memory 2 gb

molecule MOL {
0 1

H	 -1.933507	 0.173161	 -0.531976
N	 -1.172117	 -0.314371	 -0.100254
C	 -0.024542	 0.565565	 0.069209
H	 -1.501586	 -0.636463	 0.790131
C	 1.271298	 -0.229563	 -0.014192
H	 -0.049409	 1.297310	 -0.731596
H	 -0.046881	 1.125219	 1.006750
H	 1.332152	 -0.753033	 -0.961461
H	 2.134169	 0.422483	 0.080702
H	 1.326077	 -0.968298	 0.781395

	symmetry c1
}
set optking {
	frozen_dihedral = ("
		1 2 3 6
	")
}

ee = optimize('scf')
oeprop('DIPOLE', 'QUADRUPOLE', 'MULLIKEN_CHARGES')
f=open( 'psi4out.xyz', 'w' )
f.write( "10  " )
f.write( str(ee) + "\n" )
f.write( MOL.save_string_xyz() )
f.close()
--------------------------------------------------------------------------

    Molecular point group: c1
  Charge       = 0
  Multiplicity = 1
  Basis Set: 6-31G*
  Basis Set:
  @DF-RHF Final Energy:  -134.24588385331316
    Total Energy =                       -134.2458838533132166
    Molecular point group: c1
  Basis Set: 6-31G*
  Basis Set:
  Basis Set: 6-31G*
  Basis Set:
  @DF-RHF Final Energy:  -134.24610752707599
    Total Energy =                       -134.2461075270761057
  Basis Set: 6-31G*
  Basis Set:
  Basis Set: 6-31G*
  Basis Set:
  @DF-RHF Final Energy:  -134.24617042856966
    Total Energy =                       -134.2461704285697692
  Basis Set: 6-31G*
  Basis Set:
  Basis Set: 6-31G*
  Basis Set:
  @DF-RHF Final Energy:  -134.24617199071409
    Total Energy =                       -134.2461719907140605
  Basis Set: 6-31G*
  Basis Set:
  Charge       = 0
  Multiplicity = 1
  Basis Set: 6-31G*
  Basis Set:

    Orbital Energies (a.u.)
    -----------------------

    Doubly Occupied:

       1A    -15.531169     2A    -11.242729     3A    -11.202014
       4A     -1.173639     5A     -0.985518     6A     -0.821500
       7A     -0.669424     8A     -0.625503     9A     -0.573883
      10A     -0.519257    11A     -0.511107    12A     -0.480631
      13A     -0.378352

  @DF-RHF Final Energy:  -134.24617219387756

   => Energetics <=

    Nuclear Repulsion Energy =             83.1785834831938899
    One-Electron Energy =                -345.4200581518068134
    Two-Electron Energy =                 127.9953024747353822
    DFT Exchange-Correlation Energy =       0.0000000000000000
    Empirical Dispersion Energy =           0.0000000000000000
    PCM Polarization Energy =               0.0000000000000000
    EFP Energy =                            0.0000000000000000
    Total Energy =                       -134.2461721938775270
    Molecular point group: c1
  Basis Set: 6-31G*
  Basis Set:

  -Total Gradient:
     Atom            X                  Y                   Z
    ------   -----------------  -----------------  -----------------
       1        0.000956095330    -0.000804485734    -0.002676230638
       2       -0.001543885386     0.001358260463     0.003711029927
       3        0.002005538468    -0.002214608884    -0.002590960081
       4        0.000002606559     0.000004173460    -0.000002283288
       5       -0.000017042468     0.000026488938    -0.000005302770
       6       -0.001413054198     0.001632293862     0.001541738147
       7        0.000005908113     0.000003021611     0.000018792624
       8        0.000000448656     0.000001746684     0.000005683638
       9        0.000006601752    -0.000013351749    -0.000002844736
      10       -0.000003216826     0.000006461350     0.000000377177

  **** Optimization is complete! (in 5 steps) ****
    Final optimized geometry and variables:
    Molecular point group: c1

    Geometry (in Angstrom), charge = 0, multiplicity = 1:

    H           -1.948002344129     0.171103446419    -0.500458968650
    N           -1.176424908923    -0.311095508928    -0.086487935138
    C           -0.015483858513     0.557318611508     0.063274440554
    H           -1.476916791030    -0.685970850169     0.790832854255
    C            1.278911998944    -0.241688092018    -0.004002424490
    H           -0.041062737901     1.294907474763    -0.732165556107
    H           -0.040498036984     1.126587176924     0.994070789976
    H            1.349847668601    -0.765705246269    -0.950238198221
    H            2.144524443420     0.406050812745     0.104325940502
    H            1.314345124720    -0.982661369386     0.789585062023

  Mulliken Charges: (a.u.)
   Center  Symbol    Alpha    Beta     Spin     Total
       1     H     0.33079  0.33079  0.00000  0.33842
       2     N     3.92439  3.92439  0.00000 -0.84877
       3     C     3.06545  3.06545  0.00000 -0.13090
       4     H     0.33267  0.33267  0.00000  0.33466
       5     C     3.22933  3.22933  0.00000 -0.45866
       6     H     0.42176  0.42176  0.00000  0.15647
       7     H     0.43159  0.43159  0.00000  0.13682
       8     H     0.41442  0.41442  0.00000  0.17116
       9     H     0.42592  0.42592  0.00000  0.14816
      10     H     0.42368  0.42368  0.00000  0.15264

   Total alpha = 13.00000, Total beta = 13.00000, Total charge = -0.00000
