  ==> Input File <==

--------------------------------------------------------------------------
set {
	reference rhf
	basis 6-31G*
}

set_num_threads( 4 )
memory 2 gb

molecule MOL {
0 1

H	 1.107218	 1.794954	 1.456924
O	 1.349666	 0.923115	 1.175909
C	 0.709265	 0.639550	 -0.033818
C	 -0.793441	 0.596080	 0.058728
H	 1.082443	 -0.326475	 -0.354344
H	 0.999171	 1.355424	 -0.802261
C	 -1.530462	 -0.493172	 -0.025500
H	 -1.268471	 1.554324	 0.202247
H	 -1.092586	 -1.461565	 -0.186463
H	 -2.602122	 -0.450675	 0.050101

	symmetry c1
}
set optking {
	frozen_dihedral = ("
		5 3 4 7
	")
}

ee = optimize('scf')
oeprop('DIPOLE', 'QUADRUPOLE', 'MULLIKEN_CHARGES')
f=open( 'psi4out.xyz', 'w' )
f.write( "10  " )
f.write( str(ee) + "\n" )
f.write( MOL.save_string_xyz() )
f.close()
--------------------------------------------------------------------------

    Molecular point group: c1
  Charge       = 0
  Multiplicity = 1
  Basis Set: 6-31G*
  Basis Set:
  @DF-RHF Final Energy:  -191.91419548254478
    Total Energy =                       -191.9141954825447556
    Molecular point group: c1
  Basis Set: 6-31G*
  Basis Set:
  Basis Set: 6-31G*
  Basis Set:
  @DF-RHF Final Energy:  -191.91440911407761
    Total Energy =                       -191.9144091140776140
  Basis Set: 6-31G*
  Basis Set:
  Basis Set: 6-31G*
  Basis Set:
  @DF-RHF Final Energy:  -191.91445131058180
    Total Energy =                       -191.9144513105817964
  Basis Set: 6-31G*
  Basis Set:
  Basis Set: 6-31G*
  Basis Set:
  @DF-RHF Final Energy:  -191.91445358497569
    Total Energy =                       -191.9144535849757176
  Basis Set: 6-31G*
  Basis Set:
  Charge       = 0
  Multiplicity = 1
  Basis Set: 6-31G*
  Basis Set:

    Orbital Energies (a.u.)
    -----------------------

    Doubly Occupied:

       1A    -20.556459     2A    -11.275880     3A    -11.231163
       4A    -11.226126     5A     -1.362973     6A     -1.062487
       7A     -0.920410     8A     -0.779875     9A     -0.684238
      10A     -0.656359    11A     -0.615767    12A     -0.569200
      13A     -0.543149    14A     -0.486816    15A     -0.440056
      16A     -0.372826

  @DF-RHF Final Energy:  -191.91445378617141

   => Energetics <=

    Nuclear Repulsion Energy =            117.4591799085921053
    One-Electron Energy =                -493.1796962768914909
    Two-Electron Energy =                 183.8060625821280496
    DFT Exchange-Correlation Energy =       0.0000000000000000
    Empirical Dispersion Energy =           0.0000000000000000
    PCM Polarization Energy =               0.0000000000000000
    EFP Energy =                            0.0000000000000000
    Total Energy =                       -191.9144537861713502
    Molecular point group: c1
  Basis Set: 6-31G*
  Basis Set:

  -Total Gradient:
     Atom            X                  Y                   Z
    ------   -----------------  -----------------  -----------------
       1       -0.000004530389     0.000004688358     0.000005630579
       2       -0.000007011344     0.000015754780    -0.000024992897
       3        0.000171703507    -0.000626496474     0.002493141626
       4       -0.000156633858     0.000351009928    -0.002406137967
       5       -0.000109197168     0.000412837325    -0.001459977921
       6        0.000007945722     0.000005248747     0.000020590165
       7        0.000101218916    -0.000154689232     0.001417195282
       8        0.000000482671    -0.000005196772    -0.000021544742
       9       -0.000007706361     0.000001291422    -0.000012204540
      10        0.000003728302    -0.000004448085    -0.000011699585

  **** Optimization is complete! (in 5 steps) ****
    Final optimized geometry and variables:
    Molecular point group: c1

    Geometry (in Angstrom), charge = 0, multiplicity = 1:

    H            1.089059349932     1.340550071693     1.132914965291
    O            1.329861431040     0.468905770923     0.851232271153
    C            0.705394892913     0.179917932154    -0.374074490175
    C           -0.796684584274     0.154076046851    -0.276711187485
    H            1.075471607439    -0.786778678305    -0.686644907108
    H            1.012351863489     0.901076124914    -1.130112951189
    C           -1.530628752356    -0.937663737018    -0.352022405283
    H           -1.280105339415     1.105960733911    -0.111839278713
    H           -1.088501668669    -1.906871268626    -0.508228257951
    H           -2.602236731788    -0.908019454493    -0.265499391345

  Mulliken Charges: (a.u.)
   Center  Symbol    Alpha    Beta     Spin     Total
       1     H     0.28295  0.28295  0.00000  0.43409
       2     O     4.36464  4.36464  0.00000 -0.72928
       3     C     3.01146  3.01146  0.00000 -0.02293
       4     C     3.07856  3.07856  0.00000 -0.15712
       5     H     0.41059  0.41059  0.00000  0.17882
       6     H     0.42703  0.42703  0.00000  0.14593
       7     C     3.19155  3.19155  0.00000 -0.38310
       8     H     0.41314  0.41314  0.00000  0.17372
       9     H     0.41027  0.41027  0.00000  0.17947
      10     H     0.40980  0.40980  0.00000  0.18039

   Total alpha = 16.00000, Total beta = 16.00000, Total charge =  0.00000
