                              Psi4 1.0.54 Driver

  ==> Input File <==

--------------------------------------------------------------------------
set {
	reference rhf
	basis cc-pvtz
}

set_num_threads( 4 )
memory 2 gb

molecule MOL {
0 1

H	 -2.375368	 1.165416	 -1.558761
N	 -1.395144	 1.134885	 -1.376283
C	 -0.784983	 -0.024947	 -1.999690
H	 -1.273485	 1.094355	 -0.386559
C	 0.697469	 -0.065267	 -1.707529
H	 -1.223803	 -0.969504	 -1.680642
H	 -0.916795	 0.048554	 -3.073596
O	 0.881195	 -0.248324	 -0.336237
H	 1.160803	 -0.881997	 -2.259296
H	 1.158393	 0.866634	 -2.026965
C	 2.208068	 -0.234417	 0.074171
H	 2.725499	 -1.027054	 -0.446768
H	 2.688377	 0.712084	 -0.164856
H	 2.295137	 -0.403407	 1.144883

	symmetry c1
}
set optking {
	frozen_dihedral = ("
		5 8 11 13
	")
}

ee,wfn = optimize('scf', return_wfn=True)
oeprop( wfn, 'DIPOLE', 'QUADRUPOLE', 'MULLIKEN_CHARGES')
f=open( 'psi4out.xyz', 'w' )
f.write( "14  " )
f.write( str(ee) + "\n" )
f.write( MOL.save_string_xyz() )
f.close()
--------------------------------------------------------------------------

    Molecular point group: c1
  Charge       = 0
  Multiplicity = 1
  Basis Set: CC-PVTZ
  Basis Set:
  @DF-RHF Final Energy:  -248.22522461797246
    Total Energy =                       -248.2252246179724011
    Molecular point group: c1
  Basis Set: CC-PVTZ
  Basis Set:
  Basis Set: CC-PVTZ
  Basis Set:
  @DF-RHF Final Energy:  -248.22598715518731
    Total Energy =                       -248.2259871551873971
  Basis Set: CC-PVTZ
  Basis Set:
  Basis Set: CC-PVTZ
  Basis Set:
  @DF-RHF Final Energy:  -248.22619417063828
    Total Energy =                       -248.2261941706380526
  Basis Set: CC-PVTZ
  Basis Set:
  Charge       = 0
  Multiplicity = 1
  Basis Set: CC-PVTZ
  Basis Set:

    Orbital Energies (a.u.)
    -----------------------

    Doubly Occupied:

       1A    -20.550797     2A    -15.523578     3A    -11.263952
       4A    -11.263643     5A    -11.239916     6A     -1.384772
       7A     -1.176056     8A     -1.000646     9A     -0.907645
      10A     -0.815835    11A     -0.685528    12A     -0.676216
      13A     -0.647450    14A     -0.612270    15A     -0.607643
      16A     -0.542219    17A     -0.530320    18A     -0.498012
      19A     -0.474598    20A     -0.420257    21A     -0.383938

  @DF-RHF Final Energy:  -248.22619504414533

   => Energetics <=

    Nuclear Repulsion Energy =            194.7129563082006882
    One-Electron Energy =                -723.4677180869173299
    Two-Electron Energy =                 280.5285667345713136
    DFT Exchange-Correlation Energy =       0.0000000000000000
    Empirical Dispersion Energy =           0.0000000000000000
    PCM Polarization Energy =               0.0000000000000000
    EFP Energy =                            0.0000000000000000
    Total Energy =                       -248.2261950441453564
    Molecular point group: c1
  Basis Set: CC-PVTZ
  Basis Set:

  -Total Gradient:
     Atom            X                  Y                   Z
    ------   -----------------  -----------------  -----------------
       1       -0.000006389013     0.000003250628    -0.000003291451
       2       -0.000012347073     0.000021795641    -0.000010686948
       3        0.000005913084    -0.000062525527     0.000150475579
       4        0.000008886295     0.000001576598    -0.000006364287
       5        0.000105028134     0.000199075786    -0.000071125421
       6       -0.000039313145    -0.000026298913    -0.000010651842
       7        0.000060433919     0.000000905586     0.000032529997
       8        0.000014297677    -0.000176961113    -0.000041118418
       9       -0.000006849110    -0.000014823977     0.000042510131
      10        0.000019964614     0.000010534022    -0.000005900271
      11       -0.000088343688     0.000053882938     0.000039093840
      12       -0.000024540088    -0.000004406354    -0.000009753285
      13        0.000006566332    -0.000011418092    -0.000106470109
      14       -0.000043307936     0.000005412776     0.000000752488

  **** Optimization is complete! (in 4 steps) ****
    Final optimized geometry and variables:
    Molecular point group: c1

    Geometry (in Angstrom), charge = 0, multiplicity = 1:

    H           -2.706382136634     1.013125062397    -0.541905142775
    N           -1.728151857372     0.996092389113    -0.347417493151
    C           -1.093933506257    -0.154070824523    -0.964648350604
    H           -1.618269173033     0.955960887742     0.643675681765
    C            0.385265343311    -0.173757276092    -0.654428247482
    H           -1.523148822501    -1.105306091218    -0.652317006273
    H           -1.213262998617    -0.081081678852    -2.040033297602
    O            0.553986974954    -0.356898740165     0.718669738608
    H            0.867097684907    -0.982851542269    -1.201607579730
    H            0.836848904354     0.765231546325    -0.966268468372
    C            1.875123935322    -0.325750026363     1.145695898072
    H            2.460544969586    -1.118652031884     0.684887934323
    H            2.345470475117     0.627113456418     0.914565716934
    H            1.881683960275    -0.467311371828     2.216795120651

  Mulliken Charges: (a.u.)
   Center  Symbol    Alpha    Beta     Spin     Total
       1     H     0.43022  0.43022  0.00000  0.13957
       2     N     3.69419  3.69419  0.00000 -0.38837
       3     C     3.02190  3.02190  0.00000 -0.04379
       4     H     0.42249  0.42249  0.00000  0.15502
       5     C     2.96943  2.96943  0.00000  0.06115
       6     H     0.46452  0.46452  0.00000  0.07095
       7     H     0.45871  0.45871  0.00000  0.08257
       8     O     4.17988  4.17988  0.00000 -0.35977
       9     H     0.46975  0.46975  0.00000  0.06051
      10     H     0.46851  0.46851  0.00000  0.06298
      11     C     3.03187  3.03187  0.00000 -0.06374
      12     H     0.47106  0.47106  0.00000  0.05787
      13     H     0.46991  0.46991  0.00000  0.06017
      14     H     0.44756  0.44756  0.00000  0.10489

   Total alpha = 21.00000, Total beta = 21.00000, Total charge = -0.00000

*** Psi4 exiting successfully. Buy a developer a beer!
