  ==> Input File <==

--------------------------------------------------------------------------
set {
	reference rhf
	basis 6-31G*
}

set_num_threads( 4 )
memory 2 gb

molecule MOL {
0 1

H	 0.297609	 7.022896	 0.683831
C	 -0.699156	 6.613740	 0.551269
C	 -0.645110	 5.121000	 0.228806
H	 -1.255251	 6.794445	 1.466390
H	 -1.182577	 7.171878	 -0.245967
C	 -2.035200	 4.513186	 0.028744
H	 -0.134281	 4.599269	 1.031584
H	 -0.053025	 4.969098	 -0.672334
C	 -2.012233	 3.023308	 -0.313312
H	 -2.628610	 4.659890	 0.924280
H	 -2.541155	 5.040957	 -0.776557
C	 -1.609178	 2.120768	 0.843499
H	 -3.005026	 2.702577	 -0.625185
H	 -1.360628	 2.829482	 -1.162440
C	 -1.181045	 0.701995	 0.511084
O	 -1.643348	 2.501082	 1.975134
C	 -2.285934	 -0.139295	 -0.145128
H	 -0.861141	 0.242167	 1.438410
H	 -0.320159	 0.747191	 -0.153383
C	 -3.651768	 0.085446	 0.506485
H	 -2.346596	 0.110469	 -1.202272
H	 -2.034737	 -1.195320	 -0.088721
C	 -4.759797	 -0.746382	 -0.137905
H	 -3.908762	 1.140117	 0.445781
H	 -3.588286	 -0.154158	 1.565709
H	 -4.868882	 -0.505166	 -1.191300
H	 -4.548009	 -1.809175	 -0.062213
H	 -5.715422	 -0.564821	 0.343442

	symmetry c1
}
set optking {
	frozen_dihedral = ("
		12 15 17 21
	")
}

ee = optimize('scf')
oeprop('DIPOLE', 'QUADRUPOLE', 'MULLIKEN_CHARGES')
f=open( 'psi4out.xyz', 'w' )
f.write( "28  " )
f.write( str(ee) + "\n" )
f.write( MOL.save_string_xyz() )
f.close()
--------------------------------------------------------------------------

    Molecular point group: c1
  Charge       = 0
  Multiplicity = 1
  Basis Set: 6-31G*
  Basis Set:
  @DF-RHF Final Energy:  -426.16476739630548
    Total Energy =                       -426.1647673963052512
    Molecular point group: c1
  Basis Set: 6-31G*
  Basis Set:
  Basis Set: 6-31G*
  Basis Set:
  @DF-RHF Final Energy:  -426.16687924643259
    Total Energy =                       -426.1668792464323587
  Basis Set: 6-31G*
  Basis Set:
  Basis Set: 6-31G*
  Basis Set:
  @DF-RHF Final Energy:  -426.16712682321031
    Total Energy =                       -426.1671268232103102
  Basis Set: 6-31G*
  Basis Set:
  Basis Set: 6-31G*
  Basis Set:
  @DF-RHF Final Energy:  -426.16623365756561
    Total Energy =                       -426.1662336575657264
  Basis Set: 6-31G*
  Basis Set:
  @DF-RHF Final Energy:  -426.16728047579738
    Total Energy =                       -426.1672804757969288
  @DF-RHF Final Energy:  -426.16731543966307
    Total Energy =                       -426.1673154396635255
  Basis Set: 6-31G*
  Basis Set:
  @DF-RHF Final Energy:  -426.16733535366814
    Total Energy =                       -426.1673353536680224
  Basis Set: 6-31G*
  Basis Set:
  Basis Set: 6-31G*
  Basis Set:
  @DF-RHF Final Energy:  -426.16734025552194
    Total Energy =                       -426.1673402555218217
  Basis Set: 6-31G*
  Basis Set:
  Basis Set: 6-31G*
  Basis Set:
  @DF-RHF Final Energy:  -426.16734288113287
    Total Energy =                       -426.1673428811328677
  Basis Set: 6-31G*
  Basis Set:
  Charge       = 0
  Multiplicity = 1
  Basis Set: 6-31G*
  Basis Set:

    Orbital Energies (a.u.)
    -----------------------

    Doubly Occupied:

       1A    -20.548791     2A    -11.322106     3A    -11.231890
       4A    -11.230333     5A    -11.228700     6A    -11.222063
       7A    -11.216323     8A    -11.214085     9A    -11.210487
      10A    -11.204731    11A     -1.393882    12A     -1.092968
      13A     -1.076164    14A     -1.020457    15A     -0.990419
      16A     -0.906921    17A     -0.872493    18A     -0.812870
      19A     -0.795889    20A     -0.720831    21A     -0.662227
      22A     -0.654657    23A     -0.627709    24A     -0.614485
      25A     -0.607740    26A     -0.584321    27A     -0.583193
      28A     -0.571364    29A     -0.548810    30A     -0.533366
      31A     -0.516431    32A     -0.508604    33A     -0.498948
      34A     -0.486329    35A     -0.475255    36A     -0.468411
      37A     -0.467949    38A     -0.462708    39A     -0.456025
      40A     -0.392493

  @DF-RHF Final Energy:  -426.16734346590920

   => Energetics <=

    Nuclear Repulsion Energy =            542.7507478500593834
    One-Electron Energy =               -1653.7693246179785547
    Two-Electron Energy =                 684.8512333020100868
    DFT Exchange-Correlation Energy =       0.0000000000000000
    Empirical Dispersion Energy =           0.0000000000000000
    PCM Polarization Energy =               0.0000000000000000
    EFP Energy =                            0.0000000000000000
    Total Energy =                       -426.1673434659089708
    Molecular point group: c1
  Basis Set: 6-31G*
  Basis Set:

  -Total Gradient:
     Atom            X                  Y                   Z
    ------   -----------------  -----------------  -----------------
       1        0.000000993596     0.000000002414    -0.000001262326
       2       -0.000002342645     0.000001212535    -0.000004986671
       3       -0.000011139232    -0.000026033043     0.000011905149
       4        0.000001093184    -0.000002198106     0.000000815919
       5       -0.000000569136    -0.000000612170    -0.000001091698
       6        0.000004041320     0.000029362347     0.000009379534
       7       -0.000000961430     0.000006601510     0.000000224141
       8        0.000001738062     0.000000294286     0.000000292660
       9       -0.000055051692    -0.000008604142     0.000001992364
      10       -0.000000503585    -0.000001390507    -0.000001721100
      11        0.000001721337     0.000004021556     0.000000401812
      12       -0.000651975950    -0.000693939893     0.002542296830
      13        0.000010994396     0.000002819001     0.000002045442
      14        0.000011433484    -0.000015323671     0.000003002177
      15        0.001432185235     0.000209977323    -0.003668749635
      16        0.000020959566    -0.000008857561    -0.000004927769
      17       -0.003197597753     0.003507809787     0.002218076044
      18        0.000093142253    -0.000088098148    -0.000056035756
      19       -0.000071661982     0.000099697250    -0.000043587479
      20        0.000020909999     0.000026107832    -0.000001831697
      21        0.002365612481    -0.003057152218    -0.000992753306
      22        0.000015144989    -0.000002215409     0.000006386238
      23        0.000000074995    -0.000013964227    -0.000013505002
      24        0.000001221290     0.000026824405     0.000003165981
      25        0.000005381513     0.000000565988    -0.000007773297
      26        0.000000159639     0.000001581289    -0.000000737414
      27       -0.000005434005    -0.000003773518     0.000000830518
      28        0.000010430068     0.000005285084    -0.000001851668

  **** Optimization is complete! (in 10 steps) ****
    Final optimized geometry and variables:
    Molecular point group: c1

    Geometry (in Angstrom), charge = 0, multiplicity = 1:

    H            2.128983132975     4.752189698979     0.694949301291
    C            1.211739532496     4.286090038150     0.348597187609
    C            1.440737517078     2.819466062583    -0.014289354718
    H            0.473812896965     4.380926317096     1.139772472218
    H            0.855066852034     4.853387470311    -0.506962147964
    C            0.168003171069     2.134793408092    -0.517790663083
    H            1.817714045183     2.288463573887     0.852700317282
    H            2.209517119578     2.755659989568    -0.782862309342
    C            0.366244452901     0.668818373596    -0.902632749389
    H           -0.604360760668     2.200549591755     0.241202583526
    H           -0.200505239637     2.670412307205    -1.389847198257
    C            0.538703429191    -0.281112146504     0.271751073955
    H           -0.487972376690     0.311487824855    -1.475921076210
    H            1.223898200728     0.555384563352    -1.563194034726
    C            0.836732995365    -1.735546933201    -0.054175656125
    O            0.423577743205     0.080599753507     1.403970904450
    C           -0.383732559102    -2.521063007145    -0.576641647530
    H            1.191654068127    -2.188017954338     0.864239980559
    H            1.637064727011    -1.790412673353    -0.786730567280
    C           -1.673303962506    -2.316147319258     0.220587073756
    H           -0.543507701576    -2.306345167650    -1.630831789058
    H           -0.117972599332    -3.574941646814    -0.543678260009
    C           -2.803482479423    -3.225766378881    -0.259675461472
    H           -1.996381505733    -1.280629353188     0.153537593723
    H           -1.476025623263    -2.500203666604     1.273160051390
    H           -3.037266708957    -3.044501471210    -1.305153872778
    H           -2.534795631894    -4.273366709901    -0.158427746080
    H           -3.708912625687    -3.059487159949     0.314960567486

  Mulliken Charges: (a.u.)
   Center  Symbol    Alpha    Beta     Spin     Total
       1     H     0.41940  0.41940  0.00000  0.16119
       2     C     3.24028  3.24028  0.00000 -0.48055
       3     C     3.15611  3.15611  0.00000 -0.31221
       4     H     0.41872  0.41872  0.00000  0.16255
       5     H     0.42409  0.42409  0.00000  0.15182
       6     C     3.14844  3.14844  0.00000 -0.29688
       7     H     0.40734  0.40734  0.00000  0.18533
       8     H     0.42813  0.42813  0.00000  0.14373
       9     C     3.21246  3.21246  0.00000 -0.42492
      10     H     0.40915  0.40915  0.00000  0.18171
      11     H     0.42219  0.42219  0.00000  0.15563
      12     C     2.73383  2.73383  0.00000  0.53234
      13     H     0.40504  0.40504  0.00000  0.18992
      14     H     0.41064  0.41064  0.00000  0.17872
      15     C     3.19958  3.19958  0.00000 -0.39915
      16     O     4.26750  4.26750  0.00000 -0.53500
      17     C     3.16171  3.16171  0.00000 -0.32342
      18     H     0.40074  0.40074  0.00000  0.19852
      19     H     0.41246  0.41246  0.00000  0.17508
      20     C     3.15727  3.15727  0.00000 -0.31454
      21     H     0.41986  0.41986  0.00000  0.16028
      22     H     0.41443  0.41443  0.00000  0.17114
      23     C     3.24037  3.24037  0.00000 -0.48074
      24     H     0.41931  0.41931  0.00000  0.16139
      25     H     0.41209  0.41209  0.00000  0.17582
      26     H     0.42210  0.42210  0.00000  0.15579
      27     H     0.42069  0.42069  0.00000  0.15863
      28     H     0.41608  0.41608  0.00000  0.16784

   Total alpha = 40.00000, Total beta = 40.00000, Total charge = -0.00000
