                              Psi4 1.0.54 Driver

  ==> Input File <==

--------------------------------------------------------------------------
set {
	reference rhf
	basis cc-pvtz
}

set_num_threads( 4 )
memory 2 gb

molecule MOL {
0 1

H	 -2.361825	 -0.170123	 -0.862546
N	 -1.851927	 0.161443	 -0.071573
C	 -0.561396	 -0.500007	 0.035200
H	 -2.411828	 -0.016963	 0.735903
C	 0.575129	 0.507849	 -0.048832
H	 -0.478089	 -1.200753	 -0.788956
H	 -0.456191	 -1.081816	 0.952176
C	 1.951750	 -0.141983	 0.035101
H	 0.478254	 1.061643	 -0.975981
H	 0.467676	 1.231891	 0.755499
H	 2.101550	 -0.848142	 -0.774949
H	 2.738260	 0.600794	 -0.026526
H	 2.078939	 -0.679792	 0.968824

	symmetry c1
}
set optking {
	frozen_dihedral = ("
		1 2 3 6
	")
}

ee,wfn = optimize('scf', return_wfn=True)
oeprop( wfn, 'DIPOLE', 'QUADRUPOLE', 'MULLIKEN_CHARGES')
f=open( 'psi4out.xyz', 'w' )
f.write( "13  " )
f.write( str(ee) + "\n" )
f.write( MOL.save_string_xyz() )
f.close()
--------------------------------------------------------------------------

    Molecular point group: c1
  Charge       = 0
  Multiplicity = 1
  Basis Set: CC-PVTZ
  Basis Set:
  @DF-RHF Final Energy:  -173.34902048765255
    Total Energy =                       -173.3490204876525240
    Molecular point group: c1
  Basis Set: CC-PVTZ
  Basis Set:
  Basis Set: CC-PVTZ
  Basis Set:
  @DF-RHF Final Energy:  -173.34956047063454
    Total Energy =                       -173.3495604706345148
  Basis Set: CC-PVTZ
  Basis Set:
  Basis Set: CC-PVTZ
  Basis Set:
  @DF-RHF Final Energy:  -173.34971370827040
    Total Energy =                       -173.3497137082704853
  Basis Set: CC-PVTZ
  Basis Set:
  Basis Set: CC-PVTZ
  Basis Set:
  @DF-RHF Final Energy:  -173.34971693993958
    Total Energy =                       -173.3497169399395830
  Basis Set: CC-PVTZ
  Basis Set:
  Charge       = 0
  Multiplicity = 1
  Basis Set: CC-PVTZ
  Basis Set:

    Orbital Energies (a.u.)
    -----------------------

    Doubly Occupied:

       1A    -15.525089     2A    -11.239182     3A    -11.204441
       4A    -11.203814     5A     -1.174951     6A     -1.033997
       7A     -0.899182     8A     -0.794815     9A     -0.676738
      10A     -0.613410    11A     -0.602982    12A     -0.574384
      13A     -0.516934    14A     -0.492182    15A     -0.485901
      16A     -0.463191    17A     -0.380020

  @DF-RHF Final Energy:  -173.34971777398633

   => Energetics <=

    Nuclear Repulsion Energy =            131.5843346937126341
    One-Electron Energy =                -494.1056784267568105
    Two-Electron Energy =                 189.1716259590578204
    DFT Exchange-Correlation Energy =       0.0000000000000000
    Empirical Dispersion Energy =           0.0000000000000000
    PCM Polarization Energy =               0.0000000000000000
    EFP Energy =                            0.0000000000000000
    Total Energy =                       -173.3497177739863844
    Molecular point group: c1
  Basis Set: CC-PVTZ
  Basis Set:

  -Total Gradient:
     Atom            X                  Y                   Z
    ------   -----------------  -----------------  -----------------
       1        0.000147691002     0.000209546681    -0.000178445159
       2       -0.000244677018    -0.000233919364     0.000218343735
       3        0.000247516180     0.000258773927    -0.000227856707
       4       -0.000015700968    -0.000021066888     0.000023140362
       5       -0.000054684103    -0.000050693615     0.000027544519
       6       -0.000119178744    -0.000183008850     0.000140169379
       7        0.000034024223     0.000028704135     0.000000388336
       8        0.000012165242     0.000012982674    -0.000005683279
       9       -0.000015265661    -0.000027433779     0.000007568209
      10        0.000001508360    -0.000004190588    -0.000005648403
      11       -0.000013334245     0.000008377682     0.000012181368
      12        0.000023627503    -0.000005979174     0.000000210152
      13       -0.000003691773     0.000007907160    -0.000011912511

  **** Optimization is complete! (in 5 steps) ****
    Final optimized geometry and variables:
    Molecular point group: c1

    Geometry (in Angstrom), charge = 0, multiplicity = 1:

    H           -2.359413529002    -0.165583969299    -0.925536917225
    N           -1.857893374295     0.156984715996    -0.128733139276
    C           -0.555267299865    -0.490134106601     0.000412945980
    H           -2.431452596019     0.009949534575     0.671318106548
    C            0.584047342293     0.520986201849    -0.002329621640
    H           -0.407036595843    -1.196288404648    -0.811442500611
    H           -0.510076496964    -1.073532906324     0.916037143228
    C            1.956049292178    -0.130187296631     0.132102191870
    H            0.533234489569     1.097417970859    -0.920341961906
    H            0.425322678006     1.225052987254     0.808329548872
    H            2.147425243322    -0.819009692807    -0.684678953349
    H            2.744687279056     0.612969956386     0.126126549428
    H            2.038507978032    -0.689408881685     1.058755674652

  Mulliken Charges: (a.u.)
   Center  Symbol    Alpha    Beta     Spin     Total
       1     H     0.42572  0.42572  0.00000  0.14857
       2     N     3.69788  3.69788  0.00000 -0.39576
       3     C     3.03996  3.03996  0.00000 -0.07991
       4     H     0.42610  0.42610  0.00000  0.14779
       5     C     3.06054  3.06054  0.00000 -0.12107
       6     H     0.45853  0.45853  0.00000  0.08293
       7     H     0.45921  0.45921  0.00000  0.08159
       8     C     3.15595  3.15595  0.00000 -0.31191
       9     H     0.45672  0.45672  0.00000  0.08656
      10     H     0.45730  0.45730  0.00000  0.08540
      11     H     0.45722  0.45722  0.00000  0.08556
      12     H     0.44761  0.44761  0.00000  0.10477
      13     H     0.45727  0.45727  0.00000  0.08547

   Total alpha = 17.00000, Total beta = 17.00000, Total charge = -0.00000

*** Psi4 exiting successfully. Buy a developer a beer!
