  ==> Input File <==

--------------------------------------------------------------------------
set {
	reference rhf
	basis 6-31G*
}

set_num_threads( 4 )
memory 2 gb

molecule MOL {
0 1

H	 5.268524	 0.192471	 1.070992
C	 4.673736	 -0.214914	 0.259335
C	 3.185378	 -0.203514	 0.605509
H	 4.871837	 0.380453	 -0.627026
H	 5.025590	 -1.224632	 0.065769
C	 2.317601	 -0.778379	 -0.516234
H	 2.874655	 0.814325	 0.817774
H	 3.023650	 -0.778480	 1.515976
C	 1.361848	 -1.878078	 -0.053130
H	 1.742427	 0.017813	 -0.975468
H	 2.962834	 -1.189593	 -1.289292
C	 0.206148	 -1.383893	 0.804412
H	 0.918169	 -2.367763	 -0.918652
H	 1.897583	 -2.658145	 0.483211
C	 -0.552492	 -2.414721	 1.622075
O	 -0.110264	 -0.232424	 0.824644
C	 -1.255440	 -3.482922	 0.771209
H	 -1.277583	 -1.874467	 2.218802
H	 0.145784	 -2.898440	 2.302598
C	 -2.088763	 -4.445605	 1.619398
H	 -1.900284	 -2.994537	 0.043699
H	 -0.522296	 -4.051633	 0.205047
C	 -2.793385	 -5.513481	 0.783902
H	 -2.827489	 -3.880140	 2.182066
H	 -1.445894	 -4.925985	 2.353802
H	 -3.468351	 -5.063813	 0.061445
H	 -2.077532	 -6.119091	 0.235356
H	 -3.376959	 -6.179241	 1.411662

	symmetry c1
}
set optking {
	frozen_dihedral = ("
		10 6 3 2
	")
}

ee = optimize('scf')
oeprop('DIPOLE', 'QUADRUPOLE', 'MULLIKEN_CHARGES')
f=open( 'psi4out.xyz', 'w' )
f.write( "28  " )
f.write( str(ee) + "\n" )
f.write( MOL.save_string_xyz() )
f.close()
--------------------------------------------------------------------------

    Molecular point group: c1
  Charge       = 0
  Multiplicity = 1
  Basis Set: 6-31G*
  Basis Set:
  @DF-RHF Final Energy:  -426.16366651757085
    Total Energy =                       -426.1636665175707321
    Molecular point group: c1
  Basis Set: 6-31G*
  Basis Set:
  Basis Set: 6-31G*
  Basis Set:
  @DF-RHF Final Energy:  -426.16401955968342
    Total Energy =                       -426.1640195596830836
  Basis Set: 6-31G*
  Basis Set:
  Basis Set: 6-31G*
  Basis Set:
  @DF-RHF Final Energy:  -426.16398382454690
    Total Energy =                       -426.1639838245469036
  Basis Set: 6-31G*
  Basis Set:
  Basis Set: 6-31G*
  Basis Set:
  @DF-RHF Final Energy:  -426.16414662260900
    Total Energy =                       -426.1641466226086550
  Basis Set: 6-31G*
  Basis Set:
  @DF-RHF Final Energy:  -426.16416955207160
    Total Energy =                       -426.1641695520715984
  Basis Set: 6-31G*
  Basis Set:
  @DF-RHF Final Energy:  -426.16398143340348
    Total Energy =                       -426.1639814334035918
  Basis Set: 6-31G*
  Basis Set:
  Basis Set: 6-31G*
  Basis Set:
  @DF-RHF Final Energy:  -426.16417903637205
    Total Energy =                       -426.1641790363721611
  Basis Set: 6-31G*
  Basis Set:
  Basis Set: 6-31G*
  Basis Set:
  @DF-RHF Final Energy:  -426.16418168996233
    Total Energy =                       -426.1641816899623336
  Basis Set: 6-31G*
  Basis Set:
  Charge       = 0
  Multiplicity = 1
  Basis Set: 6-31G*
  Basis Set:

    Orbital Energies (a.u.)
    -----------------------

    Doubly Occupied:

       1A    -20.548240     2A    -11.321583     3A    -11.232373
       4A    -11.229819     5A    -11.228749     6A    -11.226056
       7A    -11.216304     8A    -11.216060     9A    -11.211744
      10A    -11.207157    11A     -1.393134    12A     -1.094836
      13A     -1.075486    14A     -1.021996    15A     -0.990741
      16A     -0.907474    17A     -0.872931    18A     -0.809291
      19A     -0.800484    20A     -0.721819    21A     -0.666138
      22A     -0.651209    23A     -0.637047    24A     -0.619341
      25A     -0.601764    26A     -0.587443    27A     -0.579709
      28A     -0.575255    29A     -0.541748    30A     -0.534804
      31A     -0.518634    32A     -0.504171    33A     -0.503313
      34A     -0.484895    35A     -0.480069    36A     -0.475847
      37A     -0.469832    38A     -0.459860    39A     -0.455250
      40A     -0.392446

  @DF-RHF Final Energy:  -426.16418199155135

   => Energetics <=

    Nuclear Repulsion Energy =            531.6405194980469560
    One-Electron Energy =               -1631.4793032402128574
    Two-Electron Energy =                 673.6746017506150110
    DFT Exchange-Correlation Energy =       0.0000000000000000
    Empirical Dispersion Energy =           0.0000000000000000
    PCM Polarization Energy =               0.0000000000000000
    EFP Energy =                            0.0000000000000000
    Total Energy =                       -426.1641819915510041
    Molecular point group: c1
  Basis Set: 6-31G*
  Basis Set:

  -Total Gradient:
     Atom            X                  Y                   Z
    ------   -----------------  -----------------  -----------------
       1        0.000002710934     0.000001822121     0.000006596058
       2        0.000192364847    -0.001407570972     0.000707697379
       3       -0.000697984723     0.001843965489    -0.000678603383
       4       -0.000003465798    -0.000000527434    -0.000001423449
       5       -0.000013988849     0.000002746972     0.000004277227
       6        0.002119788350    -0.000073201214    -0.001469203815
       7        0.000016382968     0.000003570094    -0.000015570563
       8       -0.000004719850    -0.000014205168    -0.000002127714
       9        0.000011884746    -0.000013848693     0.000046928790
      10       -0.001638107409    -0.000350822580     0.001445121501
      11        0.000006197360     0.000002855453    -0.000003340262
      12       -0.000008095333    -0.000013388448     0.000003622116
      13       -0.000020793860    -0.000008708288    -0.000007861420
      14        0.000000773529     0.000000388410    -0.000004053454
      15       -0.000063234927    -0.000007465734    -0.000054265411
      16        0.000017782610    -0.000005404340    -0.000000640083
      17        0.000013273251     0.000032251996     0.000014347385
      18       -0.000004667020     0.000005255385     0.000011838902
      19        0.000019107686     0.000005176445    -0.000002078669
      20        0.000029781385    -0.000005425072     0.000016957680
      21       -0.000003100733    -0.000009618856    -0.000022608123
      22        0.000035076441     0.000003041262     0.000005096250
      23       -0.000018457952     0.000019183884    -0.000004779346
      24        0.000015053407    -0.000000587258     0.000009135110
      25        0.000002195862    -0.000014232065    -0.000004085956
      26        0.000000469887    -0.000002262007    -0.000009923555
      27        0.000000718013     0.000000000605     0.000009279784
      28       -0.000006944823     0.000007010018    -0.000000332979

  **** Optimization is complete! (in 9 steps) ****
    Final optimized geometry and variables:
    Molecular point group: c1

    Geometry (in Angstrom), charge = 0, multiplicity = 1:

    H            4.695139365518     2.461549302369     0.377799991942
    C            4.145414640267     1.968688779369    -0.418325484746
    C            2.650091367101     1.909331561819    -0.104902697644
    H            4.333506136181     2.516728526401    -1.337612933392
    H            4.559380856803     0.971270768854    -0.539865790154
    C            1.823814241913     1.227146199860    -1.217753930169
    H            2.271042776033     2.908869644946     0.072616151486
    H            2.517818057404     1.373715985646     0.832460984924
    C            0.901071118970     0.118586726079    -0.711088208652
    H            1.212347963521     1.962530034466    -1.726483290713
    H            2.489219159886     0.795311934498    -1.960079368865
    C           -0.233328197794     0.620394014878     0.168874529857
    H            0.446157220931    -0.400204839656    -1.553466161562
    H            1.463347340766    -0.637829220865    -0.167342725011
    C           -1.013934732820    -0.408248884155     0.968653557048
    O           -0.512771267005     1.780287288319     0.224293668986
    C           -1.770050415845    -1.423809894084     0.099199746639
    H           -1.708728754036     0.138929038370     1.594425288589
    H           -0.322668133684    -0.937622170441     1.621754913724
    C           -2.629660332667    -2.375831305359     0.933034369074
    H           -2.404516852972    -0.890646179824    -0.605638273179
    H           -1.067631832478    -2.005317525576    -0.492315245712
    C           -3.390961479250    -3.388662969717     0.078924949683
    H           -3.335436696100    -1.797109107745     1.523787470234
    H           -1.996250808024    -2.903715908751     1.642661617794
    H           -4.056423764462    -2.890413851258    -0.620098458501
    H           -2.709446346312    -4.007923675015    -0.497401519881
    H           -3.993327011041    -4.046978641373     0.696742604948

  Mulliken Charges: (a.u.)
   Center  Symbol    Alpha    Beta     Spin     Total
       1     H     0.41992  0.41992  0.00000  0.16016
       2     C     3.24114  3.24114  0.00000 -0.48228
       3     C     3.15316  3.15316  0.00000 -0.30633
       4     H     0.42124  0.42124  0.00000  0.15752
       5     H     0.42449  0.42449  0.00000  0.15101
       6     C     3.15167  3.15167  0.00000 -0.30334
       7     H     0.40869  0.40869  0.00000  0.18262
       8     H     0.42594  0.42594  0.00000  0.14812
       9     C     3.21300  3.21300  0.00000 -0.42600
      10     H     0.40617  0.40617  0.00000  0.18766
      11     H     0.41932  0.41932  0.00000  0.16136
      12     C     2.73161  2.73161  0.00000  0.53678
      13     H     0.40457  0.40457  0.00000  0.19087
      14     H     0.41288  0.41288  0.00000  0.17425
      15     C     3.20135  3.20135  0.00000 -0.40271
      16     O     4.26597  4.26597  0.00000 -0.53194
      17     C     3.16373  3.16373  0.00000 -0.32747
      18     H     0.39974  0.39974  0.00000  0.20053
      19     H     0.41320  0.41320  0.00000  0.17360
      20     C     3.15180  3.15180  0.00000 -0.30359
      21     H     0.41376  0.41376  0.00000  0.17247
      22     H     0.41880  0.41880  0.00000  0.16241
      23     C     3.24033  3.24033  0.00000 -0.48065
      24     H     0.41838  0.41838  0.00000  0.16324
      25     H     0.42144  0.42144  0.00000  0.15712
      26     H     0.41960  0.41960  0.00000  0.16079
      27     H     0.42121  0.42121  0.00000  0.15758
      28     H     0.41689  0.41689  0.00000  0.16623

   Total alpha = 40.00000, Total beta = 40.00000, Total charge =  0.00000
