                              Psi4 1.0.54 Driver

  ==> Input File <==

--------------------------------------------------------------------------
set {
	reference rhf
	basis cc-pvtz
}

set_num_threads( 4 )
memory 2 gb

molecule MOL {
0 1

H	 1.170731	 -1.007176	 0.866486
O	 1.328752	 -0.609573	 0.028993
C	 0.706474	 0.636793	 -0.025501
C	 -0.793473	 0.591216	 0.050087
H	 1.002626	 1.086595	 -0.965859
H	 1.078275	 1.290614	 0.761253
C	 -1.534243	 -0.493009	 -0.013340
H	 -1.266611	 1.552628	 0.164437
H	 -1.101195	 -1.466332	 -0.144046
H	 -2.604242	 -0.437780	 0.050785

	symmetry c1
}
set optking {
	frozen_dihedral = ("
		5 3 4 7
	")
}

ee,wfn = optimize('scf', return_wfn=True)
oeprop( wfn, 'DIPOLE', 'QUADRUPOLE', 'MULLIKEN_CHARGES')
f=open( 'psi4out.xyz', 'w' )
f.write( "10  " )
f.write( str(ee) + "\n" )
f.write( MOL.save_string_xyz() )
f.close()
--------------------------------------------------------------------------

    Molecular point group: c1
  Charge       = 0
  Multiplicity = 1
  Basis Set: CC-PVTZ
  Basis Set:
  @DF-RHF Final Energy:  -191.99879885889658
    Total Energy =                       -191.9987988588966061
    Molecular point group: c1
  Basis Set: CC-PVTZ
  Basis Set:
  Basis Set: CC-PVTZ
  Basis Set:
  @DF-RHF Final Energy:  -191.99881153110823
    Total Energy =                       -191.9988115311082311
  Basis Set: CC-PVTZ
  Basis Set:
  Basis Set: CC-PVTZ
  Basis Set:
  @DF-RHF Final Energy:  -191.99881635599871
    Total Energy =                       -191.9988163559987413
  Basis Set: CC-PVTZ
  Basis Set:
  Charge       = 0
  Multiplicity = 1
  Basis Set: CC-PVTZ
  Basis Set:

    Orbital Energies (a.u.)
    -----------------------

    Doubly Occupied:

       1A    -20.554229     2A    -11.278063     3A    -11.230435
       4A    -11.216852     5A     -1.374570     6A     -1.062268
       7A     -0.932036     8A     -0.772173     9A     -0.691500
      10A     -0.665496    11A     -0.620359    12A     -0.574572
      13A     -0.541888    14A     -0.495384    15A     -0.452717
      16A     -0.369270

  @DF-RHF Final Energy:  -191.99881640404607

   => Energetics <=

    Nuclear Repulsion Energy =            119.5420685381712502
    One-Electron Energy =                -497.4181412094858388
    Two-Electron Energy =                 185.8772562672685069
    DFT Exchange-Correlation Energy =       0.0000000000000000
    Empirical Dispersion Energy =           0.0000000000000000
    PCM Polarization Energy =               0.0000000000000000
    EFP Energy =                            0.0000000000000000
    Total Energy =                       -191.9988164040460958
    Molecular point group: c1
  Basis Set: CC-PVTZ
  Basis Set:

  -Total Gradient:
     Atom            X                  Y                   Z
    ------   -----------------  -----------------  -----------------
       1        0.000001875735     0.000009549631    -0.000005065290
       2       -0.000006539424     0.000004814145    -0.000002083296
       3       -0.000014414709     0.000725270041     0.000023903466
       4        0.000048743010    -0.000206319687     0.000860150171
       5        0.000010322676    -0.000578766141    -0.000268421302
       6       -0.000005672552    -0.000003170931    -0.000001958834
       7       -0.000036839977     0.000040195343    -0.000576766162
       8       -0.000001312926     0.000001189197    -0.000004664447
       9        0.000002616186     0.000003659712    -0.000010447806
      10        0.000001221981     0.000003578691    -0.000014646500

  **** Optimization is complete! (in 4 steps) ****
    Final optimized geometry and variables:
    Molecular point group: c1

    Geometry (in Angstrom), charge = 0, multiplicity = 1:

    H            1.163371906414    -1.002762689844     0.838308309296
    O            1.330900197218    -0.600876024799     0.004665345624
    C            0.700563408066     0.641873435892    -0.053220710510
    C           -0.799379412318     0.584397533058     0.025054334816
    H            0.991033584678     1.084819338029    -0.998588402142
    H            1.070973067268     1.301589248505     0.728841296304
    C           -1.528869863017    -0.508077520667    -0.026732040447
    H           -1.282949742784     1.542796299204     0.118491237001
    H           -1.084478020919    -1.478673433915    -0.138075540957
    H           -2.599725962535    -0.462836553898     0.030646715881

  Mulliken Charges: (a.u.)
   Center  Symbol    Alpha    Beta     Spin     Total
       1     H     0.39118  0.39118  0.00000  0.21764
       2     O     4.19954  4.19954  0.00000 -0.39907
       3     C     2.95062  2.95062  0.00000  0.09875
       4     C     3.08657  3.08657  0.00000 -0.17313
       5     H     0.45313  0.45313  0.00000  0.09374
       6     H     0.46786  0.46786  0.00000  0.06428
       7     C     3.17623  3.17623  0.00000 -0.35246
       8     H     0.42330  0.42330  0.00000  0.15339
       9     H     0.42351  0.42351  0.00000  0.15297
      10     H     0.42805  0.42805  0.00000  0.14389

   Total alpha = 16.00000, Total beta = 16.00000, Total charge = -0.00000

*** Psi4 exiting successfully. Buy a developer a beer!
