                              Psi4 1.0.54 Driver

  ==> Input File <==

--------------------------------------------------------------------------
set {
	reference rhf
	basis cc-pvtz
}

set_num_threads( 4 )
memory 2 gb

molecule MOL {
0 1

H	 -3.139383	 0.245530	 4.784405
O	 -2.466022	 0.208900	 5.437913
C	 -1.766258	 -1.004066	 5.346723
C	 -0.848906	 -1.085446	 4.135720
H	 -1.177950	 -1.074427	 6.251668
H	 -2.459493	 -1.843038	 5.347180
C	 -1.579029	 -1.083718	 2.794539
H	 -0.151936	 -0.253619	 4.173864
H	 -0.259843	 -1.995237	 4.223370
C	 -0.628410	 -1.199755	 1.603869
H	 -2.161422	 -0.172835	 2.704467
H	 -2.286062	 -1.911186	 2.768320
C	 -1.311023	 -1.277304	 0.237018
H	 0.060325	 -0.358463	 1.613738
H	 -0.019262	 -2.089930	 1.734238
C	 -2.041121	 -0.006551	 -0.194127
H	 -0.555888	 -1.511417	 -0.508294
H	 -2.008341	 -2.112093	 0.231415
C	 -3.489218	 0.042606	 0.286507
H	 -2.022185	 0.066287	 -1.279394
H	 -1.518764	 0.869305	 0.178730
C	 -4.219984	 1.311773	 -0.139038
H	 -4.022855	 -0.824300	 -0.093339
H	 -3.510372	 -0.038577	 1.370031
H	 -4.244251	 1.405725	 -1.219696
H	 -5.244345	 1.313233	 0.215630
H	 -3.732090	 2.196311	 0.257073

	symmetry c1
}
set optking {
	frozen_dihedral = ("
		10 13 16 20
	")
}

ee,wfn = optimize('scf', return_wfn=True)
oeprop( wfn, 'DIPOLE', 'QUADRUPOLE', 'MULLIKEN_CHARGES')
f=open( 'psi4out.xyz', 'w' )
f.write( "27  " )
f.write( str(ee) + "\n" )
f.write( MOL.save_string_xyz() )
f.close()
--------------------------------------------------------------------------

    Molecular point group: c1
  Charge       = 0
  Multiplicity = 1
  Basis Set: CC-PVTZ
  Basis Set:
  @DF-RHF Final Energy:  -388.42109429234409
    Total Energy =                       -388.4210942923436960
    Molecular point group: c1
  Basis Set: CC-PVTZ
  Basis Set:
  Basis Set: CC-PVTZ
  Basis Set:
  @DF-RHF Final Energy:  -388.41798016968102
    Total Energy =                       -388.4179801696811865
  Basis Set: CC-PVTZ
  Basis Set:
  Basis Set: CC-PVTZ
  Basis Set:
  @DF-RHF Final Energy:  -388.42277327214305
    Total Energy =                       -388.4227732721436723
  Basis Set: CC-PVTZ
  Basis Set:
  Basis Set: CC-PVTZ
  Basis Set:
  @DF-RHF Final Energy:  -388.42295474846969
    Total Energy =                       -388.4229547484701470
  Basis Set: CC-PVTZ
  Basis Set:
  Basis Set: CC-PVTZ
  Basis Set:
  @DF-RHF Final Energy:  -388.42307895726231
    Total Energy =                       -388.4230789572627600
  Basis Set: CC-PVTZ
  Basis Set:
  Basis Set: CC-PVTZ
  Basis Set:
  @DF-RHF Final Energy:  -388.42308161543923
    Total Energy =                       -388.4230816154399690
  Basis Set: CC-PVTZ
  Basis Set:
  Basis Set: CC-PVTZ
  Basis Set:
  @DF-RHF Final Energy:  -388.42308626286274
    Total Energy =                       -388.4230862628623981
  Basis Set: CC-PVTZ
  Basis Set:
  Charge       = 0
  Multiplicity = 1
  Basis Set: CC-PVTZ
  Basis Set:

    Orbital Energies (a.u.)
    -----------------------

    Doubly Occupied:

       1A    -20.545703     2A    -11.265236     3A    -11.216782
       4A    -11.214958     5A    -11.214230     6A    -11.213850
       7A    -11.213291     8A    -11.212834     9A    -11.207814
      10A     -1.363530    11A     -1.095088    12A     -1.061366
      13A     -1.012296    14A     -0.950747    15A     -0.890178
      16A     -0.827645    17A     -0.796065    18A     -0.776959
      19A     -0.696649    20A     -0.655058    21A     -0.633897
      22A     -0.613112    23A     -0.602561    24A     -0.590700
      25A     -0.578765    26A     -0.561272    27A     -0.542072
      28A     -0.518098    29A     -0.511302    30A     -0.497426
      31A     -0.490020    32A     -0.477437    33A     -0.470698
      34A     -0.459501    35A     -0.446945    36A     -0.441475
      37A     -0.425168

  @DF-RHF Final Energy:  -388.42308634261866

   => Energetics <=

    Nuclear Repulsion Energy =            470.0400985562753817
    One-Electron Energy =               -1458.3449120754889918
    Two-Electron Energy =                 599.8817271765944952
    DFT Exchange-Correlation Energy =       0.0000000000000000
    Empirical Dispersion Energy =           0.0000000000000000
    PCM Polarization Energy =               0.0000000000000000
    EFP Energy =                            0.0000000000000000
    Total Energy =                       -388.4230863426191718
    Molecular point group: c1
  Basis Set: CC-PVTZ
  Basis Set:

  -Total Gradient:
     Atom            X                  Y                   Z
    ------   -----------------  -----------------  -----------------
       1        0.000000888306    -0.000009667477    -0.000003690355
       2        0.000006687398     0.000020493794     0.000020578323
       3       -0.000000802133    -0.000020725750    -0.000025799334
       4        0.000000874062    -0.000003887841     0.000004488643
       5       -0.000010180415     0.000016853424     0.000005481111
       6       -0.000004413543    -0.000006251775     0.000004998406
       7       -0.000003945783     0.000010158305    -0.000002458520
       8        0.000002842407     0.000003874720    -0.000002573480
       9        0.000007298349    -0.000006657234    -0.000001180218
      10       -0.000541122940    -0.000382312520     0.000304684854
      11       -0.000005395448     0.000003451594     0.000004488350
      12       -0.000000840066    -0.000009215896     0.000001675410
      13        0.000635881338     0.000409536399    -0.000455080514
      14        0.000003911248     0.000001670911    -0.000002156528
      15        0.000001186026    -0.000000941306    -0.000006152773
      16        0.000597644230     0.000651247585     0.000220111353
      17       -0.000000075337    -0.000001140420     0.000002243727
      18       -0.000001362948    -0.000000997760    -0.000001190153
      19       -0.000002408405    -0.000000922856     0.000005184756
      20       -0.000688705053    -0.000678110241    -0.000068182235
      21        0.000000245470     0.000004453312     0.000001433029
      22        0.000003182153    -0.000002179202    -0.000000801985
      23       -0.000001347920    -0.000001126910    -0.000000463499
      24        0.000000065071     0.000001428899    -0.000008892804
      25        0.000000818273    -0.000001191560     0.000002257056
      26        0.000000098080    -0.000000676713     0.000000034644
      27       -0.000001022421     0.000002836520     0.000000962747

  **** Optimization is complete! (in 8 steps) ****
    Final optimized geometry and variables:
    Molecular point group: c1

    Geometry (in Angstrom), charge = 0, multiplicity = 1:

    H           -1.077474408232     0.499207559249     2.710284738559
    O           -0.381123910187     0.528318705028     3.339372695832
    C            0.468999476804    -0.576154494386     3.175101126923
    C            1.356638595143    -0.480294170170     1.943263090831
    H            1.085380559677    -0.609198205492     4.063330489174
    H           -0.108067824811    -1.498433679117     3.149115517870
    C            0.597182888061    -0.510025544938     0.618547809521
    H            1.941183533663     0.432469807991     2.009341494425
    H            2.060343771704    -1.308641046440     1.973242765038
    C            1.528966932675    -0.430753329182    -0.589279632229
    H           -0.101447600296     0.318617639250     0.590589001827
    H            0.006705360028    -1.422491245197     0.562475915590
    C            0.889108666458    -0.612962834500    -1.969571465069
    H            2.050942454887     0.522880451341    -0.567203593494
    H            2.295681748611    -1.193094130724    -0.479102858251
    C           -0.117480547882     0.459049833986    -2.415591336969
    H            1.700095451630    -0.635836048727    -2.690234543590
    H            0.418302155387    -1.591894805044    -2.022789611911
    C           -1.575828299117     0.197793432040    -2.035448747234
    H           -0.078574016550     0.532473290321    -3.498583950152
    H            0.191496265040     1.430574388357    -2.037044992922
    C           -2.517593244136     1.288539139751    -2.535851573568
    H           -1.880118906473    -0.757700470016    -2.453998962456
    H           -1.680787083578     0.103172703767    -0.961570456342
    H           -2.466509675440     1.385123690002    -3.615282187469
    H           -3.546389399637     1.071187087795    -2.272133809518
    H           -2.263285558354     2.252536347843    -2.107608001259

  Mulliken Charges: (a.u.)
   Center  Symbol    Alpha    Beta     Spin     Total
       1     H     0.39232  0.39232  0.00000  0.21536
       2     O     4.20548  4.20548  0.00000 -0.41095
       3     C     2.98107  2.98107  0.00000  0.03786
       4     C     3.08886  3.08886  0.00000 -0.17771
       5     H     0.44819  0.44819  0.00000  0.10362
       6     H     0.46942  0.46942  0.00000  0.06115
       7     C     3.10919  3.10919  0.00000 -0.21838
       8     H     0.45097  0.45097  0.00000  0.09807
       9     H     0.45512  0.45512  0.00000  0.08975
      10     C     3.09346  3.09346  0.00000 -0.18693
      11     H     0.45458  0.45458  0.00000  0.09085
      12     H     0.45066  0.45066  0.00000  0.09867
      13     C     3.10455  3.10455  0.00000 -0.20910
      14     H     0.45127  0.45127  0.00000  0.09746
      15     H     0.44862  0.44862  0.00000  0.10275
      16     C     3.09974  3.09974  0.00000 -0.19947
      17     H     0.44318  0.44318  0.00000  0.11365
      18     H     0.45433  0.45433  0.00000  0.09133
      19     C     3.08364  3.08364  0.00000 -0.16727
      20     H     0.44664  0.44664  0.00000  0.10673
      21     H     0.45194  0.45194  0.00000  0.09613
      22     C     3.15123  3.15123  0.00000 -0.30247
      23     H     0.45344  0.45344  0.00000  0.09312
      24     H     0.45536  0.45536  0.00000  0.08929
      25     H     0.45379  0.45379  0.00000  0.09241
      26     H     0.44833  0.44833  0.00000  0.10333
      27     H     0.45463  0.45463  0.00000  0.09074

   Total alpha = 37.00000, Total beta = 37.00000, Total charge = -0.00000

*** Psi4 exiting successfully. Buy a developer a beer!
