                              Psi4 1.0.54 Driver

  ==> Input File <==

--------------------------------------------------------------------------
set {
	reference rhf
	basis cc-pvtz
}

set_num_threads( 4 )
memory 2 gb

molecule MOL {
0 1

H	 -3.059842	 0.231259	 0.401010
O	 -2.346257	 -0.289210	 0.080372
C	 -1.183935	 0.486039	 -0.009831
C	 0.062853	 -0.375310	 0.027457
H	 -1.178881	 1.094526	 -0.908634
H	 -1.184406	 1.155156	 0.838676
O	 1.172093	 0.457955	 -0.054438
H	 0.052476	 -1.081302	 -0.804627
H	 0.076323	 -0.955658	 0.947560
C	 2.395478	 -0.199028	 -0.000366
H	 2.505946	 -0.901710	 -0.823354
H	 3.174616	 0.545641	 -0.071768
H	 2.513730	 -0.742241	 0.934223

	symmetry c1
}
set optking {
	frozen_dihedral = ("
		1 2 3 5
	")
}

ee,wfn = optimize('scf', return_wfn=True)
oeprop( wfn, 'DIPOLE', 'QUADRUPOLE', 'MULLIKEN_CHARGES')
f=open( 'psi4out.xyz', 'w' )
f.write( "13  " )
f.write( str(ee) + "\n" )
f.write( MOL.save_string_xyz() )
f.close()
--------------------------------------------------------------------------

    Molecular point group: c1
  Charge       = 0
  Multiplicity = 1
  Basis Set: CC-PVTZ
  Basis Set:
  @DF-RHF Final Energy:  -268.06094084376025
    Total Energy =                       -268.0609408437602497
    Molecular point group: c1
  Basis Set: CC-PVTZ
  Basis Set:
  Basis Set: CC-PVTZ
  Basis Set:
  @DF-RHF Final Energy:  -268.06224707545834
    Total Energy =                       -268.0622470754584583
  Basis Set: CC-PVTZ
  Basis Set:
  Basis Set: CC-PVTZ
  Basis Set:
  @DF-RHF Final Energy:  -268.06251071387032
    Total Energy =                       -268.0625107138702674
  Basis Set: CC-PVTZ
  Basis Set:
  Charge       = 0
  Multiplicity = 1
  Basis Set: CC-PVTZ
  Basis Set:

    Orbital Energies (a.u.)
    -----------------------

    Doubly Occupied:

       1A    -20.552479     2A    -20.551772     3A    -11.267405
       4A    -11.264989     5A    -11.264710     6A     -1.388705
       7A     -1.368189     8A     -1.019578     9A     -0.911793
      10A     -0.831970    11A     -0.712882    12A     -0.685380
      13A     -0.643929    14A     -0.637328    15A     -0.619026
      16A     -0.554990    17A     -0.539898    18A     -0.496954
      19A     -0.472327    20A     -0.444239    21A     -0.421071

  @DF-RHF Final Energy:  -268.06251515116264

   => Energetics <=

    Nuclear Repulsion Energy =            190.7104195545397545
    One-Electron Energy =                -744.2466454369600797
    Two-Electron Energy =                 285.4737107312575972
    DFT Exchange-Correlation Energy =       0.0000000000000000
    Empirical Dispersion Energy =           0.0000000000000000
    PCM Polarization Energy =               0.0000000000000000
    EFP Energy =                            0.0000000000000000
    Total Energy =                       -268.0625151511627564
    Molecular point group: c1
  Basis Set: CC-PVTZ
  Basis Set:

  -Total Gradient:
     Atom            X                  Y                   Z
    ------   -----------------  -----------------  -----------------
       1        0.000275210869    -0.000240028684     0.000971590553
       2        0.000054318765     0.000237865146    -0.001417323747
       3       -0.000513823651     0.000926377467     0.000968919506
       4       -0.000016697129    -0.000198297906    -0.000074323330
       5        0.000384961560    -0.000787355023    -0.000418601043
       6       -0.000065430982     0.000006970365     0.000026013587
       7       -0.000009540889     0.000196892883    -0.000032890830
       8        0.000086012213    -0.000053953121    -0.000005780975
       9       -0.000078051546     0.000001362468    -0.000000711713
      10       -0.000053493021    -0.000146940476    -0.000020714954
      11        0.000029374528     0.000005074965    -0.000000287967
      12       -0.000092492757     0.000038752098    -0.000002365600
      13       -0.000000347964     0.000013279817     0.000006476513

  **** Optimization is complete! (in 4 steps) ****
    Final optimized geometry and variables:
    Molecular point group: c1

    Geometry (in Angstrom), charge = 0, multiplicity = 1:

    H           -3.060049390238     0.147671472052     0.275869937074
    O           -2.298624715492    -0.331517925919     0.009016894614
    C           -1.177024229387     0.508543801230    -0.009058600677
    C            0.052222606604    -0.370717033112     0.031960942731
    H           -1.153202689361     1.108035425826    -0.913489726169
    H           -1.167796328284     1.179238811492     0.843864659336
    O            1.173275208805     0.450109225571    -0.034980274883
    H            0.028895685814    -1.066225916649    -0.804425598852
    H            0.052214840978    -0.956305626519     0.948771517612
    C            2.385025326214    -0.229185295453    -0.015112893945
    H            2.474666550102    -0.907411761739    -0.860572389856
    H            3.176078883105     0.504235784349    -0.071498321769
    H            2.504038025118    -0.803577840107     0.900789984476

  Mulliken Charges: (a.u.)
   Center  Symbol    Alpha    Beta     Spin     Total
       1     H     0.39275  0.39275  0.00000  0.21451
       2     O     4.20012  4.20012  0.00000 -0.40023
       3     C     2.96522  2.96522  0.00000  0.06956
       4     C     2.96381  2.96381  0.00000  0.07238
       5     H     0.46994  0.46994  0.00000  0.06012
       6     H     0.47070  0.47070  0.00000  0.05861
       7     O     4.17638  4.17638  0.00000 -0.35277
       8     H     0.47020  0.47020  0.00000  0.05961
       9     H     0.47159  0.47159  0.00000  0.05683
      10     C     3.03116  3.03116  0.00000 -0.06232
      11     H     0.47038  0.47038  0.00000  0.05925
      12     H     0.44702  0.44702  0.00000  0.10595
      13     H     0.47075  0.47075  0.00000  0.05851

   Total alpha = 21.00000, Total beta = 21.00000, Total charge = -0.00000

*** Psi4 exiting successfully. Buy a developer a beer!
