  ==> Input File <==

--------------------------------------------------------------------------
set {
	reference rhf
	basis 6-31G*
}

set_num_threads( 4 )
memory 2 gb

molecule MOL {
0 1

H	 1.089831	 -0.630516	 0.903798
C	 1.013990	 -0.280211	 -0.133139
C	 0.065331	 0.871482	 -0.349150
O	 1.656158	 -0.799657	 -0.987256
C	 -1.339775	 0.583656	 0.198860
H	 0.038785	 1.098558	 -1.408699
H	 0.482638	 1.734062	 0.168510
C	 -1.808407	 -0.848507	 -0.061364
H	 -2.036183	 1.280685	 -0.256307
H	 -1.360094	 0.788874	 1.267089
H	 -1.828843	 -1.063152	 -1.125336
H	 -2.808409	 -1.004529	 0.329750
H	 -1.153967	 -1.577789	 0.406873

	symmetry c1
}
set optking {
	frozen_dihedral = ("
		6 3 5 9
	")
}

ee = optimize('scf')
oeprop('DIPOLE', 'QUADRUPOLE', 'MULLIKEN_CHARGES')
f=open( 'psi4out.xyz', 'w' )
f.write( "13  " )
f.write( str(ee) + "\n" )
f.write( MOL.save_string_xyz() )
f.close()
--------------------------------------------------------------------------

    Molecular point group: c1
  Charge       = 0
  Multiplicity = 1
  Basis Set: 6-31G*
  Basis Set:
  @DF-RHF Final Energy:  -230.98147611790102
    Total Energy =                       -230.9814761179009110
    Molecular point group: c1
  Basis Set: 6-31G*
  Basis Set:
  Basis Set: 6-31G*
  Basis Set:
  @DF-RHF Final Energy:  -230.98171943476012
    Total Energy =                       -230.9817194347601230
  Basis Set: 6-31G*
  Basis Set:
  Basis Set: 6-31G*
  Basis Set:
  @DF-RHF Final Energy:  -230.98212767667570
    Total Energy =                       -230.9821276766758160
  Basis Set: 6-31G*
  Basis Set:
  Basis Set: 6-31G*
  Basis Set:
  @DF-RHF Final Energy:  -230.98223451362531
    Total Energy =                       -230.9822345136253716
  Basis Set: 6-31G*
  Basis Set:
  Basis Set: 6-31G*
  Basis Set:
  @DF-RHF Final Energy:  -230.98223735070937
    Total Energy =                       -230.9822373507092834
  Basis Set: 6-31G*
  Basis Set:
  Basis Set: 6-31G*
  Basis Set:
  @DF-RHF Final Energy:  -230.98224263482632
    Total Energy =                       -230.9822426348263491
  Basis Set: 6-31G*
  Basis Set:
  Charge       = 0
  Multiplicity = 1
  Basis Set: 6-31G*
  Basis Set:

    Orbital Energies (a.u.)
    -----------------------

    Doubly Occupied:

       1A    -20.562518     2A    -11.327188     3A    -11.239000
       4A    -11.235773     5A    -11.222107     6A     -1.402454
       7A     -1.085518     8A     -0.972769     9A     -0.852372
      10A     -0.784584    11A     -0.666047    12A     -0.645937
      13A     -0.629496    14A     -0.599275    15A     -0.557513
      16A     -0.528619    17A     -0.511216    18A     -0.490486
      19A     -0.480760    20A     -0.410273

  @DF-RHF Final Energy:  -230.98224281463314

   => Energetics <=

    Nuclear Repulsion Energy =            174.1396779488588322
    One-Electron Energy =                -657.8360303457764076
    Two-Electron Energy =                 252.7141095822843226
    DFT Exchange-Correlation Energy =       0.0000000000000000
    Empirical Dispersion Energy =           0.0000000000000000
    PCM Polarization Energy =               0.0000000000000000
    EFP Energy =                            0.0000000000000000
    Total Energy =                       -230.9822428146332527
    Molecular point group: c1
  Basis Set: 6-31G*
  Basis Set:

  -Total Gradient:
     Atom            X                  Y                   Z
    ------   -----------------  -----------------  -----------------
       1        0.000003777197    -0.000008161736    -0.000002680247
       2        0.000005999986     0.000021685373     0.000032846657
       3        0.000596535920    -0.007077659262    -0.002205570527
       4       -0.000013057811    -0.000017514716    -0.000008830968
       5        0.000931518656     0.005338444610     0.004910135563
       6       -0.000574574430     0.005091635090     0.001097620348
       7       -0.000021375448    -0.000014654557    -0.000009038023
       8       -0.000013183880    -0.000001462430    -0.000023145569
       9       -0.000915864533    -0.003322825659    -0.003786435260
      10       -0.000008797906    -0.000003718356    -0.000007917327
      11       -0.000016850408    -0.000002698506    -0.000003307184
      12        0.000012420356    -0.000002864999     0.000008543747
      13        0.000013452304    -0.000000204853    -0.000002221209

  **** Optimization is complete! (in 7 steps) ****
    Final optimized geometry and variables:
    Molecular point group: c1

    Geometry (in Angstrom), charge = 0, multiplicity = 1:

    H            1.246270545078    -0.450488784041     1.191325680550
    C            1.131937331052    -0.144647359670     0.144419114612
    C            0.134198712548     0.957184767013    -0.094334019445
    O            1.782550366451    -0.664035736293    -0.703500381764
    C           -1.262397964238     0.677357776025     0.492484798454
    H            0.080489162229     1.178588909427    -1.153667987719
    H            0.536401610639     1.851113201617     0.382770807933
    C           -1.782096641063    -0.733419106397     0.195170517585
    H           -1.955291413115     1.381052959562     0.043109052584
    H           -1.263733477564     0.852895266424     1.563814775052
    H           -1.781691722552    -0.931174449611    -0.872434130188
    H           -2.799022949731    -0.849459055865     0.555161427313
    H           -1.179178903131    -1.501030085473     0.670833261448

  Mulliken Charges: (a.u.)
   Center  Symbol    Alpha    Beta     Spin     Total
       1     H     0.43190  0.43190  0.00000  0.13620
       2     C     2.83101  2.83101  0.00000  0.33799
       3     C     3.20989  3.20989  0.00000 -0.41977
       4     O     4.23768  4.23768  0.00000 -0.47535
       5     C     3.16178  3.16178  0.00000 -0.32355
       6     H     0.39931  0.39931  0.00000  0.20137
       7     H     0.40765  0.40765  0.00000  0.18471
       8     C     3.24716  3.24716  0.00000 -0.49433
       9     H     0.41110  0.41110  0.00000  0.17781
      10     H     0.41667  0.41667  0.00000  0.16667
      11     H     0.41308  0.41308  0.00000  0.17384
      12     H     0.41455  0.41455  0.00000  0.17090
      13     H     0.41823  0.41823  0.00000  0.16353

   Total alpha = 20.00000, Total beta = 20.00000, Total charge =  0.00000
