  ==> Input File <==

--------------------------------------------------------------------------
set {
	reference rhf
	basis 6-31G*
}

set_num_threads( 4 )
memory 2 gb

molecule MOL {
0 1

H	 2.465338	 -2.224223	 0.000000
O	 2.784187	 -1.332015	 0.000000
C	 1.765313	 -0.449364	 0.000000
C	 1.983569	 0.777946	 -0.618077
C	 0.543033	 -0.724118	 0.581958
H	 2.942127	 0.967491	 -1.063157
C	 0.979487	 1.723354	 -0.651054
H	 0.347416	 -1.661188	 1.064823
C	 -0.443070	 0.247880	 0.530581
H	 1.156587	 2.668230	 -1.130326
C	 -0.257643	 1.471176	 -0.073334
N	 -1.734237	 -0.047887	 1.147750
H	 -1.046246	 2.194503	 -0.090859
O	 -1.869595	 -1.115720	 1.664898
O	 -2.577501	 0.794019	 1.099144

	symmetry c1
}
set optking {
	frozen_dihedral = ("
		4 3 2 1
	")
}

ee = optimize('scf')
oeprop('DIPOLE', 'QUADRUPOLE', 'MULLIKEN_CHARGES')
f=open( 'psi4out.xyz', 'w' )
f.write( "15  " )
f.write( str(ee) + "\n" )
f.write( MOL.save_string_xyz() )
f.close()
--------------------------------------------------------------------------

    Molecular point group: c1
  Charge       = 0
  Multiplicity = 1
  Basis Set: 6-31G*
  Basis Set:
  @DF-RHF Final Energy:  -509.02648040882724
    Total Energy =                       -509.0264804088270694
    Molecular point group: c1
  Basis Set: 6-31G*
  Basis Set:
  Basis Set: 6-31G*
  Basis Set:
  @DF-RHF Final Energy:  -509.02643635842236
    Total Energy =                       -509.0264363584224157
  Basis Set: 6-31G*
  Basis Set:
  Basis Set: 6-31G*
  Basis Set:
  @DF-RHF Final Energy:  -509.02107979173979
    Total Energy =                       -509.0210797917397940
  Basis Set: 6-31G*
  Basis Set:
  Basis Set: 6-31G*
  Basis Set:
  @DF-RHF Final Energy:  -509.02636795549790
    Total Energy =                       -509.0263679554980172
  Basis Set: 6-31G*
  Basis Set:
  Basis Set: 6-31G*
  Basis Set:
  @DF-RHF Final Energy:  -509.02654494185504
    Total Energy =                       -509.0265449418550361
  Basis Set: 6-31G*
  Basis Set:
  Basis Set: 6-31G*
  Basis Set:
  @DF-RHF Final Energy:  -509.02655114688963
    Total Energy =                       -509.0265511468896875
  Basis Set: 6-31G*
  Basis Set:
  Charge       = 0
  Multiplicity = 1
  Basis Set: 6-31G*
  Basis Set:

    Orbital Energies (a.u.)
    -----------------------

    Doubly Occupied:

       1A    -20.611775     2A    -20.605047     3A    -20.604573
       4A    -15.859506     5A    -11.328165     6A    -11.310870
       7A    -11.267806     8A    -11.266799     9A    -11.265010
      10A    -11.261598    11A     -1.638265    12A     -1.431638
      13A     -1.421571    14A     -1.200704    15A     -1.094979
      16A     -1.046529    17A     -0.965747    18A     -0.876339
      19A     -0.828974    20A     -0.791244    21A     -0.749281
      22A     -0.737205    23A     -0.723902    24A     -0.708130
      25A     -0.673931    26A     -0.636902    27A     -0.623795
      28A     -0.580298    29A     -0.557215    30A     -0.543043
      31A     -0.514832    32A     -0.491823    33A     -0.489595
      34A     -0.454956    35A     -0.377295    36A     -0.346589

  @DF-RHF Final Energy:  -509.02655153686885

   => Energetics <=

    Nuclear Repulsion Energy =            503.3159090530363073
    One-Electron Energy =               -1692.9130609582166471
    Two-Electron Energy =                 680.5706003683114886
    DFT Exchange-Correlation Energy =       0.0000000000000000
    Empirical Dispersion Energy =           0.0000000000000000
    PCM Polarization Energy =               0.0000000000000000
    EFP Energy =                            0.0000000000000000
    Total Energy =                       -509.0265515368689648
    Molecular point group: c1
  Basis Set: 6-31G*
  Basis Set:

  -Total Gradient:
     Atom            X                  Y                   Z
    ------   -----------------  -----------------  -----------------
       1        0.000018620930    -0.000020318836    -0.002423399504
       2       -0.000269703878    -0.000312435018     0.002308860771
       3        0.000768079320     0.000953436976     0.001681783130
       4       -0.000604676082    -0.000583844964    -0.001530986065
       5        0.000073210838    -0.000035695966    -0.000034169100
       6        0.000005943236    -0.000006344332     0.000003266262
       7        0.000085236292    -0.000030225587    -0.000049312491
       8       -0.000004144920     0.000003398598     0.000009368876
       9       -0.000049150097     0.000066015052    -0.000064187725
      10       -0.000009001249    -0.000001705455    -0.000002536859
      11       -0.000040093422    -0.000043350025     0.000105024912
      12       -0.000006120582     0.000012625752     0.000075517500
      13       -0.000000766508     0.000001117206    -0.000009951372
      14        0.000028699935    -0.000024431636    -0.000029834969
      15        0.000003866194     0.000021758242    -0.000039443364

  **** Optimization is complete! (in 7 steps) ****
    Final optimized geometry and variables:
    Molecular point group: c1

    Geometry (in Angstrom), charge = 0, multiplicity = 1:

    H            2.392403300752    -2.307280293213    -0.389068379674
    O            2.715073581252    -1.416484489685    -0.393454450064
    C            1.694521322621    -0.528475087300    -0.407170480861
    C            1.909703897215     0.695107674233    -1.029669507387
    C            0.473635361066    -0.803981767467     0.178414015020
    H            2.864851524084     0.881370745613    -1.483538723530
    C            0.908145056071     1.645904543752    -1.052781535805
    H            0.286522984366    -1.738205697319     0.669504248807
    C           -0.513789687042     0.165189717866     0.125904995585
    H            1.083339346816     2.590541715677    -1.533174106946
    C           -0.326656641085     1.391788890875    -0.474105242010
    N           -1.805789318057    -0.131604533875     0.739946519144
    H           -1.115701564580     2.114751920350    -0.489552778932
    O           -1.951263368951    -1.210366246513     1.230656588534
    O           -2.640322438682     0.720196119832     0.713443160345

  Mulliken Charges: (a.u.)
   Center  Symbol    Alpha    Beta     Spin     Total
       1     H     0.26777  0.26777  0.00000  0.46446
       2     O     4.37842  4.37842  0.00000 -0.75684
       3     C     2.79775  2.79775  0.00000  0.40449
       4     C     3.10688  3.10688  0.00000 -0.21376
       5     C     3.13084  3.13084  0.00000 -0.26168
       6     H     0.38099  0.38099  0.00000  0.23802
       7     C     3.10184  3.10184  0.00000 -0.20368
       8     H     0.36605  0.36605  0.00000  0.26789
       9     C     2.91474  2.91474  0.00000  0.17052
      10     H     0.38653  0.38653  0.00000  0.22693
      11     C     3.09586  3.09586  0.00000 -0.19173
      12     N     3.24032  3.24032  0.00000  0.51935
      13     H     0.36492  0.36492  0.00000  0.27015
      14     O     4.23508  4.23508  0.00000 -0.47016
      15     O     4.23199  4.23199  0.00000 -0.46397

   Total alpha = 36.00000, Total beta = 36.00000, Total charge =  0.00000
