                              Psi4 1.0.54 Driver

  ==> Input File <==

--------------------------------------------------------------------------
set {
	reference rhf
	basis cc-pvtz
}

set_num_threads( 4 )
memory 2 gb

molecule MOL {
0 1

H	 3.245430	 -0.761735	 0.771667
N	 3.091268	 -0.241216	 -0.065538
C	 1.860978	 0.530248	 0.016256
H	 3.050978	 -0.897554	 -0.817167
C	 0.644130	 -0.381765	 -0.031064
H	 1.835721	 1.204666	 -0.833114
H	 1.808789	 1.151975	 0.911067
C	 -0.678115	 0.376691	 0.025731
H	 0.693998	 -0.977147	 -0.936845
H	 0.693309	 -1.082142	 0.800523
C	 -1.900706	 -0.535531	 -0.022488
H	 -0.725296	 1.079516	 -0.802982
H	 -0.715474	 0.974884	 0.933278
C	 -3.220513	 0.226854	 0.028039
H	 -1.865036	 -1.134397	 -0.928236
H	 -1.857948	 -1.236381	 0.806820
H	 -3.309098	 0.911849	 -0.808725
H	 -4.066838	 -0.449485	 -0.008086
H	 -3.301685	 0.809374	 0.939860

	symmetry c1
}
set optking {
	frozen_dihedral = ("
		1 2 3 6
	")
}

ee,wfn = optimize('scf', return_wfn=True)
oeprop( wfn, 'DIPOLE', 'QUADRUPOLE', 'MULLIKEN_CHARGES')
f=open( 'psi4out.xyz', 'w' )
f.write( "19  " )
f.write( str(ee) + "\n" )
f.write( MOL.save_string_xyz() )
f.close()
--------------------------------------------------------------------------

    Molecular point group: c1
  Charge       = 0
  Multiplicity = 1
  Basis Set: CC-PVTZ
  Basis Set:
  @DF-RHF Final Energy:  -251.44586393583521
    Total Energy =                       -251.4458639358351206
    Molecular point group: c1
  Basis Set: CC-PVTZ
  Basis Set:
  Basis Set: CC-PVTZ
  Basis Set:
  @DF-RHF Final Energy:  -251.44529057113053
    Total Energy =                       -251.4452905711303856
  Basis Set: CC-PVTZ
  Basis Set:
  Basis Set: CC-PVTZ
  Basis Set:
  @DF-RHF Final Energy:  -251.44790195974474
    Total Energy =                       -251.4479019597447405
  Basis Set: CC-PVTZ
  Basis Set:
  Basis Set: CC-PVTZ
  Basis Set:
  @DF-RHF Final Energy:  -251.44796123940671
    Total Energy =                       -251.4479612394064816
  Basis Set: CC-PVTZ
  Basis Set:
  Basis Set: CC-PVTZ
  Basis Set:
  @DF-RHF Final Energy:  -251.44796476898773
    Total Energy =                       -251.4479647689878448
  Basis Set: CC-PVTZ
  Basis Set:
  Charge       = 0
  Multiplicity = 1
  Basis Set: CC-PVTZ
  Basis Set:

    Orbital Energies (a.u.)
    -----------------------

    Doubly Occupied:

       1A    -15.525928     2A    -11.237889     3A    -11.214370
       4A    -11.212883     5A    -11.210705     6A    -11.207220
       7A     -1.178203     8A     -1.076297     9A     -1.000503
      10A     -0.901793    11A     -0.819426    12A     -0.792411
      13A     -0.679848    14A     -0.638988    15A     -0.601578
      16A     -0.582734    17A     -0.577914    18A     -0.558482
      19A     -0.518677    20A     -0.506633    21A     -0.477752
      22A     -0.474014    23A     -0.466670    24A     -0.463553
      25A     -0.377474

  @DF-RHF Final Energy:  -251.44796529304310

   => Energetics <=

    Nuclear Repulsion Energy =            245.8483525144191901
    One-Electron Energy =                -825.9887440971191381
    Two-Electron Energy =                 328.6924262896567370
    DFT Exchange-Correlation Energy =       0.0000000000000000
    Empirical Dispersion Energy =           0.0000000000000000
    PCM Polarization Energy =               0.0000000000000000
    EFP Energy =                            0.0000000000000000
    Total Energy =                       -251.4479652930432394
    Molecular point group: c1
  Basis Set: CC-PVTZ
  Basis Set:

  -Total Gradient:
     Atom            X                  Y                   Z
    ------   -----------------  -----------------  -----------------
       1        0.000583175849     0.000819296759     0.000329408595
       2       -0.000617590396    -0.000878658320    -0.000310625519
       3       -0.000523628817    -0.000629866390    -0.000493912447
       4       -0.000013895336     0.000011903974     0.000009408095
       5        0.000079818753    -0.000015144709     0.000011159598
       6        0.000504205250     0.000685856737     0.000435922760
       7        0.000010700961     0.000001126550     0.000019275337
       8        0.000003335879     0.000008623139    -0.000006376832
       9       -0.000001115946    -0.000000396466     0.000008221406
      10       -0.000000694649    -0.000019381693     0.000007320494
      11       -0.000010520024     0.000004558849    -0.000005452047
      12       -0.000009233821     0.000011941773    -0.000004063156
      13        0.000000076496     0.000003091775     0.000005185031
      14        0.000003956040     0.000000612235     0.000001148361
      15       -0.000001200797    -0.000006478288    -0.000007167286
      16        0.000006853134    -0.000004281878     0.000006851750
      17       -0.000005432478     0.000009595770    -0.000012083519
      18       -0.000011114550    -0.000008139560     0.000001503753
      19        0.000002304452     0.000005739741     0.000004275627

  **** Optimization is complete! (in 6 steps) ****
    Final optimized geometry and variables:
    Molecular point group: c1

    Geometry (in Angstrom), charge = 0, multiplicity = 1:

    H            3.259984140586    -1.003962591018     0.633505672762
    N            3.098348083179    -0.540734213154    -0.235546075148
    C            1.905023293851     0.284929927333    -0.176927255153
    H            3.021559997692    -1.242074656002    -0.941751119041
    C            0.585987745896    -0.468041336172    -0.024571719907
    H            1.874933244637     0.896686063283    -1.072907909878
    H            2.024124445085     0.976090471843     0.651139975157
    C           -0.629991682734     0.451952776426     0.030103480441
    H            0.477528771718    -1.163291121178    -0.854556458380
    H            0.625803153719    -1.073626504060     0.878325901129
    C           -1.952473047384    -0.295453651750     0.177374485181
    H           -0.662087211870     1.059729761167    -0.871231122840
    H           -0.518477363385     1.146546716007     0.859592996566
    C           -3.162552474524     0.631059316262     0.231522833983
    H           -2.066666916028    -0.988455893668    -0.651720992450
    H           -1.922920635214    -0.901955343054     1.078474653220
    H           -3.240010651508     1.226902486813    -0.671898906128
    H           -4.083510466077     0.069013865668     0.336418223338
    H           -3.094900089174     1.314500044269     1.071475222056

  Mulliken Charges: (a.u.)
   Center  Symbol    Alpha    Beta     Spin     Total
       1     H     0.43183  0.43183  0.00000  0.13634
       2     N     3.69019  3.69019  0.00000 -0.38038
       3     C     3.02966  3.02966  0.00000 -0.05932
       4     H     0.43184  0.43184  0.00000  0.13632
       5     C     3.08692  3.08692  0.00000 -0.17385
       6     H     0.45289  0.45289  0.00000  0.09422
       7     H     0.45364  0.45364  0.00000  0.09271
       8     C     3.09410  3.09410  0.00000 -0.18821
       9     H     0.45957  0.45957  0.00000  0.08087
      10     H     0.45951  0.45951  0.00000  0.08098
      11     C     3.08278  3.08278  0.00000 -0.16556
      12     H     0.45469  0.45469  0.00000  0.09063
      13     H     0.45476  0.45476  0.00000  0.09047
      14     C     3.14985  3.14985  0.00000 -0.29970
      15     H     0.45453  0.45453  0.00000  0.09095
      16     H     0.45459  0.45459  0.00000  0.09082
      17     H     0.45504  0.45504  0.00000  0.08992
      18     H     0.44850  0.44850  0.00000  0.10299
      19     H     0.45511  0.45511  0.00000  0.08978

   Total alpha = 25.00000, Total beta = 25.00000, Total charge = -0.00000

*** Psi4 exiting successfully. Buy a developer a beer!
