  ==> Input File <==

--------------------------------------------------------------------------
set {
	reference rhf
	basis cc-pvtz
}

set_num_threads( 4 )
memory 2 gb

molecule MOL {
0 1

H	 1.183998	 -0.032563	 1.717411
O	 1.358020	 -0.258768	 0.821308
C	 0.706474	 0.636793	 -0.025501
C	 -0.793473	 0.591216	 0.050087
H	 1.020411	 0.390062	 -1.032908
H	 1.036881	 1.657008	 0.160759
C	 -1.534243	 -0.493009	 -0.013340
H	 -1.266611	 1.552628	 0.164437
H	 -1.101195	 -1.466332	 -0.144046
H	 -2.604242	 -0.437780	 0.050785

	symmetry c1
}
set optking {
	frozen_dihedral = ("
		5 3 4 7
	")
}

ee = optimize('scf')
oeprop('DIPOLE', 'QUADRUPOLE', 'MULLIKEN_CHARGES')
f=open( 'psi4out.xyz', 'w' )
f.write( "10  " )
f.write( str(ee) + "\n" )
f.write( MOL.save_string_xyz() )
f.close()
--------------------------------------------------------------------------

    Molecular point group: c1
  Charge       = 0
  Multiplicity = 1
  Basis Set: CC-PVTZ
  Basis Set:
  @DF-RHF Final Energy:  -191.99401316878746
    Total Energy =                       -191.9940131687876033
    Molecular point group: c1
  Basis Set: CC-PVTZ
  Basis Set:
  Basis Set: CC-PVTZ
  Basis Set:
  @DF-RHF Final Energy:  -191.99476812173856
    Total Energy =                       -191.9947681217386162
  Basis Set: CC-PVTZ
  Basis Set:
  Basis Set: CC-PVTZ
  Basis Set:
  @DF-RHF Final Energy:  -191.99485926475228
    Total Energy =                       -191.9948592647522219
  Basis Set: CC-PVTZ
  Basis Set:
  Basis Set: CC-PVTZ
  Basis Set:
  @DF-RHF Final Energy:  -191.99487011307150
    Total Energy =                       -191.9948701130715563
  Basis Set: CC-PVTZ
  Basis Set:
  Basis Set: CC-PVTZ
  Basis Set:
  @DF-RHF Final Energy:  -191.99487182806752
    Total Energy =                       -191.9948718280674314
  Basis Set: CC-PVTZ
  Basis Set:
  Basis Set: CC-PVTZ
  Basis Set:
  @DF-RHF Final Energy:  -191.99487292034462
    Total Energy =                       -191.9948729203445907
  Basis Set: CC-PVTZ
  Basis Set:
  Charge       = 0
  Multiplicity = 1
  Basis Set: CC-PVTZ
  Basis Set:

    Orbital Energies (a.u.)
    -----------------------

    Doubly Occupied:

       1A    -20.549880     2A    -11.275420     3A    -11.229489
       4A    -11.221635     5A     -1.368381     6A     -1.062599
       7A     -0.926828     8A     -0.777177     9A     -0.682628
      10A     -0.664368    11A     -0.609456    12A     -0.580004
      13A     -0.552900    14A     -0.480647    15A     -0.451664
      16A     -0.372202

  @DF-RHF Final Energy:  -191.99487270387061

   => Energetics <=

    Nuclear Repulsion Energy =            118.9177127308208384
    One-Electron Energy =                -496.2146155531921750
    Two-Electron Energy =                 185.3020301185007099
    DFT Exchange-Correlation Energy =       0.0000000000000000
    Empirical Dispersion Energy =           0.0000000000000000
    PCM Polarization Energy =               0.0000000000000000
    EFP Energy =                            0.0000000000000000
    Total Energy =                       -191.9948727038706409
    Molecular point group: c1
  Basis Set: CC-PVTZ
  Basis Set:

  -Total Gradient:
     Atom            X                  Y                   Z
    ------   -----------------  -----------------  -----------------
       1        0.000107919323     0.000047423847     0.000035608746
       2       -0.000099580341    -0.000017402440     0.000140185484
       3       -0.000264956799     0.003769733368    -0.002746347783
       4        0.000430420330    -0.001073943575     0.005061746064
       5        0.000128645525    -0.002997104672     0.000811251504
       6       -0.000038322938     0.000000978847     0.000023628387
       7       -0.000224242070     0.000295751522    -0.003409341223
       8       -0.000060695059    -0.000005233977    -0.000100573815
       9        0.000009853913    -0.000022721334     0.000065920651
      10        0.000010958118     0.000002518415     0.000117921985

  **** Optimization is complete! (in 7 steps) ****
    Final optimized geometry and variables:
    Molecular point group: c1

    Geometry (in Angstrom), charge = 0, multiplicity = 1:

    H            1.034765963302    -0.282344039297     1.433604100656
    O            1.340775060089    -0.383173551026     0.550149470240
    C            0.699052782556     0.546008289550    -0.280751770163
    C           -0.810062213533     0.500321094599    -0.184775196414
    H            1.009386182554     0.284416172099    -1.283696593150
    H            1.049675203583     1.552135917971    -0.074197656912
    C           -1.519375459483    -0.606611592762    -0.224586090949
    H           -1.316898054565     1.448412899021    -0.127752701584
    H           -1.051834570405    -1.571998419201    -0.290695833562
    H           -2.591454325363    -0.585024624846    -0.171474693445

  Mulliken Charges: (a.u.)
   Center  Symbol    Alpha    Beta     Spin     Total
       1     H     0.39427  0.39427  0.00000  0.21146
       2     O     4.19952  4.19952  0.00000 -0.39904
       3     C     2.95476  2.95476  0.00000  0.09049
       4     C     3.10210  3.10210  0.00000 -0.20419
       5     H     0.45189  0.45189  0.00000  0.09621
       6     H     0.46422  0.46422  0.00000  0.07157
       7     C     3.16597  3.16597  0.00000 -0.33194
       8     H     0.41849  0.41849  0.00000  0.16301
       9     H     0.42237  0.42237  0.00000  0.15526
      10     H     0.42641  0.42641  0.00000  0.14718

   Total alpha = 16.00000, Total beta = 16.00000, Total charge = -0.00000
