                              Psi4 1.0.54 Driver

  ==> Input File <==

--------------------------------------------------------------------------
set {
	reference rhf
	basis cc-pvtz
}

set_num_threads( 4 )
memory 2 gb

molecule MOL {
0 1

H	 -2.936868	 2.271351	 -0.327168
O	 -2.246329	 1.679911	 -0.562858
C	 -2.302264	 0.528872	 0.237390
C	 -1.175688	 -0.398187	 -0.171891
H	 -2.203055	 0.790948	 1.288697
H	 -3.259113	 0.025768	 0.114279
C	 0.196029	 0.106276	 0.266738
H	 -1.201873	 -0.515469	 -1.250677
H	 -1.365975	 -1.378728	 0.252664
C	 1.330220	 -0.826136	 -0.155230
H	 0.359542	 1.097229	 -0.145561
H	 0.212134	 0.218135	 1.348778
C	 2.719700	 -0.407669	 0.328325
H	 1.339388	 -0.911200	 -1.239363
H	 1.119001	 -1.821953	 0.224128
C	 3.241564	 0.893452	 -0.276737
H	 3.418299	 -1.204729	 0.093035
H	 2.711776	 -0.323368	 1.411960
H	 3.254204	 0.841071	 -1.360784
H	 2.634460	 1.745075	 0.005842
H	 4.254264	 1.092401	 0.054971

	symmetry c1
}
set optking {
	frozen_dihedral = ("
		2 3 4 8
	")
}

ee,wfn = optimize('scf', return_wfn=True)
oeprop( wfn, 'DIPOLE', 'QUADRUPOLE', 'MULLIKEN_CHARGES')
f=open( 'psi4out.xyz', 'w' )
f.write( "21  " )
f.write( str(ee) + "\n" )
f.write( MOL.save_string_xyz() )
f.close()
--------------------------------------------------------------------------

    Molecular point group: c1
  Charge       = 0
  Multiplicity = 1
  Basis Set: CC-PVTZ
  Basis Set:
  @DF-RHF Final Energy:  -310.33267017679384
    Total Energy =                       -310.3326701767939539
    Molecular point group: c1
  Basis Set: CC-PVTZ
  Basis Set:
  Basis Set: CC-PVTZ
  Basis Set:
  @DF-RHF Final Energy:  -310.33278644643036
    Total Energy =                       -310.3327864464306458
  Basis Set: CC-PVTZ
  Basis Set:
  Basis Set: CC-PVTZ
  Basis Set:
  @DF-RHF Final Energy:  -310.33281669010859
    Total Energy =                       -310.3328166901085297
  Basis Set: CC-PVTZ
  Basis Set:
  Basis Set: CC-PVTZ
  Basis Set:
  @DF-RHF Final Energy:  -310.33281870387293
    Total Energy =                       -310.3328187038725332
  Basis Set: CC-PVTZ
  Basis Set:
  Charge       = 0
  Multiplicity = 1
  Basis Set: CC-PVTZ
  Basis Set:

    Orbital Energies (a.u.)
    -----------------------

    Doubly Occupied:

       1A    -20.546363     2A    -11.265721     3A    -11.210069
       4A    -11.209543     5A    -11.207263     6A    -11.205023
       7A    -11.201751     8A     -1.363976     9A     -1.082770
      10A     -1.031352    11A     -0.954073    12A     -0.875735
      13A     -0.802827    14A     -0.773967    15A     -0.709004
      16A     -0.639559    17A     -0.629511    18A     -0.601332
      19A     -0.590679    20A     -0.564023    21A     -0.541503
      22A     -0.518557    23A     -0.503065    24A     -0.495683
      25A     -0.476434    26A     -0.456759    27A     -0.456089
      28A     -0.443847    29A     -0.428110

  @DF-RHF Final Energy:  -310.33281916871294

   => Energetics <=

    Nuclear Repulsion Energy =            317.4263529963403698
    One-Electron Energy =               -1049.9491673289419396
    Two-Electron Energy =                 422.1899951638882271
    DFT Exchange-Correlation Energy =       0.0000000000000000
    Empirical Dispersion Energy =           0.0000000000000000
    PCM Polarization Energy =               0.0000000000000000
    EFP Energy =                            0.0000000000000000
    Total Energy =                       -310.3328191687133426
    Molecular point group: c1
  Basis Set: CC-PVTZ
  Basis Set:

  -Total Gradient:
     Atom            X                  Y                   Z
    ------   -----------------  -----------------  -----------------
       1       -0.000008577418     0.000003735956    -0.000030206238
       2       -0.000851369108    -0.000605094400    -0.000909068486
       3        0.001379821833     0.001099470245     0.001209526508
       4       -0.001690899692    -0.001997615382    -0.000086769537
       5        0.000004481639     0.000015679299    -0.000024798565
       6        0.000002862060    -0.000004959044     0.000003921196
       7        0.000009669767     0.000008449969     0.000049385174
       8        0.001135365863     0.001432435426    -0.000176593909
       9        0.000001437203     0.000029842320    -0.000010827667
      10       -0.000025647075     0.000002071072    -0.000024710366
      11        0.000012009388    -0.000001128008    -0.000000795826
      12       -0.000001063893     0.000008621791    -0.000002708201
      13        0.000010970713    -0.000002941136     0.000019085933
      14        0.000003550864    -0.000020031967     0.000002551097
      15       -0.000003307199     0.000025224106    -0.000004051965
      16        0.000010251957     0.000010331411    -0.000001538282
      17        0.000000324092     0.000013649964    -0.000002995642
      18        0.000003907511    -0.000012311309    -0.000002989951
      19        0.000004786850     0.000001585664    -0.000002766221
      20        0.000008096833    -0.000010764802    -0.000000735388
      21       -0.000006672196     0.000003748828    -0.000002913663

  **** Optimization is complete! (in 5 steps) ****
    Final optimized geometry and variables:
    Molecular point group: c1

    Geometry (in Angstrom), charge = 0, multiplicity = 1:

    H           -3.095463611343     2.036541854183    -0.269181455535
    O           -2.437243549741     1.416345243138    -0.522334121861
    C           -2.509293126763     0.273785853520     0.291587139806
    C           -1.381401332050    -0.667788926072    -0.086242565053
    H           -2.433924403295     0.546326740726     1.342173297090
    H           -3.464535334800    -0.225181744905     0.148867369489
    C           -0.002159147564    -0.169394915816     0.340316837979
    H           -1.398914248500    -0.794348830981    -1.164183849040
    H           -1.576547693116    -1.639359663223     0.358596737082
    C            1.124424185734    -1.099344078226    -0.105105518179
    H            0.148190953673     0.823798742095    -0.063851029904
    H            0.022918556965    -0.072066509705     1.423954581015
    C            2.519627974778    -0.689888042245     0.370049938575
    H            1.123494795295    -1.168819123576    -1.190505623574
    H            0.916529698690    -2.101205966540     0.261909368436
    C            3.035596201876     0.619121038430    -0.222734035349
    H            3.215486022160    -1.484099360671     0.117034543309
    H            2.522545475293    -0.620090396252     1.454793586626
    H            3.040075903296     0.579735174997    -1.307318779338
    H            2.428524000520     1.465659397612     0.073798888158
    H            4.050555947177     0.815278384216     0.104045144530

  Mulliken Charges: (a.u.)
   Center  Symbol    Alpha    Beta     Spin     Total
       1     H     0.39576  0.39576  0.00000  0.20849
       2     O     4.19844  4.19844  0.00000 -0.39689
       3     C     2.97336  2.97336  0.00000  0.05327
       4     C     3.09093  3.09093  0.00000 -0.18186
       5     H     0.47412  0.47412  0.00000  0.05176
       6     H     0.46518  0.46518  0.00000  0.06965
       7     C     3.09386  3.09386  0.00000 -0.18773
       8     H     0.45151  0.45151  0.00000  0.09699
       9     H     0.45256  0.45256  0.00000  0.09488
      10     C     3.09472  3.09472  0.00000 -0.18945
      11     H     0.44326  0.44326  0.00000  0.11347
      12     H     0.45884  0.45884  0.00000  0.08231
      13     C     3.08981  3.08981  0.00000 -0.17962
      14     H     0.45344  0.45344  0.00000  0.09312
      15     H     0.45171  0.45171  0.00000  0.09657
      16     C     3.15174  3.15174  0.00000 -0.30349
      17     H     0.44941  0.44941  0.00000  0.10118
      18     H     0.45579  0.45579  0.00000  0.08842
      19     H     0.45481  0.45481  0.00000  0.09037
      20     H     0.45300  0.45300  0.00000  0.09400
      21     H     0.44773  0.44773  0.00000  0.10454

   Total alpha = 29.00000, Total beta = 29.00000, Total charge = -0.00000

*** Psi4 exiting successfully. Buy a developer a beer!
