                              Psi4 1.0.54 Driver

  ==> Input File <==

--------------------------------------------------------------------------
set {
	reference rhf
	basis cc-pvtz
}

set_num_threads( 4 )
memory 2 gb

molecule MOL {
0 1

O	 1.214497	 1.307430	 -0.051654
C	 1.117414	 0.132065	 -0.152418
C	 -0.175142	 -0.643015	 -0.148845
O	 2.159649	 -0.672073	 -0.284655
C	 -1.413045	 0.229353	 0.001137
H	 -0.207681	 -1.216576	 -1.069416
H	 -0.109294	 -1.372826	 0.651468
C	 -2.702562	 -0.586401	 0.000228
H	 -1.438073	 0.956748	 -0.802486
H	 -1.339984	 0.799848	 0.920235
C	 -3.953810	 0.284959	 -0.000782
H	 -2.717793	 -1.238567	 -0.869075
H	 -2.719108	 -1.238472	 0.869576
H	 -3.983727	 0.924403	 -0.876454
H	 -4.852989	 -0.320147	 -0.001515
H	 -3.985140	 0.924399	 0.874841
C	 3.440889	 -0.075938	 -0.303806
H	 3.528655	 0.612918	 -1.130850
H	 4.143952	 -0.885074	 -0.417251
H	 3.628509	 0.454487	 0.617970

	symmetry c1
}
set optking {
	frozen_dihedral = ("
		9 5 8 12
	")
}

ee,wfn = optimize('scf', return_wfn=True)
oeprop( wfn, 'DIPOLE', 'QUADRUPOLE', 'MULLIKEN_CHARGES')
f=open( 'psi4out.xyz', 'w' )
f.write( "20  " )
f.write( str(ee) + "\n" )
f.write( MOL.save_string_xyz() )
f.close()
--------------------------------------------------------------------------

    Molecular point group: c1
  Charge       = 0
  Multiplicity = 1
  Basis Set: CC-PVTZ
  Basis Set:
  @DF-RHF Final Energy:  -384.08312535892730
    Total Energy =                       -384.0831253589269636
    Molecular point group: c1
  Basis Set: CC-PVTZ
  Basis Set:
  Basis Set: CC-PVTZ
  Basis Set:
  @DF-RHF Final Energy:  -384.08314530257962
    Total Energy =                       -384.0831453025798510
  Basis Set: CC-PVTZ
  Basis Set:
  Basis Set: CC-PVTZ
  Basis Set:
  @DF-RHF Final Energy:  -384.08312013929407
    Total Energy =                       -384.0831201392936691
  Basis Set: CC-PVTZ
  Basis Set:
  Basis Set: CC-PVTZ
  Basis Set:
  @DF-RHF Final Energy:  -384.08315184953238
    Total Energy =                       -384.0831518495318733
  Basis Set: CC-PVTZ
  Basis Set:
  Charge       = 0
  Multiplicity = 1
  Basis Set: CC-PVTZ
  Basis Set:

    Orbital Energies (a.u.)
    -----------------------

    Doubly Occupied:

       1A    -20.596454     2A    -20.534276     3A    -11.364759
       4A    -11.278582     5A    -11.234071     6A    -11.218395
       7A    -11.217232     8A    -11.208852     9A     -1.472371
      10A     -1.365949    11A     -1.089980    12A     -1.025590
      13A     -0.970020    14A     -0.886553    15A     -0.804735
      16A     -0.769662    17A     -0.699234    18A     -0.686858
      19A     -0.675985    20A     -0.646519    21A     -0.599029
      22A     -0.592589    23A     -0.580352    24A     -0.540833
      25A     -0.538412    26A     -0.524259    27A     -0.501271
      28A     -0.479590    29A     -0.474988    30A     -0.470943
      31A     -0.459251    32A     -0.440248

  @DF-RHF Final Energy:  -384.08315239032351

   => Energetics <=

    Nuclear Repulsion Energy =            381.7149229008177258
    One-Electron Energy =               -1279.7004716578469470
    Two-Electron Energy =                 513.9023963667060571
    DFT Exchange-Correlation Energy =       0.0000000000000000
    Empirical Dispersion Energy =           0.0000000000000000
    PCM Polarization Energy =               0.0000000000000000
    EFP Energy =                            0.0000000000000000
    Total Energy =                       -384.0831523903231073
    Molecular point group: c1
  Basis Set: CC-PVTZ
  Basis Set:

  -Total Gradient:
     Atom            X                  Y                   Z
    ------   -----------------  -----------------  -----------------
       1        0.000003106324    -0.000000205751    -0.000013805584
       2       -0.000003019802     0.000005527530     0.000029101396
       3        0.000013108917    -0.000018748234    -0.000011372547
       4       -0.000001495958    -0.000011030869    -0.000006251852
       5        0.000767929692    -0.001210692336    -0.000773922432
       6        0.000000722621     0.000001674282    -0.000001863599
       7       -0.000007467904     0.000006648525    -0.000003636875
       8       -0.000821071791     0.001264917566    -0.000616017896
       9       -0.000507307902     0.000814719162     0.000766506459
      10       -0.000005887026     0.000004585877    -0.000008525515
      11       -0.000008549651     0.000023569298    -0.000007540503
      12        0.000552724341    -0.000872447343     0.000656432744
      13        0.000007574929     0.000001105167    -0.000010140768
      14       -0.000001649507    -0.000007575073     0.000013494984
      15        0.000022416525     0.000003750920     0.000000243457
      16        0.000004841241    -0.000014637508    -0.000012801134
      17       -0.000000047628     0.000018054604     0.000000037882
      18       -0.000002442543    -0.000003848153     0.000002670684
      19       -0.000009751157    -0.000001339531     0.000000520428
      20       -0.000003733717    -0.000004028126    -0.000003129328

  **** Optimization is complete! (in 5 steps) ****
    Final optimized geometry and variables:
    Molecular point group: c1

    Geometry (in Angstrom), charge = 0, multiplicity = 1:

    O            1.216951581186     1.302777990638     0.071074834245
    C            1.121099648364     0.127783727916    -0.034703518600
    C           -0.170974777996    -0.648082389112    -0.042100816685
    O            2.164452166347    -0.675404104648    -0.163938045539
    C           -1.410085558639     0.222690092818     0.101848754414
    H           -0.196804180206    -1.219329470326    -0.964215014488
    H           -0.110461216675    -1.379892064916     0.756915743716
    C           -2.699528761158    -0.593704578210     0.114209246688
    H           -1.440479239515     0.949165066379    -0.702545053557
    H           -1.336747100255     0.800485173017     1.016511717392
    C           -3.952136904190     0.274516050395     0.138091758180
    H           -2.724991473836    -1.248852813827    -0.752680032858
    H           -2.699801283215    -1.248723608225     0.981723274854
    H           -4.004764883919     0.908727297300    -0.740204938814
    H           -4.849590021371    -0.332537493435     0.163082809019
    H           -3.963521982594     0.918991552893     1.010542248932
    C            3.445429429080    -0.078587144606    -0.173483541103
    H            3.537632977568     0.613330012829    -0.997477157974
    H            4.149535398652    -0.886965568182    -0.285810963033
    H            3.627440408934     0.448544096346     0.751298272831

  Mulliken Charges: (a.u.)
   Center  Symbol    Alpha    Beta     Spin     Total
       1     O     4.19679  4.19679  0.00000 -0.39358
       2     C     2.80653  2.80653  0.00000  0.38694
       3     C     3.10018  3.10018  0.00000 -0.20036
       4     O     4.14655  4.14655  0.00000 -0.29310
       5     C     3.08135  3.08135  0.00000 -0.16269
       6     H     0.44017  0.44017  0.00000  0.11965
       7     H     0.44022  0.44022  0.00000  0.11957
       8     C     3.08683  3.08683  0.00000 -0.17366
       9     H     0.44730  0.44730  0.00000  0.10540
      10     H     0.44651  0.44651  0.00000  0.10699
      11     C     3.14912  3.14912  0.00000 -0.29824
      12     H     0.45591  0.45591  0.00000  0.08818
      13     H     0.45482  0.45482  0.00000  0.09035
      14     H     0.45397  0.45397  0.00000  0.09206
      15     H     0.44836  0.44836  0.00000  0.10327
      16     H     0.45367  0.45367  0.00000  0.09266
      17     C     3.03770  3.03770  0.00000 -0.07540
      18     H     0.45434  0.45434  0.00000  0.09131
      19     H     0.44534  0.44534  0.00000  0.10932
      20     H     0.45434  0.45434  0.00000  0.09133

   Total alpha = 32.00000, Total beta = 32.00000, Total charge =  0.00000

*** Psi4 exiting successfully. Buy a developer a beer!
