  ==> Input File <==

--------------------------------------------------------------------------
set {
	reference rhf
	basis 6-31G*
}

set_num_threads( 4 )
memory 2 gb

molecule MOL {
0 1

H	 1.829354	 -1.489945	 -0.693117
O	 2.016064	 -0.864478	 0.000222
C	 1.050492	 0.053836	 0.000068
C	 -0.318135	 -0.576402	 0.000164
O	 1.285279	 1.218255	 -0.000078
C	 -1.454360	 0.441875	 -0.000474
H	 -0.374042	 -1.230163	 -0.866135
H	 -0.374274	 -1.229227	 0.867154
C	 -2.826123	 -0.230780	 0.000056
H	 -1.357605	 1.085198	 -0.868380
H	 -1.357504	 1.086451	 0.866496
H	 -2.959731	 -0.858053	 -0.876869
H	 -3.619374	 0.509403	 -0.000080
H	 -2.959371	 -0.857318	 0.877556

	symmetry c1
}
set optking {
	frozen_dihedral = ("
		1 2 3 5
	")
}

ee = optimize('scf')
oeprop('DIPOLE', 'QUADRUPOLE', 'MULLIKEN_CHARGES')
f=open( 'psi4out.xyz', 'w' )
f.write( "14  " )
f.write( str(ee) + "\n" )
f.write( MOL.save_string_xyz() )
f.close()
--------------------------------------------------------------------------

    Molecular point group: c1
  Charge       = 0
  Multiplicity = 1
  Basis Set: 6-31G*
  Basis Set:
  @DF-RHF Final Energy:  -305.86133846909001
    Total Energy =                       -305.8613384690901853
    Molecular point group: c1
  Basis Set: 6-31G*
  Basis Set:
  Basis Set: 6-31G*
  Basis Set:
  @DF-RHF Final Energy:  -305.86278110410456
    Total Energy =                       -305.8627811041046698
  Basis Set: 6-31G*
  Basis Set:
  Basis Set: 6-31G*
  Basis Set:
  @DF-RHF Final Energy:  -305.86290610529431
    Total Energy =                       -305.8629061052943712
  Basis Set: 6-31G*
  Basis Set:
  Basis Set: 6-31G*
  Basis Set:
  @DF-RHF Final Energy:  -305.86284295755308
    Total Energy =                       -305.8628429575530845
  Basis Set: 6-31G*
  Basis Set:
  Basis Set: 6-31G*
  Basis Set:
  @DF-RHF Final Energy:  -305.86291665728208
    Total Energy =                       -305.8629166572820850
  Basis Set: 6-31G*
  Basis Set:
  Charge       = 0
  Multiplicity = 1
  Basis Set: 6-31G*
  Basis Set:

    Orbital Energies (a.u.)
    -----------------------

    Doubly Occupied:

       1A    -20.602441     2A    -20.556959     3A    -11.381587
       4A    -11.249424     5A    -11.229977     6A    -11.221215
       7A     -1.463411     8A     -1.370228     9A     -1.086265
      10A     -0.977605    11A     -0.851841    12A     -0.809960
      13A     -0.717566    14A     -0.672746    15A     -0.660126
      16A     -0.628682    17A     -0.581996    18A     -0.570702
      19A     -0.548625    20A     -0.507175    21A     -0.495654
      22A     -0.487371    23A     -0.480896    24A     -0.443129

  @DF-RHF Final Energy:  -305.86291734862851

   => Energetics <=

    Nuclear Repulsion Energy =            239.4696724095215927
    One-Electron Energy =                -891.4740220069977568
    Two-Electron Energy =                 346.1414322488475932
    DFT Exchange-Correlation Energy =       0.0000000000000000
    Empirical Dispersion Energy =           0.0000000000000000
    PCM Polarization Energy =               0.0000000000000000
    EFP Energy =                            0.0000000000000000
    Total Energy =                       -305.8629173486286277
    Molecular point group: c1
  Basis Set: 6-31G*
  Basis Set:

  -Total Gradient:
     Atom            X                  Y                   Z
    ------   -----------------  -----------------  -----------------
       1        0.003422744913     0.003985108290    -0.004247805611
       2       -0.004373460844    -0.004932925806     0.002760417489
       3        0.000942982447     0.000795308199     0.007317133861
       4        0.000045038397    -0.000000791879     0.000086406896
       5       -0.000005145701     0.000152144003    -0.005869195237
       6       -0.000006173776     0.000008981462    -0.000005708474
       7        0.000007983789     0.000007468837    -0.000024232890
       8       -0.000017650025    -0.000003973868    -0.000026803259
       9       -0.000011451412     0.000005317573    -0.000004504669
      10        0.000001886691    -0.000009345903     0.000012229757
      11        0.000002708874    -0.000005442220     0.000002150273
      12        0.000000353300    -0.000003312377     0.000000669761
      13       -0.000009152377    -0.000003055935    -0.000003016677
      14       -0.000000664278     0.000004519618     0.000002258779

  **** Optimization is complete! (in 6 steps) ****
    Final optimized geometry and variables:
    Molecular point group: c1

    Geometry (in Angstrom), charge = 0, multiplicity = 1:

    H            1.964259458228    -1.481119113782    -0.701330632985
    O            2.074318198721    -0.838982311833    -0.011789163804
    C            1.060328648675     0.054743773230     0.007273449104
    C           -0.319788647650    -0.565584651113     0.007235167252
    O            1.278103737841     1.213960745650     0.033401843229
    C           -1.452095408007     0.457159607180     0.001769882582
    H           -0.396789844105    -1.224637995798    -0.857145961190
    H           -0.380985327855    -1.214050347292     0.877784150586
    C           -2.827911613698    -0.207031612196     0.009556383219
    H           -1.352738610631     1.095288501173    -0.869663507979
    H           -1.347150818838     1.104809091960     0.864928239907
    H           -2.968717508974    -0.838639319462    -0.863328206831
    H           -3.616107274382     0.538363833928     0.006765988314
    H           -2.963311552515    -0.826930878242     0.891369507857

  Mulliken Charges: (a.u.)
   Center  Symbol    Alpha    Beta     Spin     Total
       1     H     0.26912  0.26912  0.00000  0.46175
       2     O     4.36120  4.36120  0.00000 -0.72240
       3     C     2.61906  2.61906  0.00000  0.76189
       4     C     3.22077  3.22077  0.00000 -0.44154
       5     O     4.25132  4.25132  0.00000 -0.50265
       6     C     3.15143  3.15143  0.00000 -0.30286
       7     H     0.41374  0.41374  0.00000  0.17251
       8     H     0.39749  0.39749  0.00000  0.20502
       9     C     3.24338  3.24338  0.00000 -0.48677
      10     H     0.41010  0.41010  0.00000  0.17980
      11     H     0.40696  0.40696  0.00000  0.18608
      12     H     0.42194  0.42194  0.00000  0.15612
      13     H     0.41317  0.41317  0.00000  0.17366
      14     H     0.42031  0.42031  0.00000  0.15937

   Total alpha = 24.00000, Total beta = 24.00000, Total charge =  0.00000
