  ==> Input File <==

--------------------------------------------------------------------------
set {
	reference rhf
	basis cc-pvtz
}

set_num_threads( 4 )
memory 2 gb

molecule MOL {
0 1

H	 -3.162190	 0.493205	 -0.000107
C	 -2.363908	 -0.234727	 0.000005
O	 -1.158738	 0.454634	 -0.000087
H	 -2.464314	 -0.863616	 -0.882153
H	 -2.464327	 -0.863359	 0.882345
C	 -0.028611	 -0.359694	 0.000037
C	 1.108390	 0.364243	 -0.692448
H	 -0.243785	 -1.297916	 -0.511898
H	 0.252581	 -0.608825	 1.023515
C	 2.387186	 -0.464808	 -0.733761
H	 0.794545	 0.617267	 -1.699129
H	 1.286992	 1.300844	 -0.175891
H	 2.236943	 -1.397013	 -1.268091
H	 3.181854	 0.075526	 -1.233323
H	 2.732842	 -0.708612	 0.265313

	symmetry c1
}
set optking {
	frozen_dihedral = ("
		8 6 3 2
	")
}

ee = optimize('scf')
oeprop('DIPOLE', 'QUADRUPOLE', 'MULLIKEN_CHARGES')
f=open( 'psi4out.xyz', 'w' )
f.write( "15  " )
f.write( str(ee) + "\n" )
f.write( MOL.save_string_xyz() )
f.close()
--------------------------------------------------------------------------

    Molecular point group: c1
  Charge       = 0
  Multiplicity = 1
  Basis Set: CC-PVTZ
  Basis Set:
  @DF-RHF Final Energy:  -232.22638000545891
    Total Energy =                       -232.2263800054587932
    Molecular point group: c1
  Basis Set: CC-PVTZ
  Basis Set:
  Basis Set: CC-PVTZ
  Basis Set:
  @DF-RHF Final Energy:  -232.22648799050799
    Total Energy =                       -232.2264879905078487
  Basis Set: CC-PVTZ
  Basis Set:
  Basis Set: CC-PVTZ
  Basis Set:
  @DF-RHF Final Energy:  -232.22652063617551
    Total Energy =                       -232.2265206361755077
  Basis Set: CC-PVTZ
  Basis Set:
  Charge       = 0
  Multiplicity = 1
  Basis Set: CC-PVTZ
  Basis Set:

    Orbital Energies (a.u.)
    -----------------------

    Doubly Occupied:

       1A    -20.546017     2A    -11.264204     3A    -11.262169
       4A    -11.212884     5A    -11.210772     6A     -1.379595
       7A     -1.058264     8A     -0.956438     9A     -0.877853
      10A     -0.809659    11A     -0.674617    12A     -0.655331
      13A     -0.633551    14A     -0.606394    15A     -0.566657
      16A     -0.540311    17A     -0.503813    18A     -0.491033
      19A     -0.480067    20A     -0.464090    21A     -0.412351

  @DF-RHF Final Energy:  -232.22652096782375

   => Energetics <=

    Nuclear Repulsion Energy =            189.9597646817064458
    One-Electron Energy =                -691.1604340240680813
    Two-Electron Energy =                 268.9741483745376627
    DFT Exchange-Correlation Energy =       0.0000000000000000
    Empirical Dispersion Energy =           0.0000000000000000
    PCM Polarization Energy =               0.0000000000000000
    EFP Energy =                            0.0000000000000000
    Total Energy =                       -232.2265209678239444
    Molecular point group: c1
  Basis Set: CC-PVTZ
  Basis Set:

  -Total Gradient:
     Atom            X                  Y                   Z
    ------   -----------------  -----------------  -----------------
       1       -0.000015031053    -0.000003937448     0.000001708091
       2       -0.000109893119     0.000020401033    -0.002296569539
       3       -0.000101862683    -0.000363586108     0.003967952277
       4        0.000026388488     0.000006557217     0.000005682377
       5        0.000017818596     0.000008430798    -0.000012338679
       6        0.000937372128     0.001504994284    -0.004143952029
       7       -0.000001312926     0.000006244023     0.000024486565
       8       -0.000774923357    -0.001182657261     0.002459642243
       9        0.000004489530     0.000015295814    -0.000005950949
      10        0.000005487636    -0.000007561129    -0.000013100885
      11       -0.000009069713    -0.000007741762     0.000011271931
      12        0.000003616099     0.000001192083    -0.000003196430
      13        0.000002603506     0.000005208291     0.000007300617
      14        0.000015687230    -0.000005206602    -0.000002099387
      15       -0.000001370361     0.000002366769    -0.000000836202

  **** Optimization is complete! (in 4 steps) ****
    Final optimized geometry and variables:
    Molecular point group: c1

    Geometry (in Angstrom), charge = 0, multiplicity = 1:

    H           -3.120019764124     0.576280603832     0.327805429773
    C           -2.334623708285    -0.165340619950     0.300196616221
    O           -1.118585764486     0.504734981438     0.281078255233
    H           -2.464178727351    -0.779377009764    -0.587967538196
    H           -2.430630227247    -0.804002082209     1.176184217349
    C            0.012711396099    -0.312442922006     0.251501764819
    C            1.153491259026     0.418541392270    -0.427394766669
    H           -0.208022107172    -1.246688703033    -0.262140536070
    H            0.294590905738    -0.580781033462     1.269672195951
    C            2.443737701333    -0.393726429388    -0.435935927252
    H            0.856431757218     0.660512312294    -1.442141702068
    H            1.309768656767     1.361518564878     0.085024414528
    H            2.315556062426    -1.334356185934    -0.961534978882
    H            3.240610567300     0.150892106637    -0.927490107438
    H            2.773683849265    -0.621089735684     0.572225282841

  Mulliken Charges: (a.u.)
   Center  Symbol    Alpha    Beta     Spin     Total
       1     H     0.44844  0.44844  0.00000  0.10311
       2     C     3.03229  3.03229  0.00000 -0.06458
       3     O     4.17453  4.17453  0.00000 -0.34906
       4     H     0.47161  0.47161  0.00000  0.05678
       5     H     0.47195  0.47195  0.00000  0.05609
       6     C     2.95841  2.95841  0.00000  0.08318
       7     C     3.07997  3.07997  0.00000 -0.15994
       8     H     0.47728  0.47728  0.00000  0.04545
       9     H     0.46874  0.46874  0.00000  0.06253
      10     C     3.15569  3.15569  0.00000 -0.31138
      11     H     0.45305  0.45305  0.00000  0.09390
      12     H     0.45020  0.45020  0.00000  0.09960
      13     H     0.45609  0.45609  0.00000  0.08781
      14     H     0.44636  0.44636  0.00000  0.10727
      15     H     0.45538  0.45538  0.00000  0.08925

   Total alpha = 21.00000, Total beta = 21.00000, Total charge = -0.00000
