  ==> Input File <==

--------------------------------------------------------------------------
set {
	reference rhf
	basis 6-31G*
}

set_num_threads( 4 )
memory 2 gb

molecule MOL {
0 1

H	 -2.698709	 -0.000305	 0.034435
C	 -1.693833	 0.000034	 0.434417
O	 -0.828952	 -0.000968	 -0.659236
H	 -1.574200	 0.882896	 1.055746
H	 -1.574147	 -0.881698	 1.057355
C	 0.544705	 -0.215580	 -0.432276
C	 1.179957	 0.893409	 0.404095
C	 0.835005	 -1.605646	 0.130219
H	 0.969622	 -0.165141	 -1.427732
H	 0.911655	 1.865849	 0.005443
H	 2.261357	 0.802446	 0.380978
H	 0.871485	 0.851942	 1.443946
H	 0.327380	 -2.362841	 -0.457514
H	 1.901488	 -1.805138	 0.094434
H	 0.519359	 -1.704923	 1.163830

	symmetry c1
}
set optking {
	frozen_dihedral = ("
		6 3 2 1
	")
}

ee = optimize('scf')
oeprop('DIPOLE', 'QUADRUPOLE', 'MULLIKEN_CHARGES')
f=open( 'psi4out.xyz', 'w' )
f.write( "15  " )
f.write( str(ee) + "\n" )
f.write( MOL.save_string_xyz() )
f.close()
--------------------------------------------------------------------------

    Molecular point group: c1
  Charge       = 0
  Multiplicity = 1
  Basis Set: 6-31G*
  Basis Set:
  @DF-RHF Final Energy:  -232.13757917006535
    Total Energy =                       -232.1375791700654077
    Molecular point group: c1
  Basis Set: 6-31G*
  Basis Set:
  Basis Set: 6-31G*
  Basis Set:
  @DF-RHF Final Energy:  -232.13751608283940
    Total Energy =                       -232.1375160828393405
  Basis Set: 6-31G*
  Basis Set:
  Basis Set: 6-31G*
  Basis Set:
  @DF-RHF Final Energy:  -232.13767439548829
    Total Energy =                       -232.1376743954884887
  Basis Set: 6-31G*
  Basis Set:
  Basis Set: 6-31G*
  Basis Set:
  @DF-RHF Final Energy:  -232.13767424698463
    Total Energy =                       -232.1376742469847159
  Basis Set: 6-31G*
  Basis Set:
  Basis Set: 6-31G*
  Basis Set:
  @DF-RHF Final Energy:  -232.13767821505905
    Total Energy =                       -232.1376782150589975
  Basis Set: 6-31G*
  Basis Set:
  Charge       = 0
  Multiplicity = 1
  Basis Set: 6-31G*
  Basis Set:

    Orbital Energies (a.u.)
    -----------------------

    Doubly Occupied:

       1A    -20.548265     2A    -11.274342     3A    -11.261137
       4A    -11.211272     5A    -11.209822     6A     -1.370353
       7A     -1.050428     8A     -0.939927     9A     -0.930981
      10A     -0.781286    11A     -0.674407    12A     -0.640439
      13A     -0.633243    14A     -0.572520    15A     -0.564953
      16A     -0.552769    17A     -0.534340    18A     -0.498134
      19A     -0.496708    20A     -0.443137    21A     -0.406305

  @DF-RHF Final Energy:  -232.13767835269817

   => Energetics <=

    Nuclear Repulsion Energy =            198.7948313370310984
    One-Electron Energy =                -708.6754823718536045
    Two-Electron Energy =                 277.7429726821243889
    DFT Exchange-Correlation Energy =       0.0000000000000000
    Empirical Dispersion Energy =           0.0000000000000000
    PCM Polarization Energy =               0.0000000000000000
    EFP Energy =                            0.0000000000000000
    Total Energy =                       -232.1376783526981171
    Molecular point group: c1
  Basis Set: 6-31G*
  Basis Set:

  -Total Gradient:
     Atom            X                  Y                   Z
    ------   -----------------  -----------------  -----------------
       1       -0.000001094087    -0.000600752731     0.000061059135
       2       -0.000063283813     0.000499513143    -0.000074112050
       3        0.000097610604     0.000607548360     0.000040390794
       4       -0.000004897473    -0.000010652788    -0.000007922618
       5        0.000003041503    -0.000001068996     0.000007010505
       6       -0.000070410728    -0.000485715438    -0.000032152137
       7        0.000014559160    -0.000007124453     0.000000654123
       8        0.000004232700     0.000004983478     0.000002864372
       9        0.000025811145    -0.000002454389     0.000003344281
      10       -0.000000196216    -0.000002320658    -0.000002069930
      11       -0.000005419984     0.000001063430    -0.000000193624
      12        0.000004921336    -0.000001160291     0.000000833978
      13       -0.000004528156     0.000001745128     0.000002375170
      14       -0.000001170844    -0.000001357969    -0.000000579324
      15        0.000000824854    -0.000002245826    -0.000001502674

  **** Optimization is complete! (in 6 steps) ****
    Final optimized geometry and variables:
    Molecular point group: c1

    Geometry (in Angstrom), charge = 0, multiplicity = 1:

    H           -2.683763605628     0.188768749017     0.067565288793
    C           -1.673103569350     0.230289589185     0.450839488884
    O           -0.821878618132     0.148130266787    -0.650811886160
    H           -1.548145816443     1.161814076260     0.995512571447
    H           -1.540345810560    -0.595997146378     1.143039482275
    C            0.556355380002    -0.035235883156    -0.423868189181
    C            1.166807502118     1.075141974283     0.428448296655
    C            0.871470900860    -1.427123201410     0.121037219856
    H            0.982784720316     0.035171946502    -1.417458740000
    H            0.890073061952     2.048095117997     0.036642175188
    H            2.249568495927     0.999570915289     0.416839118351
    H            0.846152738460     1.018704617729     1.464043299622
    H            0.387487548035    -2.184437819268    -0.485784981643
    H            1.942551234108    -1.602887462018     0.096188481272
    H            0.544945145658    -1.551228715061     1.148497666387

  Mulliken Charges: (a.u.)
   Center  Symbol    Alpha    Beta     Spin     Total
       1     H     0.41273  0.41273  0.00000  0.17453
       2     C     3.08168  3.08168  0.00000 -0.16336
       3     O     4.31202  4.31202  0.00000 -0.62403
       4     H     0.42810  0.42810  0.00000  0.14380
       5     H     0.43043  0.43043  0.00000  0.13914
       6     C     2.90904  2.90904  0.00000  0.18191
       7     C     3.25487  3.25487  0.00000 -0.50974
       8     C     3.25127  3.25127  0.00000 -0.50254
       9     H     0.41527  0.41527  0.00000  0.16947
      10     H     0.41164  0.41164  0.00000  0.17672
      11     H     0.41863  0.41863  0.00000  0.16273
      12     H     0.42108  0.42108  0.00000  0.15785
      13     H     0.41131  0.41131  0.00000  0.17738
      14     H     0.42020  0.42020  0.00000  0.15960
      15     H     0.42173  0.42173  0.00000  0.15654

   Total alpha = 21.00000, Total beta = 21.00000, Total charge =  0.00000
