  ==> Input File <==

--------------------------------------------------------------------------
set {
	reference rhf
	basis 6-31G*
}

set_num_threads( 1 )
memory 2 gb

molecule MOL {
0 1

O	 -2.439739	 -0.935931	 -0.423848
C	 -1.921153	 0.064240	 -0.045697
C	 -2.624470	 1.379923	 0.150949
O	 -0.632575	 0.154573	 0.251549
H	 -2.168117	 2.136577	 -0.476876
H	 -3.669540	 1.273223	 -0.098610
H	 -2.519365	 1.700893	 1.180846
C	 0.160891	 -1.019931	 0.106212
C	 1.589627	 -0.672828	 0.480843
H	 0.089836	 -1.367806	 -0.916050
H	 -0.238459	 -1.792301	 0.749618
C	 1.706474	 0.253623	 1.692633
H	 2.049034	 -0.200840	 -0.385243
H	 2.138204	 -1.593139	 0.663461
C	 3.156250	 0.603723	 2.025167
H	 1.148737	 1.167875	 1.499832
H	 1.240094	 -0.218059	 2.551333
H	 3.212430	 1.260129	 2.887726
H	 3.640466	 1.108122	 1.193666
H	 3.733000	 -0.288713	 2.250989

	symmetry c1
}
set optking {
	frozen_dihedral = ("
		16 12 9 8,
		2 4 8 10,
		1 2 4 8
	")
}

ee = energy('scf')
oeprop('DIPOLE', 'QUADRUPOLE', 'MULLIKEN_CHARGES')
f=open( 'psi4out.xyz', 'w' )
f.write( "20  " )
f.write( str(ee) + "\n" )
f.write( MOL.save_string_xyz() )
f.close()
--------------------------------------------------------------------------

    Molecular point group: c1

    Geometry (in Angstrom), charge = 0, multiplicity = 1:

       Center              X                  Y                   Z               Mass
    ------------   -----------------  -----------------  -----------------  -----------------
           O         -2.305302277615    -0.918858295180    -0.952371089977    15.994914619560
           C         -1.786716277615     0.081312704820    -0.574220089977    12.000000000000
           C         -2.490033277615     1.396995704820    -0.377574089977    12.000000000000
           O         -0.498138277615     0.171645704820    -0.276974089977    15.994914619560
           H         -2.033680277615     2.153649704820    -1.005399089977     1.007825032070
           H         -3.535103277615     1.290295704820    -0.627133089977     1.007825032070
           H         -2.384928277615     1.717965704820     0.652322910023     1.007825032070
           C          0.295327722385    -1.002858295180    -0.422311089977    12.000000000000
           C          1.724063722385    -0.655755295180    -0.047680089977    12.000000000000
           H          0.224272722385    -1.350733295180    -1.444573089977     1.007825032070
           H         -0.104022277615    -1.775228295180     0.221094910023     1.007825032070
           C          1.840910722385     0.270695704820     1.164109910023    12.000000000000
           H          2.183470722385    -0.183767295180    -0.913766089977     1.007825032070
           H          2.272640722385    -1.576066295180     0.134937910023     1.007825032070
           C          3.290686722385     0.620795704820     1.496643910023    12.000000000000
           H          1.283173722385     1.184947704820     0.971308910023     1.007825032070
           H          1.374530722385    -0.200986295180     2.022809910023     1.007825032070
           H          3.346866722385     1.277201704820     2.359202910023     1.007825032070
           H          3.774902722385     1.125194704820     0.665142910023     1.007825032070
           H          3.867436722385    -0.271640295180     1.722465910023     1.007825032070

  Charge       = 0
  Multiplicity = 1
  Basis Set: 6-31G*
  Basis Set:

    Orbital Energies (a.u.)
    -----------------------

    Doubly Occupied:

       1A    -20.602091     2A    -20.544436     3A    -11.374904
       4A    -11.282317     5A    -11.233880     6A    -11.224923
       7A    -11.218385     8A    -11.211988     9A     -1.468552
      10A     -1.362782    11A     -1.085217    12A     -1.027712
      13A     -0.981330    14A     -0.879505    15A     -0.815871
      16A     -0.767259    17A     -0.690252    18A     -0.687002
      19A     -0.667341    20A     -0.632738    21A     -0.597827
      22A     -0.592716    23A     -0.573164    24A     -0.548903
      25A     -0.544466    26A     -0.534690    27A     -0.509356
      28A     -0.483072    29A     -0.473644    30A     -0.467743
      31A     -0.448811    32A     -0.439102

  @DF-RHF Final Energy:  -383.94252518879034

   => Energetics <=

    Nuclear Repulsion Energy =            387.4820369861961353
    One-Electron Energy =               -1290.9051392958176621
    Two-Electron Energy =                 519.4805771208320948
    DFT Exchange-Correlation Energy =       0.0000000000000000
    Empirical Dispersion Energy =           0.0000000000000000
    PCM Polarization Energy =               0.0000000000000000
    EFP Energy =                            0.0000000000000000
    Total Energy =                       -383.9425251887894319

  Mulliken Charges: (a.u.)
   Center  Symbol    Alpha    Beta     Spin     Total
       1     O     4.28317  4.28317  0.00000 -0.56634
       2     C     2.61854  2.61854  0.00000  0.76292
       3     C     3.28196  3.28196  0.00000 -0.56392
       4     O     4.30929  4.30929  0.00000 -0.61857
       5     H     0.40061  0.40061  0.00000  0.19878
       6     H     0.39668  0.39668  0.00000  0.20664
       7     H     0.40067  0.40067  0.00000  0.19865
       8     C     3.00046  3.00046  0.00000 -0.00093
       9     C     3.16941  3.16941  0.00000 -0.33882
      10     H     0.40749  0.40749  0.00000  0.18502
      11     H     0.41112  0.41112  0.00000  0.17777
      12     C     3.15264  3.15264  0.00000 -0.30527
      13     H     0.41757  0.41757  0.00000  0.16487
      14     H     0.41666  0.41666  0.00000  0.16668
      15     C     3.24042  3.24042  0.00000 -0.48083
      16     H     0.40898  0.40898  0.00000  0.18203
      17     H     0.42273  0.42273  0.00000  0.15454
      18     H     0.41799  0.41799  0.00000  0.16403
      19     H     0.42110  0.42110  0.00000  0.15780
      20     H     0.42252  0.42252  0.00000  0.15496

   Total alpha = 32.00000, Total beta = 32.00000, Total charge =  0.00000
