  ==> Input File <==

--------------------------------------------------------------------------
set {
	reference rhf
	basis 6-31G*
}

set_num_threads( 1 )
memory 2 gb

molecule MOL {
0 1

H	 2.424108	 0.981083	 -2.410033
O	 2.818108	 0.378791	 -3.024102
C	 3.089997	 -0.841281	 -2.382577
C	 1.837204	 -1.661102	 -2.094258
H	 3.738566	 -1.388855	 -3.054289
H	 3.647249	 -0.671848	 -1.461957
C	 0.869791	 -0.995051	 -1.112751
H	 1.327551	 -1.854323	 -3.034623
H	 2.147519	 -2.626285	 -1.697404
C	 -0.350688	 -1.866210	 -0.802377
H	 0.541884	 -0.044478	 -1.524155
H	 1.394000	 -0.770676	 -0.183665
C	 -1.309753	 -1.282496	 0.241564
H	 -0.896412	 -2.059330	 -1.724190
H	 -0.003598	 -2.834402	 -0.447647
C	 -2.037799	 -0.007733	 -0.193645
H	 -2.052144	 -2.039804	 0.484786
H	 -0.763148	 -1.088947	 1.163301
C	 -3.489788	 0.042957	 0.286558
H	 -2.017067	 0.064384	 -1.280144
H	 -1.513726	 0.868678	 0.179924
C	 -4.216917	 1.317354	 -0.141063
H	 -4.025645	 -0.823308	 -0.095450
H	 -3.513059	 -0.038752	 1.371301
H	 -4.239342	 1.411634	 -1.223113
H	 -5.243387	 1.322503	 0.212445
H	 -3.726170	 2.201406	 0.256408

	symmetry c1
}
set optking {
	frozen_dihedral = ("
		14 10 7 4,
		14 10 13 16,
		10 7 4 8,
		8 4 3 2,
		20 16 19 22,
		4 3 2 1
	")
}

ee = energy('scf')
oeprop('DIPOLE', 'QUADRUPOLE', 'MULLIKEN_CHARGES')
f=open( 'psi4out.xyz', 'w' )
f.write( "27  " )
f.write( str(ee) + "\n" )
f.write( MOL.save_string_xyz() )
f.close()
--------------------------------------------------------------------------

    Molecular point group: c1

    Geometry (in Angstrom), charge = 0, multiplicity = 1:

       Center              X                  Y                   Z               Mass
    ------------   -----------------  -----------------  -----------------  -----------------
           H          2.693771054059     1.495382981833    -1.354715404574     1.007825032070
           O          3.087771054059     0.893090981833    -1.968784404574    15.994914619560
           C          3.359660054059    -0.326981018167    -1.327259404574    12.000000000000
           C          2.106867054059    -1.146802018167    -1.038940404574    12.000000000000
           H          4.008229054059    -0.874555018167    -1.998971404574     1.007825032070
           H          3.916912054059    -0.157548018167    -0.406639404574     1.007825032070
           C          1.139454054059    -0.480751018167    -0.057433404574    12.000000000000
           H          1.597214054059    -1.340023018167    -1.979305404574     1.007825032070
           H          2.417182054059    -2.111985018167    -0.642086404574     1.007825032070
           C         -0.081024945941    -1.351910018167     0.252940595426    12.000000000000
           H          0.811547054059     0.469821981833    -0.468837404574     1.007825032070
           H          1.663663054059    -0.256376018167     0.871652595426     1.007825032070
           C         -1.040089945941    -0.768196018167     1.296881595426    12.000000000000
           H         -0.626748945941    -1.545030018167    -0.668872404574     1.007825032070
           H          0.266065054059    -2.320102018167     0.607670595426     1.007825032070
           C         -1.768135945941     0.506566981833     0.861672595426    12.000000000000
           H         -1.782480945941    -1.525504018167     1.540103595426     1.007825032070
           H         -0.493484945941    -0.574647018167     2.218618595426     1.007825032070
           C         -3.220124945941     0.557256981833     1.341875595426    12.000000000000
           H         -1.747403945941     0.578683981833    -0.224826404574     1.007825032070
           H         -1.244062945941     1.382977981833     1.235241595426     1.007825032070
           C         -3.947253945941     1.831653981833     0.914254595426    12.000000000000
           H         -3.755981945941    -0.309008018167     0.959867595426     1.007825032070
           H         -3.243395945941     0.475547981833     2.426618595426     1.007825032070
           H         -3.969678945941     1.925933981833    -0.167795404574     1.007825032070
           H         -4.973723945941     1.836802981833     1.267762595426     1.007825032070
           H         -3.456506945941     2.715705981833     1.311725595426     1.007825032070

  Charge       = 0
  Multiplicity = 1
  Basis Set: 6-31G*
  Basis Set:

    Orbital Energies (a.u.)
    -----------------------

    Doubly Occupied:

       1A    -20.552235     2A    -11.267047     3A    -11.219918
       4A    -11.217351     5A    -11.216213     6A    -11.215254
       7A    -11.214623     8A    -11.213488     9A    -11.208923
      10A     -1.358994    11A     -1.095278    12A     -1.061513
      13A     -1.011245    14A     -0.948420    15A     -0.887555
      16A     -0.820700    17A     -0.802628    18A     -0.776992
      19A     -0.693629    20A     -0.655018    21A     -0.630550
      22A     -0.615559    23A     -0.602781    24A     -0.585888
      25A     -0.578252    26A     -0.554428    27A     -0.537761
      28A     -0.531834    29A     -0.505727    30A     -0.493549
      31A     -0.484154    32A     -0.475815    33A     -0.470331
      34A     -0.455705    35A     -0.453441    36A     -0.442186
      37A     -0.422410

  @DF-RHF Final Energy:  -388.27855025358161

   => Energetics <=

    Nuclear Repulsion Energy =            459.6527350226187423
    One-Electron Energy =               -1437.3073030178575209
    Two-Electron Energy =                 589.3760177416564829
    DFT Exchange-Correlation Energy =       0.0000000000000000
    Empirical Dispersion Energy =           0.0000000000000000
    PCM Polarization Energy =               0.0000000000000000
    EFP Energy =                            0.0000000000000000
    Total Energy =                       -388.2785502535822388

  Mulliken Charges: (a.u.)
   Center  Symbol    Alpha    Beta     Spin     Total
       1     H     0.27985  0.27985  0.00000  0.44030
       2     O     4.37099  4.37099  0.00000 -0.74197
       3     C     2.99734  2.99734  0.00000  0.00533
       4     C     3.16113  3.16113  0.00000 -0.32227
       5     H     0.41445  0.41445  0.00000  0.17109
       6     H     0.43202  0.43202  0.00000  0.13596
       7     C     3.16280  3.16280  0.00000 -0.32561
       8     H     0.41508  0.41508  0.00000  0.16984
       9     H     0.42420  0.42420  0.00000  0.15159
      10     C     3.15344  3.15344  0.00000 -0.30688
      11     H     0.42262  0.42262  0.00000  0.15475
      12     H     0.42541  0.42541  0.00000  0.14919
      13     C     3.15553  3.15553  0.00000 -0.31107
      14     H     0.42164  0.42164  0.00000  0.15672
      15     H     0.42217  0.42217  0.00000  0.15566
      16     C     3.15304  3.15304  0.00000 -0.30607
      17     H     0.41946  0.41946  0.00000  0.16109
      18     H     0.42250  0.42250  0.00000  0.15500
      19     C     3.15340  3.15340  0.00000 -0.30680
      20     H     0.42229  0.42229  0.00000  0.15541
      21     H     0.42277  0.42277  0.00000  0.15446
      22     C     3.23976  3.23976  0.00000 -0.47951
      23     H     0.42254  0.42254  0.00000  0.15492
      24     H     0.42270  0.42270  0.00000  0.15461
      25     H     0.42144  0.42144  0.00000  0.15712
      26     H     0.41929  0.41929  0.00000  0.16142
      27     H     0.42213  0.42213  0.00000  0.15574

   Total alpha = 37.00000, Total beta = 37.00000, Total charge =  0.00000
