                              Psi4 1.0.54 Driver

  ==> Input File <==

--------------------------------------------------------------------------
set {
	reference rhf
	basis cc-pvtz
}

set_num_threads( 4 )
memory 2 gb

molecule MOL {
0 1

H	 2.142881	 3.858736	 3.042628
C	 1.984454	 3.032683	 3.749326
C	 0.685881	 2.292301	 3.577761
O	 2.800002	 2.792289	 4.570545
C	 0.455408	 1.825658	 2.137344
H	 0.667407	 1.463510	 4.273533
H	 -0.105050	 2.983627	 3.860249
C	 1.430688	 0.742919	 1.680521
H	 -0.560116	 1.453629	 2.055826
H	 0.518292	 2.680083	 1.467868
C	 1.181757	 0.280428	 0.247371
H	 1.356852	 -0.107612	 2.353018
H	 2.451348	 1.106382	 1.767551
C	 2.151032	 -0.811012	 -0.202643
H	 0.158834	 -0.073332	 0.164740
H	 1.266033	 1.132061	 -0.424131
C	 3.580021	 -0.656538	 0.320835
H	 2.170545	 -0.847575	 -1.289412
H	 1.766632	 -1.772905	 0.124928
C	 4.327657	 0.562694	 -0.213579
H	 4.138806	 -1.549270	 0.057813
H	 3.561991	 -0.620783	 1.406976
H	 4.355973	 0.557257	 -1.298551
H	 3.867136	 1.491650	 0.100501
H	 5.351524	 0.571613	 0.142204

	symmetry c1
}
set optking {
	frozen_dihedral = ("
		8 11 14 18
	")
}

ee,wfn = optimize('scf', return_wfn=True)
oeprop( wfn, 'DIPOLE', 'QUADRUPOLE', 'MULLIKEN_CHARGES')
f=open( 'psi4out.xyz', 'w' )
f.write( "25  " )
f.write( str(ee) + "\n" )
f.write( MOL.save_string_xyz() )
f.close()
--------------------------------------------------------------------------

    Molecular point group: c1
  Charge       = 0
  Multiplicity = 1
  Basis Set: CC-PVTZ
  Basis Set:
  @DF-RHF Final Energy:  -387.25392236918680
    Total Energy =                       -387.2539223691868528
    Molecular point group: c1
  Basis Set: CC-PVTZ
  Basis Set:
  Basis Set: CC-PVTZ
  Basis Set:
  @DF-RHF Final Energy:  -387.22303434323817
    Total Energy =                       -387.2230343432381687
  Basis Set: CC-PVTZ
  Basis Set:
  Basis Set: CC-PVTZ
  Basis Set:
  @DF-RHF Final Energy:  -387.25442855729784
    Total Energy =                       -387.2544285572978424
  Basis Set: CC-PVTZ
  Basis Set:
  Basis Set: CC-PVTZ
  Basis Set:
  @DF-RHF Final Energy:  -387.25596895123743
    Total Energy =                       -387.2559689512373780
  Basis Set: CC-PVTZ
  Basis Set:
  @DF-RHF Final Energy:  -387.25546303195460
    Total Energy =                       -387.2554630319548323
  @DF-RHF Final Energy:  -387.25525815475686
    Total Energy =                       -387.2552581547566888
  @DF-RHF Final Energy:  -387.25609380694431
    Total Energy =                       -387.2560938069439089
  Basis Set: CC-PVTZ
  Basis Set:
  @DF-RHF Final Energy:  -387.25610263484634
    Total Energy =                       -387.2561026348460018
  Basis Set: CC-PVTZ
  Basis Set:
  Basis Set: CC-PVTZ
  Basis Set:
  @DF-RHF Final Energy:  -387.25612195819167
    Total Energy =                       -387.2561219581921250
  Basis Set: CC-PVTZ
  Basis Set:
  Basis Set: CC-PVTZ
  Basis Set:
  @DF-RHF Final Energy:  -387.25612374880086
    Total Energy =                       -387.2561237488010875
  Basis Set: CC-PVTZ
  Basis Set:
  Charge       = 0
  Multiplicity = 1
  Basis Set: CC-PVTZ
  Basis Set:

    Orbital Energies (a.u.)
    -----------------------

    Doubly Occupied:

       1A    -20.551696     2A    -11.321245     3A    -11.233882
       4A    -11.232941     5A    -11.221344     6A    -11.218352
       7A    -11.215557     8A    -11.214084     9A    -11.207993
      10A     -1.406677    11A     -1.105181    12A     -1.069165
      13A     -1.010865    14A     -0.945876    15A     -0.875382
      16A     -0.831738    17A     -0.789461    18A     -0.766401
      19A     -0.669423    20A     -0.663273    21A     -0.633747
      22A     -0.628550    23A     -0.611809    24A     -0.591121
      25A     -0.563988    26A     -0.559638    27A     -0.539083
      28A     -0.522001    29A     -0.517205    30A     -0.500529
      31A     -0.487750    32A     -0.483570    33A     -0.456170
      34A     -0.451511    35A     -0.447036    36A     -0.412108

  @DF-RHF Final Energy:  -387.25612341738162

   => Energetics <=

    Nuclear Repulsion Energy =            452.6544090118229065
    One-Electron Energy =               -1421.9083633097357051
    Two-Electron Energy =                 581.9978308805303868
    DFT Exchange-Correlation Energy =       0.0000000000000000
    Empirical Dispersion Energy =           0.0000000000000000
    PCM Polarization Energy =               0.0000000000000000
    EFP Energy =                            0.0000000000000000
    Total Energy =                       -387.2561234173823550
    Molecular point group: c1
  Basis Set: CC-PVTZ
  Basis Set:

  -Total Gradient:
     Atom            X                  Y                   Z
    ------   -----------------  -----------------  -----------------
       1        0.000008197487    -0.000000588254    -0.000002832686
       2       -0.000002308996    -0.000022848936     0.000021472113
       3        0.000005332414     0.000011424580    -0.000011351123
       4        0.000024273911     0.000008138485    -0.000006587850
       5       -0.000034595298    -0.000064700018     0.000013623762
       6       -0.000020405207    -0.000001271298     0.000006797195
       7        0.000008161103     0.000023564998    -0.000007494158
       8        0.002038966143     0.004001161952    -0.001620949821
       9       -0.000006651492    -0.000017399200    -0.000011383760
      10       -0.000017792060    -0.000002203734    -0.000005295982
      11       -0.002104015100    -0.004538543583     0.002265596814
      12       -0.000016287147    -0.000013079460    -0.000005472662
      13        0.000026117125     0.000008563753     0.000013902933
      14       -0.003407712967    -0.004529339996    -0.000544718870
      15       -0.000006106702    -0.000008956620     0.000006236812
      16       -0.000003191701     0.000009317062     0.000004665502
      17       -0.000005497028    -0.000002204212    -0.000009751870
      18        0.003500794061     0.005135857475    -0.000115681802
      19        0.000003010811    -0.000007180706    -0.000006360971
      20        0.000001599198     0.000004327080     0.000007627328
      21        0.000002161152    -0.000009394852     0.000008116976
      22       -0.000003176070     0.000013139753    -0.000004127586
      23       -0.000001225605    -0.000007258034     0.000004916398
      24        0.000001599826     0.000002971511    -0.000002070409
      25        0.000008752140     0.000006502249     0.000001123718

  **** Optimization is complete! (in 11 steps) ****
    Final optimized geometry and variables:
    Molecular point group: c1

    Geometry (in Angstrom), charge = 0, multiplicity = 1:

    H           -0.811766660814     2.665511449108     1.349238484554
    C           -0.666182567160     1.831955526494     2.049919489123
    C           -1.656400612627     0.707719162524     1.911576321606
    O            0.212722564880     1.869900288764     2.839553298364
    C           -1.760702729974     0.184071653727     0.475980059688
    H           -1.384255048286    -0.078371355946     2.603925920970
    H           -2.621756789113     1.104348662561     2.218199513235
    C           -0.494506840979    -0.516912012905    -0.013471230963
    H           -2.598120935094    -0.502784680801     0.421469470747
    H           -2.002881238288     1.008126618522    -0.190947666845
    C           -0.631289536373    -1.024609893599    -1.447905638040
    H           -0.271877111720    -1.346168149695     0.653885141630
    H            0.346827508159     0.162247893485     0.060993112336
    C            0.551195576039    -1.844715415504    -1.990906781465
    H           -1.530739570996    -1.627232178279    -1.530362417612
    H           -0.793177131940    -0.164934473754    -2.092934755651
    C            1.954850328190    -1.348886836162    -1.624843610009
    H            0.496478328740    -1.832092757704    -3.075749642147
    H            0.452840108603    -2.876076438583    -1.668769592188
    C            2.313773678429     0.007737843035    -2.226765887184
    H            2.669598588896    -2.083897139335    -1.982014066360
    H            2.077457178616    -1.315492931813    -0.547913645807
    H            2.247589826301    -0.019872363113    -3.309680287855
    H            1.655829270603     0.795824271152    -1.879449297645
    H            3.326776537617     0.291186933347    -1.965722273322

  Mulliken Charges: (a.u.)
   Center  Symbol    Alpha    Beta     Spin     Total
       1     H     0.46384  0.46384  0.00000  0.07233
       2     C     2.90603  2.90603  0.00000  0.18794
       3     C     3.08726  3.08726  0.00000 -0.17452
       4     O     4.16624  4.16624  0.00000 -0.33248
       5     C     3.11808  3.11808  0.00000 -0.23616
       6     H     0.44315  0.44315  0.00000  0.11369
       7     H     0.44053  0.44053  0.00000  0.11894
       8     C     3.09531  3.09531  0.00000 -0.19062
       9     H     0.44206  0.44206  0.00000  0.11587
      10     H     0.44957  0.44957  0.00000  0.10087
      11     C     3.10828  3.10828  0.00000 -0.21655
      12     H     0.44818  0.44818  0.00000  0.10364
      13     H     0.44313  0.44313  0.00000  0.11373
      14     C     3.09794  3.09794  0.00000 -0.19588
      15     H     0.44364  0.44364  0.00000  0.11272
      16     H     0.45038  0.45038  0.00000  0.09925
      17     C     3.10139  3.10139  0.00000 -0.20277
      18     H     0.45041  0.45041  0.00000  0.09918
      19     H     0.44621  0.44621  0.00000  0.10759
      20     C     3.15035  3.15035  0.00000 -0.30070
      21     H     0.44341  0.44341  0.00000  0.11318
      22     H     0.44907  0.44907  0.00000  0.10186
      23     H     0.45379  0.45379  0.00000  0.09242
      24     H     0.45674  0.45674  0.00000  0.08652
      25     H     0.44502  0.44502  0.00000  0.10996

   Total alpha = 36.00000, Total beta = 36.00000, Total charge =  0.00000

*** Psi4 exiting successfully. Buy a developer a beer!
