  ==> Input File <==

--------------------------------------------------------------------------
set {
	reference rhf
	basis cc-pvtz
}

set_num_threads( 4 )
memory 2 gb

molecule MOL {
0 1

H	 -0.939000	 0.000000	 1.723000
O	 -0.036000	 -0.000000	 1.433000
C	 0.005000	 -0.000000	 0.018000
C	 -0.681000	 -1.260000	 -0.513000
C	 -0.680000	 1.260000	 -0.513000
C	 1.488000	 -0.001000	 -0.337000
H	 -0.632000	 -1.310000	 -1.597000
H	 -1.731000	 -1.276000	 -0.229000
H	 -0.208000	 -2.146000	 -0.105000
H	 -0.631000	 1.311000	 -1.596000
H	 -1.730000	 1.279000	 -0.229000
H	 -0.206000	 2.146000	 -0.104000
H	 1.630000	 -0.001000	 -1.413000
H	 1.972000	 -0.879000	 0.076000
H	 1.973000	 0.877000	 0.076000

	symmetry c1
}
ee = optimize('scf')
oeprop('DIPOLE', 'QUADRUPOLE', 'MULLIKEN_CHARGES')
f=open( 'psi4out.xyz', 'w' )
f.write( "15  " )
f.write( str(ee) + "\n" )
f.write( MOL.save_string_xyz() )
f.close()
--------------------------------------------------------------------------

    Molecular point group: c1
  Charge       = 0
  Multiplicity = 1
  Basis Set: CC-PVTZ
  Basis Set:
  @DF-RHF Final Energy:  -232.24668734972937
    Total Energy =                       -232.2466873497292568
    Molecular point group: c1
  Basis Set: CC-PVTZ
  Basis Set:
  Basis Set: CC-PVTZ
  Basis Set:
  @DF-RHF Final Energy:  -232.24680050676830
    Total Energy =                       -232.2468005067682384
  Basis Set: CC-PVTZ
  Basis Set:
  Basis Set: CC-PVTZ
  Basis Set:
  @DF-RHF Final Energy:  -232.24680027903241
    Total Energy =                       -232.2468002790322998
  Basis Set: CC-PVTZ
  Basis Set:
  Basis Set: CC-PVTZ
  Basis Set:
  @DF-RHF Final Energy:  -232.24680311529605
    Total Energy =                       -232.2468031152961885
  Basis Set: CC-PVTZ
  Basis Set:
  Charge       = 0
  Multiplicity = 1
  Basis Set: CC-PVTZ
  Basis Set:

    Orbital Energies (a.u.)
    -----------------------

    Doubly Occupied:

       1A    -20.542258     2A    -11.280797     3A    -11.209309
       4A    -11.209293     5A    -11.203888     6A     -1.364963
       7A     -1.065188     8A     -0.942070     9A     -0.940436
      10A     -0.778487    11A     -0.672659    12A     -0.624302
      13A     -0.622787    14A     -0.575940    15A     -0.557595
      16A     -0.532706    17A     -0.517034    18A     -0.511282
      19A     -0.504679    20A     -0.458811    21A     -0.428790

  @DF-RHF Final Energy:  -232.24680393849104

   => Energetics <=

    Nuclear Repulsion Energy =            200.6737063394795655
    One-Electron Energy =                -712.7544707960336154
    Two-Electron Energy =                 279.8339605180628951
    DFT Exchange-Correlation Energy =       0.0000000000000000
    Empirical Dispersion Energy =           0.0000000000000000
    PCM Polarization Energy =               0.0000000000000000
    EFP Energy =                            0.0000000000000000
    Total Energy =                       -232.2468039384912117
    Molecular point group: c1
  Basis Set: CC-PVTZ
  Basis Set:

  -Total Gradient:
     Atom            X                  Y                   Z
    ------   -----------------  -----------------  -----------------
       1       -0.000042967337     0.000000097641     0.000018843018
       2        0.000036811036     0.000000916070     0.000041688549
       3        0.000001238683     0.000000337243    -0.000036047777
       4       -0.000002189855    -0.000002562170     0.000004624237
       5       -0.000003167390     0.000000866637     0.000006944947
       6        0.000011859633    -0.000002219111     0.000002404202
       7       -0.000002475770    -0.000006497614    -0.000014152129
       8       -0.000004976037    -0.000003675948    -0.000000286508
       9       -0.000000111577    -0.000003329431     0.000000687004
      10       -0.000002461972     0.000006307213    -0.000011728201
      11       -0.000005949399     0.000004410567    -0.000002192481
      12       -0.000000324682     0.000004778043    -0.000000026978
      13        0.000006199732     0.000000047218    -0.000012304253
      14        0.000004043527    -0.000002176030     0.000000223733
      15        0.000004471406     0.000002699672     0.000001322638

  **** Optimization is complete! (in 5 steps) ****
    Final optimized geometry and variables:
    Molecular point group: c1

    Geometry (in Angstrom), charge = 0, multiplicity = 1:

    H           -0.939692776252     0.000280765600     1.681345143204
    O           -0.046261482605    -0.000157321840     1.387678409343
    C           -0.000836609098     0.000005863824    -0.025491074019
    C           -0.685865372847    -1.256559344413    -0.559279086901
    C           -0.684553376500     1.257428042182    -0.558939951010
    C            1.479419538639    -0.000731821352    -0.381904092810
    H           -0.635089823926    -1.302455515533    -1.640994437407
    H           -1.733979775068    -1.273355086598    -0.276005261399
    H           -0.213145165727    -2.142437866030    -0.154041890165
    H           -0.633672818280     1.303583653627    -1.640636452354
    H           -1.732669527131     1.275219039535    -0.275730829874
    H           -0.210949920864     2.142711796935    -0.153430860124
    H            1.618193674029    -0.000623337794    -1.456627053348
    H            1.963185221062    -0.877949493377     0.028791168975
    H            1.964131848945     0.875823271810     0.029094076072

  Mulliken Charges: (a.u.)
   Center  Symbol    Alpha    Beta     Spin     Total
       1     H     0.39575  0.39575  0.00000  0.20849
       2     O     4.21099  4.21099  0.00000 -0.42198
       3     C     2.87837  2.87837  0.00000  0.24327
       4     C     3.15023  3.15023  0.00000 -0.30046
       5     C     3.15023  3.15023  0.00000 -0.30047
       6     C     3.14316  3.14316  0.00000 -0.28633
       7     H     0.45552  0.45552  0.00000  0.08895
       8     H     0.45594  0.45594  0.00000  0.08812
       9     H     0.44646  0.44646  0.00000  0.10708
      10     H     0.45552  0.45552  0.00000  0.08895
      11     H     0.45594  0.45594  0.00000  0.08812
      12     H     0.44646  0.44646  0.00000  0.10709
      13     H     0.45872  0.45872  0.00000  0.08256
      14     H     0.44835  0.44835  0.00000  0.10330
      15     H     0.44835  0.44835  0.00000  0.10330

   Total alpha = 21.00000, Total beta = 21.00000, Total charge = -0.00000
