  ==> Input File <==

--------------------------------------------------------------------------
set {
	reference rhf
	basis cc-pvtz
}

set_num_threads( 4 )
memory 2 gb

molecule MOL {
0 1

H	 3.293994	 -0.427963	 -0.034615
C	 2.236031	 -0.247373	 -0.026401
C	 1.463525	 -0.726038	 1.021190
C	 1.652406	 0.459763	 -1.058320
H	 1.924359	 -1.274744	 1.819530
C	 0.105977	 -0.496562	 1.035571
H	 2.252422	 0.828745	 -1.867214
C	 0.288891	 0.689429	 -1.042478
H	 -0.507753	 -0.858335	 1.836266
C	 -0.486398	 0.214248	 0.000000
H	 -0.171892	 1.239024	 -1.842352
C	 -1.946525	 0.470130	 0.000000
O	 -2.779618	 -0.371226	 0.000000
H	 -2.227127	 1.528393	 0.000000

	symmetry c1
}
set optking {
	frozen_dihedral = ("
		8 10 12 14
	")
}

ee = optimize('scf')
oeprop('DIPOLE', 'QUADRUPOLE', 'MULLIKEN_CHARGES')
f=open( 'psi4out.xyz', 'w' )
f.write( "14  " )
f.write( str(ee) + "\n" )
f.write( MOL.save_string_xyz() )
f.close()
--------------------------------------------------------------------------

    Molecular point group: c1
  Charge       = 0
  Multiplicity = 1
  Basis Set: CC-PVTZ
  Basis Set:
  @DF-RHF Final Energy:  -343.54022940633632
    Total Energy =                       -343.5402294063362092
    Molecular point group: c1
  Basis Set: CC-PVTZ
  Basis Set:
  Basis Set: CC-PVTZ
  Basis Set:
  @DF-RHF Final Energy:  -343.53816380146458
    Total Energy =                       -343.5381638014648615
  Basis Set: CC-PVTZ
  Basis Set:
  Basis Set: CC-PVTZ
  Basis Set:
  @DF-RHF Final Energy:  -343.54093875778642
    Total Energy =                       -343.5409387577861935
  Basis Set: CC-PVTZ
  Basis Set:
  Basis Set: CC-PVTZ
  Basis Set:
  @DF-RHF Final Energy:  -343.54101300208691
    Total Energy =                       -343.5410130020866859
  Basis Set: CC-PVTZ
  Basis Set:
  Basis Set: CC-PVTZ
  Basis Set:
  @DF-RHF Final Energy:  -343.54101417714355
    Total Energy =                       -343.5410141771434382
  Basis Set: CC-PVTZ
  Basis Set:
  Charge       = 0
  Multiplicity = 1
  Basis Set: CC-PVTZ
  Basis Set:

    Orbital Energies (a.u.)
    -----------------------

    Doubly Occupied:

       1A    -20.560387     2A    -11.330900     3A    -11.249453
       4A    -11.247918     5A    -11.245081     6A    -11.244192
       7A    -11.242474     8A    -11.241282     9A     -1.415164
      10A     -1.175145    11A     -1.049482    12A     -1.033952
      13A     -0.890771    14A     -0.845758    15A     -0.797227
      16A     -0.725522    17A     -0.681022    18A     -0.657256
      19A     -0.639087    20A     -0.621087    21A     -0.604705
      22A     -0.545947    23A     -0.530988    24A     -0.514393
      25A     -0.506935    26A     -0.426416    27A     -0.352711
      28A     -0.351556

  @DF-RHF Final Energy:  -343.54101443105822

   => Energetics <=

    Nuclear Repulsion Energy =            323.6694474412624913
    One-Electron Energy =               -1106.9672992461605645
    Two-Electron Energy =                 439.7568373738397440
    DFT Exchange-Correlation Energy =       0.0000000000000000
    Empirical Dispersion Energy =           0.0000000000000000
    PCM Polarization Energy =               0.0000000000000000
    EFP Energy =                            0.0000000000000000
    Total Energy =                       -343.5410144310583291
    Molecular point group: c1
  Basis Set: CC-PVTZ
  Basis Set:

  -Total Gradient:
     Atom            X                  Y                   Z
    ------   -----------------  -----------------  -----------------
       1        0.000000606727    -0.000007799875     0.000004375996
       2        0.000004366975     0.000040614976    -0.000062275911
       3       -0.000058917140     0.000005239089     0.000033176511
       4        0.000071101296    -0.000041955907     0.000028416060
       5        0.000007584011    -0.000000554783    -0.000006328123
       6        0.000062155411    -0.000022949112     0.000024439211
       7       -0.000002442143     0.000001319452     0.000000922970
       8       -0.000731534401    -0.004940330570    -0.002625023807
       9       -0.000000598543     0.000018056858     0.000002971594
      10        0.000943964102     0.007300219055     0.006040036865
      11        0.000002597910     0.000010167907     0.000005752617
      12       -0.000217761333    -0.002618578448    -0.010337039310
      13       -0.000000925509     0.000028226568    -0.000002339529
      14       -0.000080197366     0.000228324790     0.006892914859

  **** Optimization is complete! (in 6 steps) ****
    Final optimized geometry and variables:
    Molecular point group: c1

    Geometry (in Angstrom), charge = 0, multiplicity = 1:

    H            3.288028270523    -0.450882586715    -0.038811645218
    C            2.233130809252    -0.254205626031    -0.028306605491
    C            1.454004259399    -0.720432399057     1.015209947037
    C            1.653903932892     0.459223765766    -1.060283186483
    H            1.903292093396    -1.280063348246     1.812784724041
    C            0.094500180165    -0.480666902678     1.024098342360
    H            2.254664803820     0.809275751595    -1.877341980004
    C            0.297466229075     0.721431593054    -1.039480010309
    H           -0.520373352253    -0.865405158689     1.814242542462
    C           -0.482927463867     0.261091003497     0.006823597374
    H           -0.151207314914     1.282832852391    -1.838309319209
    C           -1.961598793923     0.469763794509    -0.015999824211
    O           -2.749283448831    -0.405736387560     0.085010651420
    H           -2.296638966386     1.511615888852    -0.055617162279

  Mulliken Charges: (a.u.)
   Center  Symbol    Alpha    Beta     Spin     Total
       1     H     0.42050  0.42050  0.00000  0.15899
       2     C     3.07896  3.07896  0.00000 -0.15793
       3     C     3.06469  3.06469  0.00000 -0.12937
       4     C     3.06787  3.06787  0.00000 -0.13573
       5     H     0.42081  0.42081  0.00000  0.15838
       6     C     3.09063  3.09063  0.00000 -0.18126
       7     H     0.42085  0.42085  0.00000  0.15831
       8     C     3.09382  3.09382  0.00000 -0.18764
       9     H     0.41635  0.41635  0.00000  0.16730
      10     C     2.95540  2.95540  0.00000  0.08920
      11     H     0.42421  0.42421  0.00000  0.15159
      12     C     2.93002  2.93002  0.00000  0.13997
      13     O     4.16019  4.16019  0.00000 -0.32037
      14     H     0.45572  0.45572  0.00000  0.08856

   Total alpha = 28.00000, Total beta = 28.00000, Total charge = -0.00000
