                              Psi4 1.0.54 Driver

  ==> Input File <==

--------------------------------------------------------------------------
set {
	reference rhf
	basis cc-pvtz
}

set_num_threads( 4 )
memory 2 gb

molecule MOL {
0 1

H	 -0.886353	 4.075028	 -0.206556
O	 -0.970912	 3.171907	 0.036912
C	 0.195440	 2.468143	 -0.304198
C	 0.027642	 1.012027	 0.090274
H	 1.053379	 2.881115	 0.220362
H	 0.393366	 2.555635	 -1.368919
C	 -1.138737	 0.285728	 -0.581921
H	 -0.104178	 0.969771	 1.166538
H	 0.958383	 0.496188	 -0.132987
C	 -1.933983	 -0.631436	 0.343653
H	 -0.763151	 -0.285569	 -1.422081
H	 -1.808359	 1.035291	 -0.992333
H	 -2.789188	 -1.049673	 -0.174718
H	 -1.335629	 -1.461368	 0.700418
H	 -2.305435	 -0.092167	 1.209725

	symmetry c1
}
set optking {
	frozen_dihedral = ("
		8 4 7 11
	")
}

ee,wfn = optimize('scf', return_wfn=True)
oeprop( wfn, 'DIPOLE', 'QUADRUPOLE', 'MULLIKEN_CHARGES')
f=open( 'psi4out.xyz', 'w' )
f.write( "15  " )
f.write( str(ee) + "\n" )
f.write( MOL.save_string_xyz() )
f.close()
--------------------------------------------------------------------------

    Molecular point group: c1
  Charge       = 0
  Multiplicity = 1
  Basis Set: CC-PVTZ
  Basis Set:
  @DF-RHF Final Energy:  -232.23459815466148
    Total Energy =                       -232.2345981546613984
    Molecular point group: c1
  Basis Set: CC-PVTZ
  Basis Set:
  Basis Set: CC-PVTZ
  Basis Set:
  @DF-RHF Final Energy:  -232.23530935316367
    Total Energy =                       -232.2353093531638137
  Basis Set: CC-PVTZ
  Basis Set:
  Basis Set: CC-PVTZ
  Basis Set:
  @DF-RHF Final Energy:  -232.23545557684153
    Total Energy =                       -232.2354555768416731
  Basis Set: CC-PVTZ
  Basis Set:
  Basis Set: CC-PVTZ
  Basis Set:
  @DF-RHF Final Energy:  -232.23546267309587
    Total Energy =                       -232.2354626730956966
  Basis Set: CC-PVTZ
  Basis Set:
  Basis Set: CC-PVTZ
  Basis Set:
  @DF-RHF Final Energy:  -232.23546547392635
    Total Energy =                       -232.2354654739266948
  Basis Set: CC-PVTZ
  Basis Set:
  Charge       = 0
  Multiplicity = 1
  Basis Set: CC-PVTZ
  Basis Set:

    Orbital Energies (a.u.)
    -----------------------

    Doubly Occupied:

       1A    -20.546740     2A    -11.266479     3A    -11.210321
       4A    -11.207535     5A    -11.201441     6A     -1.364651
       7A     -1.064004     8A     -0.974807     9A     -0.856379
      10A     -0.787627    11A     -0.708861    12A     -0.637096
      13A     -0.611217    14A     -0.596055    15A     -0.547468
      16A     -0.527904    17A     -0.513551    18A     -0.476421
      19A     -0.462418    20A     -0.457951    21A     -0.433176

  @DF-RHF Final Energy:  -232.23546564623652

   => Energetics <=

    Nuclear Repulsion Energy =            189.4661267539352991
    One-Electron Energy =                -690.4989814689292871
    Two-Electron Energy =                 268.7973890687574112
    DFT Exchange-Correlation Energy =       0.0000000000000000
    Empirical Dispersion Energy =           0.0000000000000000
    PCM Polarization Energy =               0.0000000000000000
    EFP Energy =                            0.0000000000000000
    Total Energy =                       -232.2354656462365483
    Molecular point group: c1
  Basis Set: CC-PVTZ
  Basis Set:

  -Total Gradient:
     Atom            X                  Y                   Z
    ------   -----------------  -----------------  -----------------
       1        0.000000260313    -0.000004418053     0.000010062348
       2        0.000000293480     0.000020103410    -0.000001890222
       3       -0.000006367298    -0.000009057336    -0.000014513016
       4       -0.002208156378     0.003237599960     0.000372008988
       5        0.000000443778     0.000002899944    -0.000000706991
       6        0.000004495669     0.000003113095    -0.000008465655
       7       -0.000122621424     0.002742563506    -0.002661622631
       8        0.001850030705    -0.003128482877     0.000131042444
       9        0.000000358120    -0.000008224466    -0.000008438093
      10       -0.000011754557    -0.000013385870     0.000012715582
      11        0.000469991554    -0.002846376752     0.002161506634
      12        0.000017401121    -0.000004975202     0.000005957155
      13        0.000006852053     0.000008837089     0.000004499137
      14        0.000001369083    -0.000000940017    -0.000005002787
      15       -0.000002596219     0.000000743574     0.000002847105

  **** Optimization is complete! (in 6 steps) ****
    Final optimized geometry and variables:
    Molecular point group: c1

    Geometry (in Angstrom), charge = 0, multiplicity = 1:

    H           -0.091414897831     2.770074885952    -0.151483411164
    O           -0.162249428208     1.885014055196     0.154407409313
    C            0.957919051952     1.141364175044    -0.250290746885
    C            0.773208499450    -0.299100790694     0.181343833870
    H            1.861319645913     1.545221954620     0.199460544004
    H            1.076933504044     1.191408001782    -1.331066928272
    C           -0.391384170691    -1.020578245027    -0.516476447597
    H            0.644617925743    -0.332920110144     1.258082917663
    H            1.701405395178    -0.827418566803    -0.017970017244
    C           -1.133926644840    -1.980173864424     0.410077374676
    H           -0.007992514780    -1.592487857699    -1.355677906407
    H           -1.091071811409    -0.293531714551    -0.908258115260
    H           -1.922402119264    -2.504368288384    -0.118215141149
    H           -0.461643120522    -2.725568902600     0.823477531524
    H           -1.585360454150    -1.446194913663     1.238907504715

  Mulliken Charges: (a.u.)
   Center  Symbol    Alpha    Beta     Spin     Total
       1     H     0.39528  0.39528  0.00000  0.20944
       2     O     4.19918  4.19918  0.00000 -0.39836
       3     C     2.97423  2.97423  0.00000  0.05154
       4     C     3.08994  3.08994  0.00000 -0.17987
       5     H     0.46447  0.46447  0.00000  0.07107
       6     H     0.47276  0.47276  0.00000  0.05447
       7     C     3.08275  3.08275  0.00000 -0.16549
       8     H     0.45327  0.45327  0.00000  0.09347
       9     H     0.45312  0.45312  0.00000  0.09376
      10     C     3.14879  3.14879  0.00000 -0.29757
      11     H     0.45623  0.45623  0.00000  0.08753
      12     H     0.44988  0.44988  0.00000  0.10024
      13     H     0.45103  0.45103  0.00000  0.09795
      14     H     0.45691  0.45691  0.00000  0.08618
      15     H     0.45218  0.45218  0.00000  0.09564

   Total alpha = 21.00000, Total beta = 21.00000, Total charge =  0.00000

*** Psi4 exiting successfully. Buy a developer a beer!
