  ==> Input File <==

--------------------------------------------------------------------------
set {
	reference rhf
	basis 6-31G*
}

set_num_threads( 4 )
memory 2 gb

molecule MOL {
0 1

H	 -2.826565	 0.340889	 -0.233071
O	 -2.035884	 -0.060112	 0.102722
C	 -0.955155	 0.788182	 -0.092531
C	 0.353668	 0.040312	 -0.004810
H	 -0.985057	 1.290372	 -1.054184
H	 -0.974469	 1.533190	 0.688632
F	 0.394464	 -0.937475	 -0.903053
F	 1.368604	 0.853376	 -0.249821
F	 0.546173	 -0.502608	 1.179981

	symmetry c1
}
set optking {
	frozen_dihedral = ("
		1 2 3 5
	")
}

ee = optimize('scf')
oeprop('DIPOLE', 'QUADRUPOLE', 'MULLIKEN_CHARGES')
f=open( 'psi4out.xyz', 'w' )
f.write( "9  " )
f.write( str(ee) + "\n" )
f.write( MOL.save_string_xyz() )
f.close()
--------------------------------------------------------------------------

    Molecular point group: c1
  Charge       = 0
  Multiplicity = 1
  Basis Set: 6-31G*
  Basis Set:
  @DF-RHF Final Energy:  -450.65790309541745
    Total Energy =                       -450.6579030954175664
    Molecular point group: c1
  Basis Set: 6-31G*
  Basis Set:
  Basis Set: 6-31G*
  Basis Set:
  @DF-RHF Final Energy:  -450.65920245559721
    Total Energy =                       -450.6592024555970966
  Basis Set: 6-31G*
  Basis Set:
  Basis Set: 6-31G*
  Basis Set:
  @DF-RHF Final Energy:  -450.65952739309881
    Total Energy =                       -450.6595273930988697
  Basis Set: 6-31G*
  Basis Set:
  Basis Set: 6-31G*
  Basis Set:
  @DF-RHF Final Energy:  -450.65953702437474
    Total Energy =                       -450.6595370243746856
  Basis Set: 6-31G*
  Basis Set:
  Charge       = 0
  Multiplicity = 1
  Basis Set: 6-31G*
  Basis Set:

    Orbital Energies (a.u.)
    -----------------------

    Doubly Occupied:

       1A    -26.336591     2A    -26.332692     3A    -26.332577
       4A    -20.589121     5A    -11.496379     6A    -11.309845
       7A     -1.733289     8A     -1.631123     9A     -1.629427
      10A     -1.401219    11A     -1.047878    12A     -0.916532
      13A     -0.825040    14A     -0.822923    15A     -0.782709
      16A     -0.733947    17A     -0.706256    18A     -0.695716
      19A     -0.665704    20A     -0.649180    21A     -0.636461
      22A     -0.634180    23A     -0.594564    24A     -0.528830
      25A     -0.478793

  @DF-RHF Final Energy:  -450.65953916126557

   => Energetics <=

    Nuclear Repulsion Energy =            277.0874755521211910
    One-Electron Energy =               -1176.4720799907192941
    Two-Electron Energy =                 448.7250652773324759
    DFT Exchange-Correlation Energy =       0.0000000000000000
    Empirical Dispersion Energy =           0.0000000000000000
    PCM Polarization Energy =               0.0000000000000000
    EFP Energy =                            0.0000000000000000
    Total Energy =                       -450.6595391612656272
    Molecular point group: c1
  Basis Set: 6-31G*
  Basis Set:

  -Total Gradient:
     Atom            X                  Y                   Z
    ------   -----------------  -----------------  -----------------
       1        0.000069506723    -0.000169957458    -0.000345329067
       2       -0.000069958927     0.000370838754     0.000407371843
       3        0.000228838359    -0.000444549602    -0.000156365067
       4        0.000059750161     0.000180507536     0.000083167142
       5       -0.000228009209     0.000224440749     0.000119567260
       6       -0.000023181197    -0.000000556677    -0.000006338923
       7        0.000031350516    -0.000034317562    -0.000033668949
       8       -0.000050940295    -0.000109162709    -0.000029026680
       9       -0.000017356130    -0.000017243035    -0.000039377557

  **** Optimization is complete! (in 5 steps) ****
    Final optimized geometry and variables:
    Molecular point group: c1

    Geometry (in Angstrom), charge = 0, multiplicity = 1:

    H           -2.793500525991     0.273993696938    -0.228377841370
    O           -1.990644983760    -0.076268030022     0.129006166952
    C           -0.938748405183     0.803313004220    -0.100842145023
    C            0.349383787202     0.023295804948    -0.020213461787
    H           -0.981316612336     1.256027804481    -1.085334871895
    H           -0.894717364241     1.591221563621     0.643605538692
    F            0.416804617459    -0.914568226934    -0.945472686113
    F            1.373899607534     0.845333899954    -0.205514468233
    F            0.505206921559    -0.554242911295     1.154386147402

  Mulliken Charges: (a.u.)
   Center  Symbol    Alpha    Beta     Spin     Total
       1     H     0.27128  0.27128  0.00000  0.45744
       2     O     4.36337  4.36337  0.00000 -0.72674
       3     C     3.05320  3.05320  0.00000 -0.10639
       4     C     2.45300  2.45300  0.00000  1.09400
       5     H     0.41065  0.41065  0.00000  0.17870
       6     H     0.40908  0.40908  0.00000  0.18184
       7     F     4.67746  4.67746  0.00000 -0.35492
       8     F     4.68542  4.68542  0.00000 -0.37083
       9     F     4.67654  4.67654  0.00000 -0.35308

   Total alpha = 25.00000, Total beta = 25.00000, Total charge = -0.00000
