                              Psi4 1.0.54 Driver

  ==> Input File <==

--------------------------------------------------------------------------
set {
	reference rhf
	basis cc-pvtz
}

set_num_threads( 4 )
memory 2 gb

molecule MOL {
0 1

O	 3.219313	 0.959291	 -0.614106
C	 2.698710	 0.058177	 -0.050237
C	 1.246364	 -0.005813	 0.348416
O	 3.344101	 -1.038700	 0.312317
C	 0.453207	 1.232821	 -0.049003
H	 0.839270	 -0.907818	 -0.092281
H	 1.216683	 -0.160521	 1.422434
C	 -0.998367	 1.217982	 0.432195
H	 0.481498	 1.345443	 -1.127236
H	 0.951413	 2.105557	 0.354893
C	 -1.882951	 0.151251	 -0.211235
H	 -1.429490	 2.193659	 0.228843
H	 -1.019755	 1.099323	 1.513279
C	 -1.644975	 0.004471	 -1.711772
H	 -1.700530	 -0.803976	 0.275730
H	 -2.930677	 0.383505	 -0.044310
C	 -2.527614	 -1.054387	 -2.366403
H	 -0.600615	 -0.242387	 -1.887024
H	 -1.815660	 0.962311	 -2.197851
C	 -2.282779	 -1.196388	 -3.864958
H	 -2.358018	 -2.012094	 -1.881888
H	 -3.571849	 -0.807619	 -2.194547
H	 -2.924662	 -1.954947	 -4.298037
H	 -1.254895	 -1.477650	 -4.068562
H	 -2.477352	 -0.263385	 -4.383471
C	 4.720529	 -1.114346	 0.001449
H	 4.874321	 -1.055557	 -1.065852
H	 5.057824	 -2.067950	 0.373977
H	 5.264321	 -0.313596	 0.480350

	symmetry c1
}
set optking {
	frozen_dihedral = ("
		15 11 8 5
	")
}

ee,wfn = optimize('scf', return_wfn=True)
oeprop( wfn, 'DIPOLE', 'QUADRUPOLE', 'MULLIKEN_CHARGES')
f=open( 'psi4out.xyz', 'w' )
f.write( "29  " )
f.write( str(ee) + "\n" )
f.write( MOL.save_string_xyz() )
f.close()
--------------------------------------------------------------------------

    Molecular point group: c1
  Charge       = 0
  Multiplicity = 1
  Basis Set: CC-PVTZ
  Basis Set:
  @DF-RHF Final Energy:  -501.21987002263813
    Total Energy =                       -501.2198700226380197
    Molecular point group: c1
  Basis Set: CC-PVTZ
  Basis Set:
  Basis Set: CC-PVTZ
  Basis Set:
  @DF-RHF Final Energy:  -501.22023615336104
    Total Energy =                       -501.2202361533613839
  Basis Set: CC-PVTZ
  Basis Set:
  Basis Set: CC-PVTZ
  Basis Set:
  @DF-RHF Final Energy:  -501.22180225244449
    Total Energy =                       -501.2218022524450589
  Basis Set: CC-PVTZ
  Basis Set:
  Basis Set: CC-PVTZ
  Basis Set:
  @DF-RHF Final Energy:  -501.22193223218005
    Total Energy =                       -501.2219322321807340
  Basis Set: CC-PVTZ
  Basis Set:
  Basis Set: CC-PVTZ
  Basis Set:
  @DF-RHF Final Energy:  -501.22178831977544
    Total Energy =                       -501.2217883197754418
  Basis Set: CC-PVTZ
  Basis Set:
  Basis Set: CC-PVTZ
  Basis Set:
  @DF-RHF Final Energy:  -501.22197013884022
    Total Energy =                       -501.2219701388410158
  Basis Set: CC-PVTZ
  Basis Set:
  Basis Set: CC-PVTZ
  Basis Set:
  @DF-RHF Final Energy:  -501.22197387478582
    Total Energy =                       -501.2219738747866131
  Basis Set: CC-PVTZ
  Basis Set:
  Charge       = 0
  Multiplicity = 1
  Basis Set: CC-PVTZ
  Basis Set:

    Orbital Energies (a.u.)
    -----------------------

    Doubly Occupied:

       1A    -20.596017     2A    -20.533862     3A    -11.364191
       4A    -11.278273     5A    -11.232741     6A    -11.216255
       7A    -11.215652     8A    -11.214274     9A    -11.214076
      10A    -11.212854    11A    -11.207033    12A     -1.471860
      13A     -1.365444    14A     -1.099531    15A     -1.066265
      16A     -1.019772    17A     -0.976780    18A     -0.930490
      19A     -0.868293    20A     -0.808392    21A     -0.780995
      22A     -0.759522    23A     -0.703638    24A     -0.685795
      25A     -0.675487    26A     -0.647969    27A     -0.635445
      28A     -0.604258    29A     -0.595804    30A     -0.579825
      31A     -0.565434    32A     -0.556512    33A     -0.538193
      34A     -0.528557    35A     -0.524009    36A     -0.508938
      37A     -0.491746    38A     -0.482155    39A     -0.472078
      40A     -0.460429    41A     -0.456942    42A     -0.455027
      43A     -0.443229    44A     -0.439211

  @DF-RHF Final Energy:  -501.22197419542169

   => Energetics <=

    Nuclear Repulsion Energy =            628.3075678124106389
    One-Electron Energy =               -1928.0925881837838460
    Two-Electron Energy =                 798.5630461759517402
    DFT Exchange-Correlation Energy =       0.0000000000000000
    Empirical Dispersion Energy =           0.0000000000000000
    PCM Polarization Energy =               0.0000000000000000
    EFP Energy =                            0.0000000000000000
    Total Energy =                       -501.2219741954215806
    Molecular point group: c1
  Basis Set: CC-PVTZ
  Basis Set:

  -Total Gradient:
     Atom            X                  Y                   Z
    ------   -----------------  -----------------  -----------------
       1        0.000006767192     0.000045151500    -0.000015469114
       2        0.000010682704     0.000001092958     0.000029127782
       3       -0.000012224128    -0.000028641981    -0.000041908007
       4       -0.000020633039    -0.000033601992    -0.000002234943
       5       -0.000806913888     0.002200876492    -0.002454858545
       6       -0.000005731110    -0.000005766340     0.000016399931
       7        0.000008708565     0.000007219526     0.000016590261
       8        0.000335238119    -0.003035327866     0.004270138903
       9        0.000012976499     0.000012255491    -0.000007939320
      10       -0.000009035196    -0.000001162889     0.000003719945
      11        0.003913026355     0.000103027729    -0.004662599514
      12        0.000009709872    -0.000024003729    -0.000008377806
      13       -0.000008232089     0.000012218028     0.000019706077
      14       -0.000021014787     0.000023495588    -0.000019622529
      15       -0.003421272459     0.000707815549     0.002874508973
      16        0.000019722238     0.000014781974     0.000001488771
      17       -0.000004987872     0.000003871031    -0.000005877180
      18       -0.000005692258    -0.000000037116    -0.000005823438
      19       -0.000004823123     0.000000803489    -0.000011554833
      20        0.000012781236    -0.000009480542     0.000004825756
      21       -0.000006026852    -0.000002477233    -0.000002451302
      22        0.000000061255     0.000004512782    -0.000001384876
      23        0.000003055280    -0.000004131154     0.000000586928
      24        0.000002091603     0.000001961153    -0.000005514240
      25       -0.000002778535    -0.000003835123     0.000007830852
      26       -0.000000098850    -0.000000866767     0.000005067723
      27        0.000002779124     0.000000769312     0.000003040585
      28       -0.000009313703     0.000011992999    -0.000003687784
      29        0.000001177852    -0.000002512871    -0.000003729058

  **** Optimization is complete! (in 8 steps) ****
    Final optimized geometry and variables:
    Molecular point group: c1

    Geometry (in Angstrom), charge = 0, multiplicity = 1:

    O            2.625381229145     1.142325680818     0.253975298733
    C            2.115886869030     0.200675940559     0.758816093610
    C            0.651275232763     0.068796126945     1.089558639079
    O            2.786457963347    -0.886221399458     1.105446575512
    C           -0.170008533962     1.298287796925     0.721789367979
    H            0.292834018474    -0.822577067455     0.587545083399
    H            0.580792247803    -0.143605229715     2.151610895309
    C           -1.647042151176     1.178933073074     1.102652716872
    H           -0.066831207347     1.498640966686    -0.336437714457
    H            0.250183609899     2.159282933756     1.227468180668
    C           -2.463255009309     0.091661989615     0.389140194609
    H           -2.110020215695     2.139499878347     0.895669148334
    H           -1.733873241405     1.030899347176     2.175362711436
    C           -2.287958276781     0.008918974822    -1.124439644099
    H           -2.279025474023    -0.876787676258     0.847345823111
    H           -3.510861379994     0.293013128650     0.598622792385
    C           -3.246991172974    -0.982188562708    -1.779107140156
    H           -1.269749389266    -0.273994046198    -1.372894429991
    H           -2.441902161471     0.994499347338    -1.558197812866
    C           -3.069143577449    -1.079107376522    -3.290608349722
    H           -3.104777382378    -1.964448479864    -1.336358091253
    H           -4.269996682660    -0.693377413757    -1.554797265278
    H           -3.764875352554    -1.788890680494    -3.723227535753
    H           -2.065572976621    -1.401714911950    -3.547363034037
    H           -3.237638706628    -0.118896295359    -3.766719643146
    C            4.176590437634    -0.899381323031     0.851917505314
    H            4.372766879724    -0.791092318528    -0.204516666353
    H            4.533769033125    -1.854744073825     1.200613195954
    H            4.669219483428    -0.099993820527     1.385344677998

  Mulliken Charges: (a.u.)
   Center  Symbol    Alpha    Beta     Spin     Total
       1     O     4.19678  4.19678  0.00000 -0.39356
       2     C     2.80463  2.80463  0.00000  0.39074
       3     C     3.10208  3.10208  0.00000 -0.20416
       4     O     4.14734  4.14734  0.00000 -0.29467
       5     C     3.10198  3.10198  0.00000 -0.20396
       6     H     0.43934  0.43934  0.00000  0.12131
       7     H     0.43775  0.43775  0.00000  0.12449
       8     C     3.10795  3.10795  0.00000 -0.21590
       9     H     0.44196  0.44196  0.00000  0.11607
      10     H     0.43609  0.43609  0.00000  0.12782
      11     C     3.11022  3.11022  0.00000 -0.22044
      12     H     0.44496  0.44496  0.00000  0.11008
      13     H     0.44758  0.44758  0.00000  0.10483
      14     C     3.08978  3.08978  0.00000 -0.17956
      15     H     0.44953  0.44953  0.00000  0.10094
      16     H     0.44488  0.44488  0.00000  0.11025
      17     C     3.08468  3.08468  0.00000 -0.16937
      18     H     0.45340  0.45340  0.00000  0.09320
      19     H     0.45108  0.45108  0.00000  0.09783
      20     C     3.14992  3.14992  0.00000 -0.29984
      21     H     0.45475  0.45475  0.00000  0.09050
      22     H     0.45330  0.45330  0.00000  0.09340
      23     H     0.44824  0.44824  0.00000  0.10352
      24     H     0.45518  0.45518  0.00000  0.08963
      25     H     0.45468  0.45468  0.00000  0.09064
      26     C     3.03798  3.03798  0.00000 -0.07595
      27     H     0.45439  0.45439  0.00000  0.09122
      28     H     0.44528  0.44528  0.00000  0.10944
      29     H     0.45425  0.45425  0.00000  0.09149

   Total alpha = 44.00000, Total beta = 44.00000, Total charge =  0.00000

*** Psi4 exiting successfully. Buy a developer a beer!
