  ==> Input File <==

--------------------------------------------------------------------------
set {
	reference rhf
	basis 6-31G*
}

set_num_threads( 1 )
memory 2 gb

molecule MOL {
0 1

O	 -2.821601	 1.309235	 -0.001213
C	 -2.668563	 0.129746	 -0.000350
C	 -3.801572	 -0.864014	 -0.000442
O	 -1.481751	 -0.454642	 0.000584
H	 -4.417280	 -0.689587	 -0.874708
H	 -3.443784	 -1.883046	 -0.000565
H	 -4.417179	 -0.689832	 0.873954
C	 -0.334255	 0.388708	 0.000906
C	 0.891947	 -0.504646	 0.000751
H	 -0.365390	 1.025305	 -0.873475
H	 -0.365484	 1.024911	 0.875569
C	 2.191998	 0.301789	 0.000897
H	 0.855148	 -1.151283	 -0.871571
H	 0.855132	 -1.151660	 0.872805
C	 3.319848	 -0.386054	 0.772360
H	 2.513385	 0.474012	 -1.024839
H	 2.010509	 1.284412	 0.432864
C	 4.618706	 0.418826	 0.771339
H	 3.502761	 -1.368001	 0.341782
H	 3.001242	 -0.556842	 1.798222
H	 4.981175	 0.577293	 -0.240352
H	 5.398597	 -0.094095	 1.325342
H	 4.475983	 1.394386	 1.227324

	symmetry c1
}
set optking {
	frozen_dihedral = ("
		13 9 8 10,
		2 4 8 10,
		19 15 12 16,
		1 2 4 8
	")
}

ee = energy('scf')
oeprop('DIPOLE', 'QUADRUPOLE', 'MULLIKEN_CHARGES')
f=open( 'psi4out.xyz', 'w' )
f.write( "23  " )
f.write( str(ee) + "\n" )
f.write( MOL.save_string_xyz() )
f.close()
--------------------------------------------------------------------------

    Molecular point group: c1

    Geometry (in Angstrom), charge = 0, multiplicity = 1:

       Center              X                  Y                   Z               Mass
    ------------   -----------------  -----------------  -----------------  -----------------
           O         -2.794579363300     1.265704750172    -0.173604646146    15.994914619560
           C         -2.641541363300     0.086215750172    -0.172741646146    12.000000000000
           C         -3.774550363300    -0.907544249828    -0.172833646146    12.000000000000
           O         -1.454729363300    -0.498172249828    -0.171807646146    15.994914619560
           H         -4.390258363300    -0.733117249828    -1.047099646146     1.007825032070
           H         -3.416762363300    -1.926576249828    -0.172956646146     1.007825032070
           H         -4.390157363300    -0.733362249828     0.701562353854     1.007825032070
           C         -0.307233363300     0.345177750172    -0.171485646146    12.000000000000
           C          0.918968636700    -0.548176249828    -0.171640646146    12.000000000000
           H         -0.338368363300     0.981774750172    -1.045866646146     1.007825032070
           H         -0.338462363300     0.981380750172     0.703177353854     1.007825032070
           C          2.219019636700     0.258258750172    -0.171494646146    12.000000000000
           H          0.882169636700    -1.194813249828    -1.043962646146     1.007825032070
           H          0.882153636700    -1.195190249828     0.700413353854     1.007825032070
           C          3.346869636700    -0.429584249828     0.599968353854    12.000000000000
           H          2.540406636700     0.430481750172    -1.197230646146     1.007825032070
           H          2.037530636700     1.240881750172     0.260472353854     1.007825032070
           C          4.645727636700     0.375295750172     0.598947353854    12.000000000000
           H          3.529782636700    -1.411531249828     0.169390353854     1.007825032070
           H          3.028263636700    -0.600372249828     1.625830353854     1.007825032070
           H          5.008196636700     0.533762750172    -0.412743646146     1.007825032070
           H          5.425618636700    -0.137625249828     1.152950353854     1.007825032070
           H          4.503004636700     1.350855750172     1.054932353854     1.007825032070

  Charge       = 0
  Multiplicity = 1
  Basis Set: 6-31G*
  Basis Set:

    Orbital Energies (a.u.)
    -----------------------

    Doubly Occupied:

       1A    -20.602863     2A    -20.540510     3A    -11.374055
       4A    -11.281848     5A    -11.232376     6A    -11.223594
       7A    -11.223016     8A    -11.221796     9A    -11.212657
      10A     -1.467938    11A     -1.360717    12A     -1.094386
      13A     -1.042046    14A     -1.003317    15A     -0.930790
      16A     -0.842071    17A     -0.802576    18A     -0.775152
      19A     -0.690946    20A     -0.684991    21A     -0.669536
      22A     -0.643256    23A     -0.608323    24A     -0.587482
      25A     -0.581822    26A     -0.568706    27A     -0.559050
      28A     -0.535627    29A     -0.524039    30A     -0.503537
      31A     -0.493057    32A     -0.478634    33A     -0.468798
      34A     -0.464430    35A     -0.450852    36A     -0.435282

  @DF-RHF Final Energy:  -422.97655656254204

   => Energetics <=

    Nuclear Repulsion Energy =            450.3569281352656049
    One-Electron Energy =               -1468.3067241014266529
    Two-Electron Energy =                 594.9732394036211645
    DFT Exchange-Correlation Energy =       0.0000000000000000
    Empirical Dispersion Energy =           0.0000000000000000
    PCM Polarization Energy =               0.0000000000000000
    EFP Energy =                            0.0000000000000000
    Total Energy =                       -422.9765565625398267

  Mulliken Charges: (a.u.)
   Center  Symbol    Alpha    Beta     Spin     Total
       1     O     4.28392  4.28392  0.00000 -0.56785
       2     C     2.61541  2.61541  0.00000  0.76918
       3     C     3.28776  3.28776  0.00000 -0.57553
       4     O     4.31255  4.31255  0.00000 -0.62509
       5     H     0.39750  0.39750  0.00000  0.20499
       6     H     0.39985  0.39985  0.00000  0.20029
       7     H     0.39753  0.39753  0.00000  0.20494
       8     C     2.99880  2.99880  0.00000  0.00241
       9     C     3.16474  3.16474  0.00000 -0.32947
      10     H     0.41031  0.41031  0.00000  0.17939
      11     H     0.41041  0.41041  0.00000  0.17918
      12     C     3.16157  3.16157  0.00000 -0.32313
      13     H     0.41258  0.41258  0.00000  0.17484
      14     H     0.41318  0.41318  0.00000  0.17365
      15     C     3.15302  3.15302  0.00000 -0.30605
      16     H     0.41814  0.41814  0.00000  0.16371
      17     H     0.42041  0.42041  0.00000  0.15918
      18     C     3.24031  3.24031  0.00000 -0.48062
      19     H     0.42099  0.42099  0.00000  0.15802
      20     H     0.42129  0.42129  0.00000  0.15742
      21     H     0.42098  0.42098  0.00000  0.15804
      22     H     0.41808  0.41808  0.00000  0.16385
      23     H     0.42068  0.42068  0.00000  0.15864

   Total alpha = 36.00000, Total beta = 36.00000, Total charge =  0.00000
