  ==> Input File <==

--------------------------------------------------------------------------
set {
	reference rhf
	basis 6-31G*
}

set_num_threads( 4 )
memory 2 gb

molecule MOL {
0 1

O	 -0.211781	 -1.347273	 -1.026894
C	 0.714843	 -1.278473	 -0.285481
C	 1.245376	 -0.013843	 0.345420
O	 1.421721	 -2.336235	 0.092798
C	 0.455112	 1.231400	 -0.050772
H	 1.246869	 -0.170196	 1.419078
H	 2.289574	 0.077438	 0.057298
C	 -0.998893	 1.219485	 0.433193
H	 0.482531	 1.345121	 -1.130325
H	 0.957290	 2.103070	 0.354729
C	 -1.883438	 0.145884	 -0.207175
H	 -1.431207	 2.195402	 0.224832
H	 -1.019646	 1.105716	 1.516076
C	 -3.347647	 0.245583	 0.225435
H	 -1.822183	 0.231698	 -1.291012
H	 -1.510341	 -0.844814	 0.042401
C	 -4.239992	 -0.825570	 -0.404234
H	 -3.732888	 1.230466	 -0.033079
H	 -3.408585	 0.170602	 1.310038
C	 -5.701275	 -0.716658	 0.029921
H	 -4.179496	 -0.752714	 -1.488058
H	 -3.859041	 -1.810759	 -0.143352
H	 -6.308102	 -1.488908	 -0.432678
H	 -6.122175	 0.245478	 -0.248167
H	 -5.799072	 -0.820114	 1.106957
C	 1.029004	 -3.592003	 -0.430370
H	 0.015324	 -3.825373	 -0.137974
H	 1.714106	 -4.313141	 -0.012517
H	 1.096564	 -3.592492	 -1.508782

	symmetry c1
}
set optking {
	frozen_dihedral = ("
		6 3 5 9
	")
}

ee = optimize('scf')
oeprop('DIPOLE', 'QUADRUPOLE', 'MULLIKEN_CHARGES')
f=open( 'psi4out.xyz', 'w' )
f.write( "29  " )
f.write( str(ee) + "\n" )
f.write( MOL.save_string_xyz() )
f.close()
--------------------------------------------------------------------------

    Molecular point group: c1
  Charge       = 0
  Multiplicity = 1
  Basis Set: 6-31G*
  Basis Set:
  @DF-RHF Final Energy:  -501.00849350554370
    Total Energy =                       -501.0084935055429014
    Molecular point group: c1
  Basis Set: 6-31G*
  Basis Set:
  Basis Set: 6-31G*
  Basis Set:
  @DF-RHF Final Energy:  -501.02703881129889
    Total Energy =                       -501.0270388112985529
  Basis Set: 6-31G*
  Basis Set:
  Basis Set: 6-31G*
  Basis Set:
  @DF-RHF Final Energy:  -501.03386952823587
    Total Energy =                       -501.0338695282357548
  Basis Set: 6-31G*
  Basis Set:
  Basis Set: 6-31G*
  Basis Set:
  @DF-RHF Final Energy:  -501.03583230742879
    Total Energy =                       -501.0358323074287910
  Basis Set: 6-31G*
  Basis Set:
  @DF-RHF Final Energy:  -501.03876795872191
    Total Energy =                       -501.0387679587217917
  @DF-RHF Final Energy:  -501.03976851657353
    Total Energy =                       -501.0397685165733037
  @DF-RHF Final Energy:  -501.04031911477466
    Total Energy =                       -501.0403191147744337
  @DF-RHF Final Energy:  -501.04062361392619
    Total Energy =                       -501.0406236139259590
  @DF-RHF Final Energy:  -501.04083869967178
    Total Energy =                       -501.0408386996718946
  @DF-RHF Final Energy:  -501.04112394066624
    Total Energy =                       -501.0411239406665800
  @DF-RHF Final Energy:  -501.04123754907232
    Total Energy =                       -501.0412375490723207
  Basis Set: 6-31G*
  Basis Set:
  @DF-RHF Final Energy:  -501.04128925684120
    Total Energy =                       -501.0412892568411962
  Basis Set: 6-31G*
  Basis Set:
  Basis Set: 6-31G*
  Basis Set:
  @DF-RHF Final Energy:  -501.04129491764218
    Total Energy =                       -501.0412949176418351
  Basis Set: 6-31G*
  Basis Set:
  Basis Set: 6-31G*
  Basis Set:
  @DF-RHF Final Energy:  -501.04129756891030
    Total Energy =                       -501.0412975689106361
  Basis Set: 6-31G*
  Basis Set:
  Charge       = 0
  Multiplicity = 1
  Basis Set: 6-31G*
  Basis Set:

    Orbital Energies (a.u.)
    -----------------------

    Doubly Occupied:

       1A    -20.606235     2A    -20.541937     3A    -11.371984
       4A    -11.281072     5A    -11.234446     6A    -11.223988
       7A    -11.217063     8A    -11.213006     9A    -11.211687
      10A    -11.210873    11A    -11.206977    12A     -1.469851
      13A     -1.361576    14A     -1.095834    15A     -1.064852
      16A     -1.016535    17A     -0.977914    18A     -0.928882
      19A     -0.862580    20A     -0.799882    21A     -0.787255
      22A     -0.764281    23A     -0.699500    24A     -0.681518
      25A     -0.671525    26A     -0.648961    27A     -0.620447
      28A     -0.609771    29A     -0.590992    30A     -0.578912
      31A     -0.565318    32A     -0.542825    33A     -0.541300
      34A     -0.530873    35A     -0.519205    36A     -0.505371
      37A     -0.497622    38A     -0.476937    39A     -0.467645
      40A     -0.461599    41A     -0.458735    42A     -0.449851
      43A     -0.441309    44A     -0.429786

  @DF-RHF Final Energy:  -501.04129781399843

   => Energetics <=

    Nuclear Repulsion Energy =            643.2394884396262569
    One-Electron Energy =               -1957.6841552849266463
    Two-Electron Energy =                 813.4033690313020770
    DFT Exchange-Correlation Energy =       0.0000000000000000
    Empirical Dispersion Energy =           0.0000000000000000
    PCM Polarization Energy =               0.0000000000000000
    EFP Energy =                            0.0000000000000000
    Total Energy =                       -501.0412978139983124
    Molecular point group: c1
  Basis Set: 6-31G*
  Basis Set:

  -Total Gradient:
     Atom            X                  Y                   Z
    ------   -----------------  -----------------  -----------------
       1        0.000003688446    -0.000004031530     0.000034323437
       2        0.000000972600    -0.000007720405    -0.000020355463
       3       -0.002865693639    -0.002209514926    -0.000465474364
       4       -0.000016050895    -0.000003873524    -0.000011495171
       5       -0.002617339368    -0.002022068887    -0.000482510100
       6        0.002774670426     0.002137203999     0.000472647115
       7        0.000003599084     0.000002426097    -0.000005131854
       8        0.000013841780     0.000000442583     0.000013225870
       9        0.002707060307     0.002097964200     0.000477849311
      10       -0.000004120176    -0.000003699313     0.000003544142
      11       -0.000007800045     0.000039789549    -0.000047681273
      12       -0.000008484688    -0.000000605912     0.000001343738
      13        0.000004379359     0.000011291273     0.000005712144
      14       -0.000007832197     0.000001709786     0.000013308712
      15        0.000001573972    -0.000009964391     0.000014193772
      16        0.000014136825    -0.000031613271     0.000004362237
      17        0.000000598092     0.000006928657    -0.000000674893
      18        0.000005335886    -0.000002067598    -0.000002973401
      19       -0.000006150000    -0.000001164046    -0.000003819851
      20       -0.000001186980    -0.000007438828     0.000005077442
      21        0.000000871833     0.000002879621     0.000000889112
      22       -0.000002228724     0.000001744008    -0.000002365057
      23       -0.000003748058    -0.000001716763     0.000001181707
      24        0.000003734809    -0.000002681459    -0.000000887372
      25       -0.000000757045     0.000002293378    -0.000000373204
      26        0.000004406431     0.000007809255    -0.000002280625
      27        0.000000010152    -0.000001403211    -0.000001166188
      28        0.000000592900    -0.000001651285     0.000001468667
      29        0.000001918913    -0.000001267055    -0.000001938593

  **** Optimization is complete! (in 15 steps) ****
    Final optimized geometry and variables:
    Molecular point group: c1

    Geometry (in Angstrom), charge = 0, multiplicity = 1:

    O            1.809995954528    -0.538556764795    -1.507660879923
    C            1.991998211352    -0.527622553293    -0.331871947754
    C            2.287965044974     0.716494880322     0.470244652249
    O            2.002977292848    -1.625328683272     0.410335020181
    C            1.416224222261     1.927753370095     0.116985739414
    H            2.265954165059     0.505242167631     1.532246508687
    H            3.321032705118     0.961516884338     0.232384292742
    C           -0.037859095997     1.881816519539     0.601670281792
    H            1.470126630479     2.099399678242    -0.952851740769
    H            1.884806135984     2.793624366016     0.578023524023
    C           -0.917055902025     0.771908467883     0.018388776062
    H           -0.489937524027     2.842827038516     0.365999439563
    H           -0.044125805685     1.806083272746     1.688072975524
    C           -2.385697564394     0.917820875109     0.422844265379
    H           -0.835059450843     0.770830190626    -1.065214810052
    H           -0.560150881008    -0.198963154816     0.354178516911
    C           -3.276623186103    -0.199419036397    -0.123060497826
    H           -2.761287930551     1.878191552534     0.073426259215
    H           -2.461980774988     0.938630898402     1.509050392204
    C           -4.743376550137    -0.043690367034     0.277137857567
    H           -3.198785193660    -0.223756730534    -1.207755658143
    H           -2.906748738087    -1.159662297089     0.230449356097
    H           -5.348923793694    -0.850851784633    -0.123553197803
    H           -5.153366983056     0.891928865609    -0.092710611142
    H           -4.857977833889    -0.049237286525     1.357537015989
    C            1.795026469065    -2.855212503968    -0.261231834396
    H            0.828263738598    -2.864830283735    -0.743364209321
    H            1.841970004966    -3.618205086160     0.500016893010
    H            2.563802361298    -3.017232063321    -1.002887718417

  Mulliken Charges: (a.u.)
   Center  Symbol    Alpha    Beta     Spin     Total
       1     O     4.28942  4.28942  0.00000 -0.57885
       2     C     2.60192  2.60192  0.00000  0.79616
       3     C     3.20836  3.20836  0.00000 -0.41673
       4     O     4.30634  4.30634  0.00000 -0.61268
       5     C     3.16013  3.16013  0.00000 -0.32025
       6     H     0.40065  0.40065  0.00000  0.19870
       7     H     0.39913  0.39913  0.00000  0.20173
       8     C     3.15274  3.15274  0.00000 -0.30548
       9     H     0.40485  0.40485  0.00000  0.19030
      10     H     0.41754  0.41754  0.00000  0.16493
      11     C     3.16107  3.16107  0.00000 -0.32213
      12     H     0.41974  0.41974  0.00000  0.16052
      13     H     0.42372  0.42372  0.00000  0.15255
      14     C     3.15045  3.15045  0.00000 -0.30090
      15     H     0.41177  0.41177  0.00000  0.17645
      16     H     0.42445  0.42445  0.00000  0.15111
      17     C     3.15124  3.15124  0.00000 -0.30248
      18     H     0.42394  0.42394  0.00000  0.15213
      19     H     0.42497  0.42497  0.00000  0.15007
      20     C     3.23928  3.23928  0.00000 -0.47856
      21     H     0.42141  0.42141  0.00000  0.15719
      22     H     0.42413  0.42413  0.00000  0.15174
      23     H     0.41961  0.41961  0.00000  0.16078
      24     H     0.42180  0.42180  0.00000  0.15640
      25     H     0.42233  0.42233  0.00000  0.15535
      26     C     3.09365  3.09365  0.00000 -0.18729
      27     H     0.40838  0.40838  0.00000  0.18323
      28     H     0.40843  0.40843  0.00000  0.18315
      29     H     0.40857  0.40857  0.00000  0.18287

   Total alpha = 44.00000, Total beta = 44.00000, Total charge = -0.00000
