  ==> Input File <==

--------------------------------------------------------------------------
set {
	reference rhf
	basis cc-pvtz
}

set_num_threads( 4 )
memory 2 gb

molecule MOL {
0 1

H	 2.517698	 2.286503	 -1.729224
O	 1.584475	 2.216501	 -1.816514
C	 1.069906	 1.365311	 -0.907580
C	 1.861810	 0.702157	 0.017512
C	 -0.294986	 1.162837	 -0.917360
H	 2.924892	 0.861056	 0.023719
C	 1.288106	 -0.160623	 0.929340
H	 -0.909295	 1.673520	 -1.630572
C	 -0.861704	 0.296439	 0.000000
H	 1.910720	 -0.668174	 1.640372
C	 -0.076488	 -0.368693	 0.926206
C	 -2.330689	 0.069587	 0.000000
H	 -0.525448	 -1.038999	 1.634028
O	 -2.848621	 -0.993976	 0.000000
H	 -2.934306	 0.982410	 0.000000

	symmetry c1
}
set optking {
	frozen_dihedral = ("
		11 9 12 14
	")
}

ee = optimize('scf')
oeprop('DIPOLE', 'QUADRUPOLE', 'MULLIKEN_CHARGES')
f=open( 'psi4out.xyz', 'w' )
f.write( "15  " )
f.write( str(ee) + "\n" )
f.write( MOL.save_string_xyz() )
f.close()
--------------------------------------------------------------------------

    Molecular point group: c1
  Charge       = 0
  Multiplicity = 1
  Basis Set: CC-PVTZ
  Basis Set:
  @DF-RHF Final Energy:  -418.43211278119804
    Total Energy =                       -418.4321127811979295
    Molecular point group: c1
  Basis Set: CC-PVTZ
  Basis Set:
  Basis Set: CC-PVTZ
  Basis Set:
  @DF-RHF Final Energy:  -418.43124362496530
    Total Energy =                       -418.4312436249651910
  Basis Set: CC-PVTZ
  Basis Set:
  Basis Set: CC-PVTZ
  Basis Set:
  @DF-RHF Final Energy:  -418.43239887097928
    Total Energy =                       -418.4323988709797959
  Basis Set: CC-PVTZ
  Basis Set:
  Basis Set: CC-PVTZ
  Basis Set:
  @DF-RHF Final Energy:  -418.43278915177297
    Total Energy =                       -418.4327891517731359
  Basis Set: CC-PVTZ
  Basis Set:
  Basis Set: CC-PVTZ
  Basis Set:
  @DF-RHF Final Energy:  -418.43279278671781
    Total Energy =                       -418.4327927867177550
  Basis Set: CC-PVTZ
  Basis Set:
  Charge       = 0
  Multiplicity = 1
  Basis Set: CC-PVTZ
  Basis Set:

    Orbital Energies (a.u.)
    -----------------------

    Doubly Occupied:

       1A    -20.597863     2A    -20.559725     3A    -11.330520
       4A    -11.313200     5A    -11.254029     6A    -11.249103
       7A    -11.242754     8A    -11.240992     9A    -11.236567
      10A     -1.429473    11A     -1.414605    12A     -1.173298
      13A     -1.053031    14A     -1.027702    15A     -0.903265
      16A     -0.847805    17A     -0.819369    18A     -0.742542
      19A     -0.704080    20A     -0.677523    21A     -0.670396
      22A     -0.637828    23A     -0.616031    24A     -0.609406
      25A     -0.586466    26A     -0.544645    27A     -0.542808
      28A     -0.517753    29A     -0.495122    30A     -0.427249
      31A     -0.358946    32A     -0.329078

  @DF-RHF Final Energy:  -418.43279350635646

   => Energetics <=

    Nuclear Repulsion Energy =            402.9381532034900602
    One-Electron Energy =               -1368.4355455685547440
    Two-Electron Energy =                 547.0645988587083366
    DFT Exchange-Correlation Energy =       0.0000000000000000
    Empirical Dispersion Energy =           0.0000000000000000
    PCM Polarization Energy =               0.0000000000000000
    EFP Energy =                            0.0000000000000000
    Total Energy =                       -418.4327935063563473
    Molecular point group: c1
  Basis Set: CC-PVTZ
  Basis Set:

  -Total Gradient:
     Atom            X                  Y                   Z
    ------   -----------------  -----------------  -----------------
       1        0.000001563871     0.000002100479    -0.000001986579
       2        0.000011276674     0.000003541769     0.000019851873
       3       -0.000115393877    -0.000000437980    -0.000074945702
       4        0.000011224416    -0.000062083726     0.000113186373
       5        0.000045811144     0.000030964281    -0.000021445306
       6       -0.000002644369     0.000008048648     0.000002060487
       7        0.000112186354     0.000034828157    -0.000097226309
       8        0.000007531696     0.000005966583     0.000000212023
       9        0.000707162168    -0.006184584641    -0.007531861594
      10       -0.000005892487     0.000000324354     0.000011849490
      11       -0.000584230886     0.004146477201     0.003216490925
      12       -0.000231536203     0.002202461863     0.010787823331
      13       -0.000001608614     0.000003701116     0.000001007791
      14        0.000002442149    -0.000190799030    -0.006426964044
      15        0.000042107962    -0.000000509072     0.000001947234

  **** Optimization is complete! (in 6 steps) ****
    Final optimized geometry and variables:
    Molecular point group: c1

    Geometry (in Angstrom), charge = 0, multiplicity = 1:

    H            2.582773917135     1.795078007527    -1.512306949288
    O            1.648443665669     1.723451326153    -1.588587698374
    C            1.150177092829     0.866348060624    -0.676605493848
    C            1.946645883930     0.211528346180     0.244512423087
    C           -0.218247782436     0.661926180329    -0.672487272606
    H            3.008044919605     0.380400197513     0.253343181669
    C            1.373623875795    -0.652955424470     1.159265367449
    H           -0.826071014015     1.198015932257    -1.376319811709
    C           -0.774179947339    -0.233084635626     0.219700953184
    H            1.998483307182    -1.146237104678     1.878701596210
    C            0.014623105473    -0.883606225994     1.155049418696
    C           -2.255994097271    -0.414061000438     0.230269711073
    H           -0.432433804317    -1.562695764571     1.853082094100
    O           -2.796316892924    -1.464412365364     0.264776834198
    H           -2.837773655562     0.509799651855     0.151514594431

  Mulliken Charges: (a.u.)
   Center  Symbol    Alpha    Beta     Spin     Total
       1     H     0.38621  0.38621  0.00000  0.22759
       2     O     4.17183  4.17183  0.00000 -0.34365
       3     C     2.83890  2.83890  0.00000  0.32219
       4     C     3.13561  3.13561  0.00000 -0.27123
       5     C     3.13382  3.13382  0.00000 -0.26764
       6     H     0.43207  0.43207  0.00000  0.13587
       7     C     3.05565  3.05565  0.00000 -0.11131
       8     H     0.41925  0.41925  0.00000  0.16150
       9     C     2.93437  2.93437  0.00000  0.13125
      10     H     0.41926  0.41926  0.00000  0.16148
      11     C     3.11496  3.11496  0.00000 -0.22992
      12     C     2.92261  2.92261  0.00000  0.15478
      13     H     0.41505  0.41505  0.00000  0.16989
      14     O     4.16235  4.16235  0.00000 -0.32470
      15     H     0.45805  0.45805  0.00000  0.08390

   Total alpha = 32.00000, Total beta = 32.00000, Total charge = -0.00000
