  ==> Input File <==

--------------------------------------------------------------------------
set {
	reference rhf
	basis cc-pvtz
}

set_num_threads( 4 )
memory 2 gb

molecule MOL {
0 1

H	 -1.835082	 1.385983	 0.000069
C	 -1.300516	 0.441153	 -0.000028
O	 -0.006604	 0.654344	 -0.000106
O	 -1.828920	 -0.612308	 0.000113
C	 0.852093	 -0.482521	 -0.000161
C	 2.136375	 -0.090286	 -0.691155
H	 0.355788	 -1.295029	 -0.511501
H	 1.026033	 -0.788886	 1.021528
H	 1.946639	 0.217731	 -1.711497
H	 2.813740	 -0.935710	 -0.708165
H	 2.620245	 0.726442	 -0.170774

	symmetry c1
}
set optking {
	frozen_dihedral = ("
		7 5 3 2
	")
}

ee = optimize('scf')
oeprop('DIPOLE', 'QUADRUPOLE', 'MULLIKEN_CHARGES')
f=open( 'psi4out.xyz', 'w' )
f.write( "11  " )
f.write( str(ee) + "\n" )
f.write( MOL.save_string_xyz() )
f.close()
--------------------------------------------------------------------------

    Molecular point group: c1
  Charge       = 0
  Multiplicity = 1
  Basis Set: CC-PVTZ
  Basis Set:
  @DF-RHF Final Energy:  -266.93067974016185
    Total Energy =                       -266.9306797401618496
    Molecular point group: c1
  Basis Set: CC-PVTZ
  Basis Set:
  Basis Set: CC-PVTZ
  Basis Set:
  @DF-RHF Final Energy:  -266.93078818089430
    Total Energy =                       -266.9307881808942966
  Basis Set: CC-PVTZ
  Basis Set:
  Basis Set: CC-PVTZ
  Basis Set:
  @DF-RHF Final Energy:  -266.93040970304145
    Total Energy =                       -266.9304097030411640
  Basis Set: CC-PVTZ
  Basis Set:
  Basis Set: CC-PVTZ
  Basis Set:
  @DF-RHF Final Energy:  -266.93085736587841
    Total Energy =                       -266.9308573658783530
  Basis Set: CC-PVTZ
  Basis Set:
  Basis Set: CC-PVTZ
  Basis Set:
  @DF-RHF Final Energy:  -266.93090293625636
    Total Energy =                       -266.9309029362563592
  Basis Set: CC-PVTZ
  Basis Set:
  Charge       = 0
  Multiplicity = 1
  Basis Set: CC-PVTZ
  Basis Set:

    Orbital Energies (a.u.)
    -----------------------

    Doubly Occupied:

       1A    -20.605251     2A    -20.545262     3A    -11.370665
       4A    -11.289431     5A    -11.225298     6A     -1.478225
       7A     -1.377578     8A     -1.053798     9A     -0.905492
      10A     -0.804529    11A     -0.743391    12A     -0.689887
      13A     -0.680241    14A     -0.598630    15A     -0.575632
      16A     -0.558517    17A     -0.526923    18A     -0.509728
      19A     -0.463304    20A     -0.456406

  @DF-RHF Final Energy:  -266.93090371035873

   => Energetics <=

    Nuclear Repulsion Energy =            179.5471296609921410
    One-Electron Energy =                -720.0396957411339827
    Two-Electron Energy =                 273.5616623697830505
    DFT Exchange-Correlation Energy =       0.0000000000000000
    Empirical Dispersion Energy =           0.0000000000000000
    PCM Polarization Energy =               0.0000000000000000
    EFP Energy =                            0.0000000000000000
    Total Energy =                       -266.9309037103587912
    Molecular point group: c1
  Basis Set: CC-PVTZ
  Basis Set:

  -Total Gradient:
     Atom            X                  Y                   Z
    ------   -----------------  -----------------  -----------------
       1        0.000026914533    -0.000022093680    -0.000002794544
       2        0.000037370146    -0.000082851328    -0.001367628155
       3       -0.000106533195     0.000045043613     0.002287209256
       4       -0.000098190104     0.000002824937    -0.000011897135
       5        0.000738946327     0.000599820930    -0.002250062960
       6       -0.000028135272     0.000006955146     0.000010537771
       7       -0.000583055735    -0.000500261906     0.001350718413
       8        0.000035735795    -0.000037981852    -0.000015642878
       9       -0.000007954259     0.000000932866     0.000000349439
      10       -0.000008090951    -0.000003887406     0.000000325010
      11       -0.000007007280    -0.000008501320    -0.000001114218

  **** Optimization is complete! (in 6 steps) ****
    Final optimized geometry and variables:
    Molecular point group: c1

    Geometry (in Angstrom), charge = 0, multiplicity = 1:

    H           -1.790944327881     1.420371307620     0.127048989235
    C           -1.273893396047     0.466035769239     0.144770202322
    O            0.023225480836     0.661731841157     0.132839011009
    O           -1.824384022625    -0.575611225639     0.172103552850
    C            0.889916743852    -0.470103905445     0.114634087420
    C            2.180942539451    -0.064849187741    -0.556511045241
    H            0.401162572835    -1.284353161167    -0.395787577067
    H            1.059920320860    -0.776383550653     1.138670903544
    H            2.004671441336     0.231307847164    -1.582893791735
    H            2.870863616757    -0.900404068180    -0.553938835577
    H            2.643854532832     0.763251730335    -0.035160229708

  Mulliken Charges: (a.u.)
   Center  Symbol    Alpha    Beta     Spin     Total
       1     H     0.44955  0.44955  0.00000  0.10089
       2     C     2.84332  2.84332  0.00000  0.31335
       3     O     4.14605  4.14605  0.00000 -0.29211
       4     O     4.19549  4.19549  0.00000 -0.39098
       5     C     2.97585  2.97585  0.00000  0.04830
       6     C     3.13226  3.13226  0.00000 -0.26452
       7     H     0.44688  0.44688  0.00000  0.10624
       8     H     0.45509  0.45509  0.00000  0.08982
       9     H     0.45087  0.45087  0.00000  0.09827
      10     H     0.45440  0.45440  0.00000  0.09119
      11     H     0.45023  0.45023  0.00000  0.09953

   Total alpha = 20.00000, Total beta = 20.00000, Total charge =  0.00000
