  ==> Input File <==

--------------------------------------------------------------------------
set {
	reference rhf
	basis 6-31G*
}

set_num_threads( 4 )
memory 2 gb

molecule MOL {
0 1

H	 -4.031818	 -0.453427	 -0.000094
C	 -2.967712	 -0.297022	 -0.000064
C	 -2.458620	 0.992929	 0.000032
C	 -2.109895	 -1.385637	 -0.000122
H	 -3.124998	 1.836319	 0.000077
C	 -1.090278	 1.193236	 0.000070
H	 -2.506361	 -2.384847	 -0.000198
C	 -0.739812	 -1.187531	 -0.000085
H	 -0.678594	 2.184290	 0.000146
C	 -0.226438	 0.104061	 0.000012
H	 -0.072310	 -2.027032	 -0.000131
C	 1.239129	 0.373821	 0.000060
O	 1.970282	 -0.730723	 -0.000002
O	 1.714856	 1.465857	 0.000149
C	 3.377318	 -0.566646	 -0.000086
H	 3.695435	 -0.028967	 -0.881278
H	 3.789299	 -1.563704	 0.000198
H	 3.695519	 -0.028330	 0.880756

	symmetry c1
}
set optking {
	frozen_dihedral = ("
		13 12 10 6
	")
}

ee = optimize('scf')
oeprop('DIPOLE', 'QUADRUPOLE', 'MULLIKEN_CHARGES')
f=open( 'psi4out.xyz', 'w' )
f.write( "18  " )
f.write( str(ee) + "\n" )
f.write( MOL.save_string_xyz() )
f.close()
--------------------------------------------------------------------------

    Molecular point group: c1
  Charge       = 0
  Multiplicity = 1
  Basis Set: 6-31G*
  Basis Set:

    Orbital Energies (a.u.)
    -----------------------

    Doubly Occupied:

       1A    -20.607643     2A    -20.544457     3A    -11.377894
       4A    -11.282964     5A    -11.245570     6A    -11.245282
       7A    -11.244139     8A    -11.241722     9A    -11.237478
      10A    -11.236718    11A     -1.472775    12A     -1.363917
      13A     -1.165294    14A     -1.048120    15A     -1.024799
      16A     -0.978115    17A     -0.860200    18A     -0.834336
      19A     -0.777744    20A     -0.739922    21A     -0.683338
      22A     -0.677422    23A     -0.671883    24A     -0.631075
      25A     -0.623944    26A     -0.597771    27A     -0.584644
      28A     -0.561510    29A     -0.529333    30A     -0.516637
      31A     -0.503413    32A     -0.498936    33A     -0.459235
      34A     -0.444418    35A     -0.344871    36A     -0.340977

  @DF-RHF Final Energy:  -457.35066780434005

   => Energetics <=

    Nuclear Repulsion Energy =            493.0137783678636083
    One-Electron Energy =               -1600.3318996203588540
    Two-Electron Energy =                 649.9674534481553110
    DFT Exchange-Correlation Energy =       0.0000000000000000
    Empirical Dispersion Energy =           0.0000000000000000
    PCM Polarization Energy =               0.0000000000000000
    EFP Energy =                            0.0000000000000000
    Total Energy =                       -457.3506678043399916
    Molecular point group: c1
  Basis Set: 6-31G*
  Basis Set:

  -Total Gradient:
     Atom            X                  Y                   Z
    ------   -----------------  -----------------  -----------------
       1       -0.000031765958     0.000004150875    -0.000000027574
       2        0.000001160650     0.000034837069     0.000000001836
       3       -0.000073043179    -0.000012108803     0.000000071568
       4        0.000013901470     0.000050220992     0.000000276939
       5        0.000006822444    -0.000027152253     0.000000007329
       6        0.000037363475    -0.000024376804    -0.000000202465
       7        0.000005389848    -0.000013110591    -0.000000090739
       8       -0.000002478647    -0.000012244776     0.000000049588
       9        0.000017298615     0.000010302482     0.000000045227
      10        0.000067011396     0.000018037074    -0.000001036289
      11        0.000040997489     0.000008348704    -0.000000044908
      12       -0.000078523227     0.000152337256    -0.000000642995
      13       -0.000029374355    -0.000051769190    -0.000000413792
      14       -0.000061132908    -0.000104524108     0.000002008346
      15        0.000078669005    -0.000011560574    -0.000029794543
      16       -0.000020415500    -0.000016000571     0.000007312137
      17        0.000036201043    -0.000017865192    -0.000004118188
      18       -0.000008081663     0.000012478410     0.000026598523

  **** Optimization is complete! (in 1 steps) ****
    Final optimized geometry and variables:
    Molecular point group: c1

    Geometry (in Angstrom), charge = 0, multiplicity = 1:

    H           -4.031817551583    -0.453426598670    -0.000091259528
    C           -2.967711551583    -0.297021598670    -0.000061259528
    C           -2.458619551583     0.992929401330     0.000034740472
    C           -2.109894551583    -1.385636598670    -0.000119259528
    H           -3.124997551583     1.836319401330     0.000079740472
    C           -1.090277551583     1.193236401330     0.000072740472
    H           -2.506360551583    -2.384846598670    -0.000195259528
    C           -0.739811551583    -1.187530598670    -0.000082259528
    H           -0.678593551583     2.184290401330     0.000148740472
    C           -0.226437551583     0.104061401330     0.000014740472
    H           -0.072309551583    -2.027031598670    -0.000128259528
    C            1.239129448417     0.373821401330     0.000062740472
    O            1.970282448417    -0.730722598670     0.000000740472
    O            1.714856448417     1.465857401330     0.000151740472
    C            3.377318448417    -0.566645598670    -0.000083259528
    H            3.695435448417    -0.028966598670    -0.881275259528
    H            3.789299448417    -1.563703598670     0.000200740472
    H            3.695519448417    -0.028329598670     0.880758740472

  Mulliken Charges: (a.u.)
   Center  Symbol    Alpha    Beta     Spin     Total
       1     H     0.39538  0.39538  0.00000  0.20923
       2     C     3.08998  3.08998  0.00000 -0.17997
       3     C     3.10713  3.10713  0.00000 -0.21426
       4     C     3.10718  3.10718  0.00000 -0.21436
       5     H     0.39536  0.39536  0.00000  0.20927
       6     C     3.08640  3.08640  0.00000 -0.17281
       7     H     0.39626  0.39626  0.00000  0.20748
       8     C     3.08715  3.08715  0.00000 -0.17430
       9     H     0.37596  0.37596  0.00000  0.24808
      10     C     3.07712  3.07712  0.00000 -0.15425
      11     H     0.38040  0.38040  0.00000  0.23920
      12     C     2.57966  2.57966  0.00000  0.84068
      13     O     4.31486  4.31486  0.00000 -0.62971
      14     O     4.29181  4.29181  0.00000 -0.58363
      15     C     3.09255  3.09255  0.00000 -0.18509
      16     H     0.40741  0.40741  0.00000  0.18518
      17     H     0.40796  0.40796  0.00000  0.18407
      18     H     0.40740  0.40740  0.00000  0.18519

   Total alpha = 36.00000, Total beta = 36.00000, Total charge = -0.00000
