                              Psi4 1.0.54 Driver

  ==> Input File <==

--------------------------------------------------------------------------
set {
	reference rhf
	basis cc-pvtz
}

set_num_threads( 4 )
memory 2 gb

molecule MOL {
0 1

H	 -2.644180	 -0.653737	 1.272255
C	 -2.092774	 -0.380414	 0.391915
O	 -0.808934	 -0.154049	 0.752536
F	 -2.163230	 -1.351640	 -0.507133
F	 -2.627232	 0.691260	 -0.169301
C	 0.085006	 0.250800	 -0.215074
C	 1.370439	 -0.548013	 -0.012993
Cl	 0.421658	 1.987697	 -0.091007
H	 -0.272219	 0.063284	 -1.212508
F	 1.100747	 -1.737814	 0.460994
F	 2.126414	 0.073364	 0.860911
F	 2.049047	 -0.681823	 -1.119265

	symmetry c1
}
set optking {
	frozen_dihedral = ("
		10 7 6 9
	")
}

ee,wfn = optimize('scf', return_wfn=True)
oeprop( wfn, 'DIPOLE', 'QUADRUPOLE', 'MULLIKEN_CHARGES')
f=open( 'psi4out.xyz', 'w' )
f.write( "12  " )
f.write( str(ee) + "\n" )
f.write( MOL.save_string_xyz() )
f.close()
--------------------------------------------------------------------------

    Molecular point group: c1
  Charge       = 0
  Multiplicity = 1
  Basis Set: CC-PVTZ
  Basis Set:
  @DF-RHF Final Energy: -1146.61405879952235
    Total Energy =                      -1146.6140587995225815
    Molecular point group: c1
  Basis Set: CC-PVTZ
  Basis Set:
  Basis Set: CC-PVTZ
  Basis Set:
  @DF-RHF Final Energy: -1146.61530180347017
    Total Energy =                      -1146.6153018034694924
  Basis Set: CC-PVTZ
  Basis Set:
  Basis Set: CC-PVTZ
  Basis Set:
  @DF-RHF Final Energy: -1146.61608308798759
    Total Energy =                      -1146.6160830879884998
  Basis Set: CC-PVTZ
  Basis Set:
  Basis Set: CC-PVTZ
  Basis Set:
  @DF-RHF Final Energy: -1146.61615061260136
    Total Energy =                      -1146.6161506126013592
  Basis Set: CC-PVTZ
  Basis Set:
  @DF-RHF Final Energy: -1146.61616109676652
    Total Energy =                      -1146.6161610967667457
  @DF-RHF Final Energy: -1146.61616674987886
    Total Energy =                      -1146.6161667498797669
  @DF-RHF Final Energy: -1146.61617096559803
    Total Energy =                      -1146.6161709655987124
  @DF-RHF Final Energy: -1146.61617291286734
    Total Energy =                      -1146.6161729128677962
  @DF-RHF Final Energy: -1146.61617167159852
    Total Energy =                      -1146.6161716715982948
  @DF-RHF Final Energy: -1146.60997946034536
    Total Energy =                      -1146.6099794603451301
  @DF-RHF Final Energy: -1146.61588897375850
    Total Energy =                      -1146.6158889737591835
  Basis Set: CC-PVTZ
  Basis Set:
  @DF-RHF Final Energy: -1146.61615381725255
    Total Energy =                      -1146.6161538172523251
  Basis Set: CC-PVTZ
  Basis Set:
  Basis Set: CC-PVTZ
  Basis Set:
  @DF-RHF Final Energy: -1146.61617161207778
    Total Energy =                      -1146.6161716120780056
  Basis Set: CC-PVTZ
  Basis Set:
  Basis Set: CC-PVTZ
  Basis Set:
  @DF-RHF Final Energy: -1146.61617244349372
    Total Energy =                      -1146.6161724434944063
  Basis Set: CC-PVTZ
  Basis Set:
  Charge       = 0
  Multiplicity = 1
  Basis Set: CC-PVTZ
  Basis Set:

    Orbital Energies (a.u.)
    -----------------------

    Doubly Occupied:

       1A   -104.854675     2A    -26.356766     3A    -26.353474
       4A    -26.350941     5A    -26.344111     6A    -26.343976
       7A    -20.641667     8A    -11.521448     9A    -11.484954
      10A    -11.401880    11A    -10.580241    12A     -8.047015
      13A     -8.045057    14A     -8.044957    15A     -1.768151
      16A     -1.725598    17A     -1.664108    18A     -1.659545
      19A     -1.645624    20A     -1.488876    21A     -1.176001
      22A     -1.050013    23A     -0.992385    24A     -0.924621
      25A     -0.864119    26A     -0.860054    27A     -0.851021
      28A     -0.831345    29A     -0.820214    30A     -0.795131
      31A     -0.735754    32A     -0.732763    33A     -0.712272
      34A     -0.708736    35A     -0.684359    36A     -0.682045
      37A     -0.665597    38A     -0.663405    39A     -0.650241
      40A     -0.636659    41A     -0.599339    42A     -0.580173
      43A     -0.523767    44A     -0.477515    45A     -0.467866

  @DF-RHF Final Energy: -1146.61617283861688

   => Energetics <=

    Nuclear Repulsion Energy =            736.9308428288200048
    One-Electron Energy =               -3057.0771052632167084
    Two-Electron Energy =                1173.5300895957796001
    DFT Exchange-Correlation Energy =       0.0000000000000000
    Empirical Dispersion Energy =           0.0000000000000000
    PCM Polarization Energy =               0.0000000000000000
    EFP Energy =                            0.0000000000000000
    Total Energy =                      -1146.6161728386171035
    Molecular point group: c1
  Basis Set: CC-PVTZ
  Basis Set:

  -Total Gradient:
     Atom            X                  Y                   Z
    ------   -----------------  -----------------  -----------------
       1       -0.000014049655    -0.000000720127     0.000049852931
       2        0.000054764843    -0.000015505148    -0.000042064682
       3        0.000008302968    -0.000065736743     0.000030446726
       4       -0.000016095392    -0.000076991213    -0.000037213880
       5       -0.000038087951     0.000091213497    -0.000015882579
       6       -0.004685767038    -0.006396631286     0.003655514774
       7        0.000631437705    -0.000694396281    -0.007656423074
       8       -0.000039463212     0.000005368105     0.000029596738
       9        0.003964885012     0.005710514532    -0.001732736893
      10        0.000050136763     0.001412211160     0.005756646447
      11        0.000130437017     0.000069834004     0.000027893805
      12       -0.000046501054    -0.000039160424    -0.000065630306

  **** Optimization is complete! (in 15 steps) ****
    Final optimized geometry and variables:
    Molecular point group: c1

    Geometry (in Angstrom), charge = 0, multiplicity = 1:

    H           -2.737406493034    -0.662756226736     1.099098623927
    C           -2.120492151273    -0.388460229937     0.263661670979
    O           -0.876749268765    -0.126502750630     0.726111029256
    F           -2.092975681666    -1.372581262921    -0.623666143212
    F           -2.629485809582     0.663405043066    -0.356301345308
    C            0.080627475919     0.277786043849    -0.171924807348
    C            1.361998817763    -0.552246634301     0.030534535268
    CL           0.441554570261     2.008577070095     0.028074078322
    H           -0.211157443162     0.182417835295    -1.202356697565
    F            1.053222623792    -1.777154429952     0.373545738728
    F            2.141036059461    -0.073655130207     0.963351306851
    F            2.038187762969    -0.586335906337    -1.091675144735

  Mulliken Charges: (a.u.)
   Center  Symbol    Alpha    Beta     Spin     Total
       1     H     0.45166  0.45166  0.00000  0.09669
       2     C     2.73836  2.73836  0.00000  0.52329
       3     O     4.15281  4.15281  0.00000 -0.30563
       4     F     4.61785  4.61785  0.00000 -0.23570
       5     F     4.61533  4.61533  0.00000 -0.23066
       6     C     2.94682  2.94682  0.00000  0.10636
       7     C     2.66594  2.66594  0.00000  0.66812
       8    CL     8.57412  8.57412  0.00000 -0.14824
       9     H     0.43233  0.43233  0.00000  0.13533
      10     F     4.60117  4.60117  0.00000 -0.20235
      11     F     4.59891  4.59891  0.00000 -0.19783
      12     F     4.60470  4.60470  0.00000 -0.20940

   Total alpha = 45.00000, Total beta = 45.00000, Total charge = -0.00000

*** Psi4 exiting successfully. Buy a developer a beer!
