  ==> Input File <==

--------------------------------------------------------------------------
set {
	reference rhf
	basis 6-31G*
}

set_num_threads( 1 )
memory 2 gb

molecule MOL {
0 1

O	 0.625848	 1.349995	 -0.000749
C	 0.486307	 0.169203	 0.000779
C	 1.608116	 -0.841643	 0.000302
O	 -0.698257	 -0.426125	 0.001050
C	 2.990107	 -0.200498	 -0.000684
H	 1.468623	 -1.481519	 -0.865924
H	 1.469683	 -1.481289	 0.866878
H	 3.129736	 0.423364	 -0.875135
H	 3.757882	 -0.966877	 -0.001197
H	 3.130964	 0.423383	 0.873533
C	 -0.727539	 -1.832731	 0.220143
C	 -2.176773	 -2.268757	 0.176410
H	 -0.273488	 -2.049923	 1.177353
H	 -0.139787	 -2.321108	 -0.545119
H	 -2.752964	 -1.766722	 0.945254
H	 -2.245523	 -3.339394	 0.339689
H	 -2.618618	 -2.039489	 -0.786640

	symmetry c1
}
set optking {
	frozen_dihedral = ("
		2 4 11 13,
		4 2 3 6
	")
}

ee = energy('scf')
oeprop('DIPOLE', 'QUADRUPOLE', 'MULLIKEN_CHARGES')
f=open( 'psi4out.xyz', 'w' )
f.write( "17  " )
f.write( str(ee) + "\n" )
f.write( MOL.save_string_xyz() )
f.close()
--------------------------------------------------------------------------

    Molecular point group: c1

    Geometry (in Angstrom), charge = 0, multiplicity = 1:

       Center              X                  Y                   Z               Mass
    ------------   -----------------  -----------------  -----------------  -----------------
           O          0.332225366561     1.934210031990    -0.058609778275    15.994914619560
           C          0.192684366561     0.753418031990    -0.057081778275    12.000000000000
           C          1.314493366561    -0.257427968010    -0.057558778275    12.000000000000
           O         -0.991879633439     0.158090031990    -0.056810778275    15.994914619560
           C          2.696484366561     0.383717031990    -0.058544778275    12.000000000000
           H          1.175000366561    -0.897303968010    -0.923784778275     1.007825032070
           H          1.176060366561    -0.897073968010     0.809017221725     1.007825032070
           H          2.836113366561     1.007579031990    -0.932995778275     1.007825032070
           H          3.464259366561    -0.382661968010    -0.059057778275     1.007825032070
           H          2.837341366561     1.007598031990     0.815672221725     1.007825032070
           C         -1.021161633439    -1.248515968010     0.162282221725    12.000000000000
           C         -2.470395633439    -1.684541968010     0.118549221725    12.000000000000
           H         -0.567110633439    -1.465707968010     1.119492221725     1.007825032070
           H         -0.433409633439    -1.736892968010    -0.602979778275     1.007825032070
           H         -3.046586633439    -1.182506968010     0.887393221725     1.007825032070
           H         -2.539145633439    -2.755178968010     0.281828221725     1.007825032070
           H         -2.912240633439    -1.455273968010    -0.844500778275     1.007825032070

  Charge       = 0
  Multiplicity = 1
  Basis Set: 6-31G*
  Basis Set:

    Orbital Energies (a.u.)
    -----------------------

    Doubly Occupied:

       1A    -20.605068     2A    -20.541911     3A    -11.373422
       4A    -11.301206     5A    -11.243509     6A    -11.229999
       7A    -11.219017     8A     -1.466835     9A     -1.367771
      10A     -1.064867    11A     -1.051455    12A     -0.907480
      13A     -0.886831    14A     -0.767316    15A     -0.709205
      16A     -0.707242    17A     -0.657835    18A     -0.629362
      19A     -0.593443    20A     -0.578473    21A     -0.560935
      22A     -0.544863    23A     -0.527747    24A     -0.519104
      25A     -0.509126    26A     -0.504030    27A     -0.445733
      28A     -0.428428

  @DF-RHF Final Energy:  -344.88474123878211

   => Energetics <=

    Nuclear Repulsion Energy =            318.9100873148502160
    One-Electron Energy =               -1101.7052142036384339
    Two-Electron Energy =                 437.9103856500058214
    DFT Exchange-Correlation Energy =       0.0000000000000000
    Empirical Dispersion Energy =           0.0000000000000000
    PCM Polarization Energy =               0.0000000000000000
    EFP Energy =                            0.0000000000000000
    Total Energy =                       -344.8847412387823965

  Mulliken Charges: (a.u.)
   Center  Symbol    Alpha    Beta     Spin     Total
       1     O     4.27449  4.27449  0.00000 -0.54898
       2     C     2.59060  2.59060  0.00000  0.81879
       3     C     3.24249  3.24249  0.00000 -0.48498
       4     O     4.30458  4.30458  0.00000 -0.60916
       5     C     3.23268  3.23268  0.00000 -0.46537
       6     H     0.40030  0.40030  0.00000  0.19940
       7     H     0.40303  0.40303  0.00000  0.19394
       8     H     0.40805  0.40805  0.00000  0.18390
       9     H     0.41974  0.41974  0.00000  0.16051
      10     H     0.40856  0.40856  0.00000  0.18289
      11     C     3.01246  3.01246  0.00000 -0.02491
      12     C     3.24232  3.24232  0.00000 -0.48463
      13     H     0.41376  0.41376  0.00000  0.17249
      14     H     0.41569  0.41569  0.00000  0.16862
      15     H     0.40649  0.40649  0.00000  0.18702
      16     H     0.41736  0.41736  0.00000  0.16529
      17     H     0.40741  0.40741  0.00000  0.18518

   Total alpha = 28.00000, Total beta = 28.00000, Total charge = -0.00000
