  ==> Input File <==

--------------------------------------------------------------------------
set {
	reference rhf
	basis cc-pvtz
}

set_num_threads( 4 )
memory 2 gb

molecule MOL {
0 1

H	 2.315846	 -0.385405	 0.138116
O	 1.465484	 -0.261690	 0.516566
C	 0.700177	 0.619554	 -0.266242
C	 -0.713111	 0.588314	 0.266177
H	 0.702768	 0.308579	 -1.306536
H	 1.090698	 1.632051	 -0.205243
O	 -1.421673	 -0.521378	 -0.196983
H	 -1.244794	 1.469161	 -0.069059
H	 -0.685100	 0.604721	 1.352683
H	 -0.933408	 -1.297830	 0.014544

	symmetry c1
}
set optking {
	frozen_dihedral = ("
		5 3 4 7
	")
}

ee = optimize('scf')
oeprop('DIPOLE', 'QUADRUPOLE', 'MULLIKEN_CHARGES')
f=open( 'psi4out.xyz', 'w' )
f.write( "10  " )
f.write( str(ee) + "\n" )
f.write( MOL.save_string_xyz() )
f.close()
--------------------------------------------------------------------------

    Molecular point group: c1
  Charge       = 0
  Multiplicity = 1
  Basis Set: CC-PVTZ
  Basis Set:
  @DF-RHF Final Energy:  -229.02676869309531
    Total Energy =                       -229.0267686930952777
    Molecular point group: c1
  Basis Set: CC-PVTZ
  Basis Set:
  Basis Set: CC-PVTZ
  Basis Set:
  @DF-RHF Final Energy:  -229.02714851693486
    Total Energy =                       -229.0271485169350001
  Basis Set: CC-PVTZ
  Basis Set:
  Basis Set: CC-PVTZ
  Basis Set:
  @DF-RHF Final Energy:  -229.02722698246228
    Total Energy =                       -229.0272269824623663
  Basis Set: CC-PVTZ
  Basis Set:
  Basis Set: CC-PVTZ
  Basis Set:
  @DF-RHF Final Energy:  -229.02722807400409
    Total Energy =                       -229.0272280740041424
  Basis Set: CC-PVTZ
  Basis Set:
  Charge       = 0
  Multiplicity = 1
  Basis Set: CC-PVTZ
  Basis Set:

    Orbital Energies (a.u.)
    -----------------------

    Doubly Occupied:

       1A    -20.556635     2A    -20.545919     3A    -11.271874
       4A    -11.266959     5A     -1.380495     6A     -1.357937
       7A     -1.002712     8A     -0.844873     9A     -0.728436
      10A     -0.680784    11A     -0.649784    12A     -0.608818
      13A     -0.575765    14A     -0.529377    15A     -0.493369
      16A     -0.456808    17A     -0.437208

  @DF-RHF Final Energy:  -229.02722814692046

   => Energetics <=

    Nuclear Repulsion Energy =            133.5842417026813393
    One-Electron Energy =                -578.4474363370522951
    Two-Electron Energy =                 215.8359664874504062
    DFT Exchange-Correlation Energy =       0.0000000000000000
    Empirical Dispersion Energy =           0.0000000000000000
    PCM Polarization Energy =               0.0000000000000000
    EFP Energy =                            0.0000000000000000
    Total Energy =                       -229.0272281469205780
    Molecular point group: c1
  Basis Set: CC-PVTZ
  Basis Set:

  -Total Gradient:
     Atom            X                  Y                   Z
    ------   -----------------  -----------------  -----------------
       1       -0.000001048134     0.000005321270    -0.000002797739
       2       -0.000018743470     0.000014758344    -0.000023689531
       3       -0.001240221622     0.006573799643    -0.002735843287
       4        0.001772664677    -0.003926589822     0.004464149842
       5        0.000698886174    -0.004756609471     0.001386316830
       6        0.000001509634     0.000011079510    -0.000025617942
       7       -0.001226361310     0.002076872622    -0.003096970328
       8        0.000017115720     0.000017419302     0.000034539372
       9       -0.000000888670    -0.000030973329     0.000002336023
      10       -0.000002913002     0.000014921930    -0.000002423241

  **** Optimization is complete! (in 5 steps) ****
    Final optimized geometry and variables:
    Molecular point group: c1

    Geometry (in Angstrom), charge = 0, multiplicity = 1:

    H            2.290148862059    -0.445762331110     0.046116734111
    O            1.436468382903    -0.342472058098     0.423796134890
    C            0.673992246810     0.572680932508    -0.328107905357
    C           -0.746166893397     0.515529295244     0.187668338896
    H            0.678673157866     0.272822037832    -1.370914164242
    H            1.072144421079     1.578434841414    -0.231135274746
    O           -1.444423390403    -0.596714011827    -0.292293455788
    H           -1.289256731449     1.384797361710    -0.159867494377
    H           -0.731686291412     0.539014514174     1.272957289740
    H           -1.034400524089    -1.380874697463     0.027989821275

  Mulliken Charges: (a.u.)
   Center  Symbol    Alpha    Beta     Spin     Total
       1     H     0.39192  0.39192  0.00000  0.21616
       2     O     4.20627  4.20627  0.00000 -0.41254
       3     C     2.97689  2.97689  0.00000  0.04622
       4     C     2.96469  2.96469  0.00000  0.07061
       5     H     0.46739  0.46739  0.00000  0.06521
       6     H     0.47139  0.47139  0.00000  0.05722
       7     O     4.20782  4.20782  0.00000 -0.41564
       8     H     0.45879  0.45879  0.00000  0.08241
       9     H     0.46731  0.46731  0.00000  0.06539
      10     H     0.38752  0.38752  0.00000  0.22496

   Total alpha = 17.00000, Total beta = 17.00000, Total charge = -0.00000
