                              Psi4 1.0.54 Driver

  ==> Input File <==

--------------------------------------------------------------------------
set {
	reference rhf
	basis cc-pvtz
}

set_num_threads( 4 )
memory 2 gb

molecule MOL {
0 1

O	 -2.071633	 -1.227563	 -0.223463
C	 -1.652164	 -0.152425	 0.058082
C	 -0.327811	 0.006324	 0.778296
C	 -2.402515	 1.108629	 -0.298924
C	 -0.540829	 0.264217	 2.274804
H	 0.282914	 -0.879869	 0.641172
H	 0.187928	 0.847972	 0.333909
C	 0.770279	 0.447937	 3.033404
H	 -1.095661	 -0.560504	 2.714908
H	 -1.157105	 1.149225	 2.390264
C	 0.562921	 0.717184	 4.519900
H	 1.385855	 -0.438724	 2.909215
H	 1.325474	 1.270045	 2.591323
H	 0.040213	 -0.104558	 4.997970
H	 -0.023084	 1.616380	 4.676145
H	 1.510521	 0.846963	 5.029423
H	 -3.240910	 0.874416	 -0.936711
H	 -1.747554	 1.818823	 -0.790984
H	 -2.760419	 1.579708	 0.610998

	symmetry c1
}
set optking {
	frozen_dihedral = ("
		5 3 2 4
	")
}

ee,wfn = optimize('scf', return_wfn=True)
oeprop( wfn, 'DIPOLE', 'QUADRUPOLE', 'MULLIKEN_CHARGES')
f=open( 'psi4out.xyz', 'w' )
f.write( "19  " )
f.write( str(ee) + "\n" )
f.write( MOL.save_string_xyz() )
f.close()
--------------------------------------------------------------------------

    Molecular point group: c1
  Charge       = 0
  Multiplicity = 1
  Basis Set: CC-PVTZ
  Basis Set:
  @DF-RHF Final Energy:  -309.17626538665803
    Total Energy =                       -309.1762653866580308
    Molecular point group: c1
  Basis Set: CC-PVTZ
  Basis Set:
  Basis Set: CC-PVTZ
  Basis Set:
  @DF-RHF Final Energy:  -309.17549048268961
    Total Energy =                       -309.1754904826896109
  Basis Set: CC-PVTZ
  Basis Set:
  Basis Set: CC-PVTZ
  Basis Set:
  @DF-RHF Final Energy:  -309.17631335433941
    Total Energy =                       -309.1763133543392996
  Basis Set: CC-PVTZ
  Basis Set:
  Basis Set: CC-PVTZ
  Basis Set:
  @DF-RHF Final Energy:  -309.17699529463829
    Total Energy =                       -309.1769952946384592
  Basis Set: CC-PVTZ
  Basis Set:
  @DF-RHF Final Energy:  -309.17703448210119
    Total Energy =                       -309.1770344821014191
  @DF-RHF Final Energy:  -309.17707425171557
    Total Energy =                       -309.1770742517155099
  Basis Set: CC-PVTZ
  Basis Set:
  @DF-RHF Final Energy:  -309.17710558875274
    Total Energy =                       -309.1771055887530224
  Basis Set: CC-PVTZ
  Basis Set:
  Basis Set: CC-PVTZ
  Basis Set:
  @DF-RHF Final Energy:  -309.17712746212328
    Total Energy =                       -309.1771274621233374
  Basis Set: CC-PVTZ
  Basis Set:
  Basis Set: CC-PVTZ
  Basis Set:
  @DF-RHF Final Energy:  -309.17713640713953
    Total Energy =                       -309.1771364071395283
  Basis Set: CC-PVTZ
  Basis Set:
  Charge       = 0
  Multiplicity = 1
  Basis Set: CC-PVTZ
  Basis Set:

    Orbital Energies (a.u.)
    -----------------------

    Doubly Occupied:

       1A    -20.537311     2A    -11.319342     3A    -11.230294
       4A    -11.228160     5A    -11.226451     6A    -11.224074
       7A    -11.214194     8A     -1.397032     9A     -1.094277
      10A     -1.030443    11A     -0.984048    12A     -0.892665
      13A     -0.808838    14A     -0.734609    15A     -0.665568
      16A     -0.648333    17A     -0.626339    18A     -0.615483
      19A     -0.582525    20A     -0.575938    21A     -0.554248
      22A     -0.537065    23A     -0.511146    24A     -0.504712
      25A     -0.484699    26A     -0.477436    27A     -0.472333
      28A     -0.399474

  @DF-RHF Final Energy:  -309.17713880275045

   => Energetics <=

    Nuclear Repulsion Energy =            301.7453761820239038
    One-Electron Energy =               -1016.6909584771265145
    Two-Electron Energy =                 405.7684434923522758
    DFT Exchange-Correlation Energy =       0.0000000000000000
    Empirical Dispersion Energy =           0.0000000000000000
    PCM Polarization Energy =               0.0000000000000000
    EFP Energy =                            0.0000000000000000
    Total Energy =                       -309.1771388027503917
    Molecular point group: c1
  Basis Set: CC-PVTZ
  Basis Set:

  -Total Gradient:
     Atom            X                  Y                   Z
    ------   -----------------  -----------------  -----------------
       1        0.000030547191    -0.000005101087     0.000022072793
       2        0.000451531696     0.000269948446    -0.000978485037
       3       -0.000122538565    -0.000949964775     0.000485328520
       4       -0.000357526887    -0.000035370425     0.000563552473
       5       -0.000031619353     0.000678641535    -0.000130849806
       6        0.000015966457    -0.000008149217    -0.000016338858
       7       -0.000004575144     0.000010069647     0.000026567935
       8        0.000014217676    -0.000012128877    -0.000005719912
       9        0.000000490150     0.000004171075    -0.000010862095
      10       -0.000001044859     0.000006469782     0.000002157543
      11       -0.000000824112    -0.000005114393    -0.000000179097
      12        0.000006606368     0.000005687486     0.000000927472
      13       -0.000003534050    -0.000002084611    -0.000000784988
      14       -0.000001573487     0.000003367333     0.000000703247
      15       -0.000000453162    -0.000001607807     0.000000577754
      16       -0.000002897539     0.000000551279    -0.000004922394
      17        0.000027874977     0.000020775892     0.000017661542
      18       -0.000020035982    -0.000001560433     0.000041613955
      19       -0.000000611374     0.000021399151    -0.000013021049

  **** Optimization is complete! (in 10 steps) ****
    Final optimized geometry and variables:
    Molecular point group: c1

    Geometry (in Angstrom), charge = 0, multiplicity = 1:

    O           -1.221371220103    -1.422959648899    -1.677308891186
    C           -0.823363262446    -0.334847251193    -1.414453697274
    C            0.481919616105    -0.135465019354    -0.670813903352
    C           -1.602383411310     0.901400107288    -1.801488083389
    C            0.262795725861     0.134015680731     0.822832287379
    H            1.069026522694    -1.034681817296    -0.800574745657
    H            1.026780149544     0.694641674966    -1.110943184369
    C            1.574633829277     0.286089239100     1.587855695394
    H           -0.310533634438    -0.684150364912     1.247646935975
    H           -0.332198252211     1.032537632742     0.955867699875
    C            1.367411020035     0.544785900611     3.076190694025
    H            2.170398837645    -0.612230034139     1.456651761181
    H            2.149788742065     1.100435109816     1.155973500090
    H            0.822861276330    -0.269176287536     3.542442543454
    H            0.803084324504     1.456610162067     3.241022370656
    H            2.315735744531     0.645794910499     3.590751013071
    H           -2.572187946493     0.619765773097    -2.181637914646
    H           -1.057358845419     1.439575159635    -2.570406878079
    H           -1.716021249426     1.572601608296    -0.959074153281

  Mulliken Charges: (a.u.)
   Center  Symbol    Alpha    Beta     Spin     Total
       1     O     4.17554  4.17554  0.00000 -0.35108
       2     C     2.85861  2.85861  0.00000  0.28277
       3     C     3.09521  3.09521  0.00000 -0.19041
       4     C     3.15590  3.15590  0.00000 -0.31180
       5     C     3.10107  3.10107  0.00000 -0.20214
       6     H     0.43862  0.43862  0.00000  0.12276
       7     H     0.45048  0.45048  0.00000  0.09904
       8     C     3.08545  3.08545  0.00000 -0.17089
       9     H     0.44339  0.44339  0.00000  0.11322
      10     H     0.45169  0.45169  0.00000  0.09662
      11     C     3.14924  3.14924  0.00000 -0.29848
      12     H     0.45045  0.45045  0.00000  0.09910
      13     H     0.45381  0.45381  0.00000  0.09239
      14     H     0.45294  0.45294  0.00000  0.09412
      15     H     0.45526  0.45526  0.00000  0.08947
      16     H     0.44699  0.44699  0.00000  0.10601
      17     H     0.43529  0.43529  0.00000  0.12941
      18     H     0.44913  0.44913  0.00000  0.10173
      19     H     0.45093  0.45093  0.00000  0.09814

   Total alpha = 28.00000, Total beta = 28.00000, Total charge = -0.00000

*** Psi4 exiting successfully. Buy a developer a beer!
