                              Psi4 1.0.54 Driver

  ==> Input File <==

--------------------------------------------------------------------------
set {
	reference rhf
	basis cc-pvtz
}

set_num_threads( 4 )
memory 2 gb

molecule MOL {
0 1

H	 -3.579572	 -0.267755	 0.705254
C	 -3.379437	 -0.048361	 -0.352431
C	 -2.519828	 1.162112	 -0.596805
O	 -3.838043	 -0.737334	 -1.196412
C	 -1.216901	 1.136108	 0.207794
H	 -2.331069	 1.241652	 -1.659527
H	 -3.108213	 2.026249	 -0.296184
C	 -0.247837	 0.040196	 -0.230469
H	 -0.735036	 2.102979	 0.111329
H	 -1.448280	 1.018397	 1.263636
C	 1.181757	 0.280428	 0.247371
H	 -0.259600	 -0.030819	 -1.314870
H	 -0.591284	 -0.923375	 0.136958
C	 2.151032	 -0.811012	 -0.202643
H	 1.515939	 1.247397	 -0.115449
H	 1.191514	 0.341223	 1.333422
C	 3.580021	 -0.656538	 0.320835
H	 2.170545	 -0.847575	 -1.289412
H	 1.766632	 -1.772905	 0.124928
C	 4.327657	 0.562694	 -0.213579
H	 4.138806	 -1.549270	 0.057813
H	 3.561991	 -0.620783	 1.406976
H	 4.355973	 0.557257	 -1.298551
H	 3.867136	 1.491650	 0.100501
H	 5.351524	 0.571613	 0.142204

	symmetry c1
}
set optking {
	frozen_dihedral = ("
		3 5 8 12
	")
}

ee,wfn = optimize('scf', return_wfn=True)
oeprop( wfn, 'DIPOLE', 'QUADRUPOLE', 'MULLIKEN_CHARGES')
f=open( 'psi4out.xyz', 'w' )
f.write( "25  " )
f.write( str(ee) + "\n" )
f.write( MOL.save_string_xyz() )
f.close()
--------------------------------------------------------------------------

    Molecular point group: c1
  Charge       = 0
  Multiplicity = 1
  Basis Set: CC-PVTZ
  Basis Set:
  @DF-RHF Final Energy:  -387.25933380681903
    Total Energy =                       -387.2593338068196545
    Molecular point group: c1
  Basis Set: CC-PVTZ
  Basis Set:
  Basis Set: CC-PVTZ
  Basis Set:
  @DF-RHF Final Energy:  -387.25923687568553
    Total Energy =                       -387.2592368756859287
  Basis Set: CC-PVTZ
  Basis Set:
  Basis Set: CC-PVTZ
  Basis Set:
  @DF-RHF Final Energy:  -387.25942927843147
    Total Energy =                       -387.2594292784314121
  Basis Set: CC-PVTZ
  Basis Set:
  Basis Set: CC-PVTZ
  Basis Set:
  @DF-RHF Final Energy:  -387.25872012272782
    Total Energy =                       -387.2587201227280502
  Basis Set: CC-PVTZ
  Basis Set:
  @DF-RHF Final Energy:  -387.25947947687757
    Total Energy =                       -387.2594794768775728
  Basis Set: CC-PVTZ
  Basis Set:
  @DF-RHF Final Energy:  -387.25947865605644
    Total Energy =                       -387.2594786560565581
  Basis Set: CC-PVTZ
  Basis Set:
  Basis Set: CC-PVTZ
  Basis Set:
  @DF-RHF Final Energy:  -387.25948543088964
    Total Energy =                       -387.2594854308900949
  Basis Set: CC-PVTZ
  Basis Set:
  Basis Set: CC-PVTZ
  Basis Set:
  @DF-RHF Final Energy:  -387.25948712669435
    Total Energy =                       -387.2594871266945802
  Basis Set: CC-PVTZ
  Basis Set:
  Charge       = 0
  Multiplicity = 1
  Basis Set: CC-PVTZ
  Basis Set:

    Orbital Energies (a.u.)
    -----------------------

    Doubly Occupied:

       1A    -20.551207     2A    -11.320722     3A    -11.233870
       4A    -11.232817     5A    -11.221451     6A    -11.217866
       7A    -11.216225     8A    -11.214962     9A    -11.208729
      10A     -1.406123    11A     -1.104947    12A     -1.070893
      13A     -1.014512    14A     -0.943299    15A     -0.876060
      16A     -0.821945    17A     -0.787594    18A     -0.782292
      19A     -0.668420    20A     -0.661956    21A     -0.635472
      22A     -0.627257    23A     -0.602271    24A     -0.595296
      25A     -0.578561    26A     -0.548118    27A     -0.537904
      28A     -0.528008    29A     -0.508912    30A     -0.497680
      31A     -0.492358    32A     -0.478743    33A     -0.464796
      34A     -0.459672    35A     -0.442774    36A     -0.411338

  @DF-RHF Final Energy:  -387.25948715946254

   => Energetics <=

    Nuclear Repulsion Energy =            439.6317442345349491
    One-Electron Energy =               -1395.8523563007720441
    Two-Electron Energy =                 568.9611249067743302
    DFT Exchange-Correlation Energy =       0.0000000000000000
    Empirical Dispersion Energy =           0.0000000000000000
    PCM Polarization Energy =               0.0000000000000000
    EFP Energy =                            0.0000000000000000
    Total Energy =                       -387.2594871594627648
    Molecular point group: c1
  Basis Set: CC-PVTZ
  Basis Set:

  -Total Gradient:
     Atom            X                  Y                   Z
    ------   -----------------  -----------------  -----------------
       1       -0.000005489455    -0.000011811713    -0.000000648205
       2        0.000001702575     0.000003285320    -0.000007911984
       3        0.000893892143     0.001404104758    -0.001415266701
       4       -0.000008035222    -0.000001595129     0.000009644403
       5       -0.001736353185    -0.002445346528     0.002045115862
       6       -0.000001844001     0.000000816731    -0.000005878969
       7       -0.000010373427     0.000007247009    -0.000002455770
       8        0.003028323776     0.003093571409    -0.000798612570
       9       -0.000005547744    -0.000002220355    -0.000003589455
      10        0.000003980113     0.000004690658     0.000002358441
      11       -0.000003789442    -0.000012261838     0.000015390738
      12       -0.002162240457    -0.002047088531     0.000169373878
      13        0.000001867722     0.000004882254    -0.000003393054
      14        0.000005623487     0.000003934435    -0.000004577293
      15       -0.000002110084    -0.000003433438    -0.000000786654
      16       -0.000001613380     0.000002935922     0.000005930332
      17        0.000000155331    -0.000000967328    -0.000002077496
      18        0.000000366174    -0.000002444102    -0.000001646842
      19        0.000003438878     0.000001526212     0.000001472211
      20        0.000001038019     0.000001135840    -0.000001157732
      21       -0.000000904842    -0.000002185624     0.000001148964
      22       -0.000002415622     0.000000321966    -0.000000858935
      23        0.000000753195     0.000001258932    -0.000001585246
      24       -0.000000011924    -0.000000028458     0.000000487763
      25       -0.000000412633    -0.000000328403    -0.000000475686

  **** Optimization is complete! (in 9 steps) ****
    Final optimized geometry and variables:
    Molecular point group: c1

    Geometry (in Angstrom), charge = 0, multiplicity = 1:

    H           -3.560030450062    -0.449458559907     0.922730897100
    C           -3.368953518382    -0.186276921706    -0.126620511302
    C           -2.556323358370     1.063674650660    -0.329029531739
    O           -3.799410891251    -0.864134945832    -0.994225933854
    C           -1.238795991938     1.048228230819     0.452168804467
    H           -2.384763474827     1.195517779409    -1.389182639772
    H           -3.167870343232     1.893383062236     0.018542339532
    C           -0.258441944657    -0.028913898408    -0.015780734498
    H           -0.779448349566     2.024860771091     0.341482813537
    H           -1.439433425556     0.929083590637     1.513355285251
    C            1.169293365531     0.202832969674     0.468507805387
    H           -0.282554937868    -0.093337115667    -1.100079413363
    H           -0.599436558495    -1.000595586392     0.333998419776
    C            2.130755001649    -0.904552398230     0.041796045456
    H            1.514925584493     1.161045323760     0.093948074949
    H            1.171573519293     0.279931512104     1.553792945448
    C            3.560264576806    -0.749991460798     0.563823203732
    H            2.150977378049    -0.963018443970    -1.043998598510
    H            1.738980987295    -1.856797984630     0.388156741027
    C            4.318649937835     0.450809874927     0.003408354146
    H            4.112053356153    -1.652885435014     0.321528703169
    H            3.541089578711    -0.689910398522     1.648889582370
    H            4.347656246464     0.421199156754    -1.081129634080
    H            3.866001180010     1.390419084840     0.296529664692
    H            5.342304107319     0.458743252073     0.359841382347

  Mulliken Charges: (a.u.)
   Center  Symbol    Alpha    Beta     Spin     Total
       1     H     0.46462  0.46462  0.00000  0.07077
       2     C     2.90139  2.90139  0.00000  0.19723
       3     C     3.09175  3.09175  0.00000 -0.18349
       4     O     4.16710  4.16710  0.00000 -0.33420
       5     C     3.11529  3.11529  0.00000 -0.23058
       6     H     0.44261  0.44261  0.00000  0.11477
       7     H     0.44058  0.44058  0.00000  0.11885
       8     C     3.09242  3.09242  0.00000 -0.18483
       9     H     0.44458  0.44458  0.00000  0.11083
      10     H     0.44804  0.44804  0.00000  0.10391
      11     C     3.09259  3.09259  0.00000 -0.18518
      12     H     0.44700  0.44700  0.00000  0.10601
      13     H     0.44961  0.44961  0.00000  0.10078
      14     C     3.09571  3.09571  0.00000 -0.19141
      15     H     0.45114  0.45114  0.00000  0.09773
      16     H     0.45418  0.45418  0.00000  0.09163
      17     C     3.09084  3.09084  0.00000 -0.18168
      18     H     0.45246  0.45246  0.00000  0.09509
      19     H     0.44821  0.44821  0.00000  0.10358
      20     C     3.15265  3.15265  0.00000 -0.30530
      21     H     0.44767  0.44767  0.00000  0.10466
      22     H     0.45484  0.45484  0.00000  0.09033
      23     H     0.45435  0.45435  0.00000  0.09130
      24     H     0.45446  0.45446  0.00000  0.09108
      25     H     0.44593  0.44593  0.00000  0.10814

   Total alpha = 36.00000, Total beta = 36.00000, Total charge = -0.00000

*** Psi4 exiting successfully. Buy a developer a beer!
