                              Psi4 1.0.54 Driver

  ==> Input File <==

--------------------------------------------------------------------------
set {
	reference rhf
	basis cc-pvtz
}

set_num_threads( 4 )
memory 2 gb

molecule MOL {
0 1

H	 -0.939693	 0.000281	 1.681345
O	 -0.046262	 -0.000157	 1.387678
C	 -0.000837	 0.000006	 -0.025491
C	 1.432453	 0.249239	 -0.491014
C	 -0.516886	 -1.337034	 -0.553850
C	 -0.913684	 1.138967	 -0.458697
H	 1.492816	 0.290826	 -1.572412
H	 2.090607	 -0.545519	 -0.152984
H	 1.800126	 1.184984	 -0.088943
H	 -0.527937	 -1.353487	 -1.637545
H	 0.114466	 -2.153632	 -0.216752
H	 -1.522544	 -1.518887	 -0.196013
H	 -0.944760	 1.219885	 -1.538870
H	 -0.559966	 2.077940	 -0.051972
H	 -1.919860	 0.971372	 -0.095742

	symmetry c1
}
set optking {
	frozen_dihedral = ("
		4 3 2 1
	")
}

ee,wfn = optimize('scf', return_wfn=True)
oeprop( wfn, 'DIPOLE', 'QUADRUPOLE', 'MULLIKEN_CHARGES')
f=open( 'psi4out.xyz', 'w' )
f.write( "15  " )
f.write( str(ee) + "\n" )
f.write( MOL.save_string_xyz() )
f.close()
--------------------------------------------------------------------------

    Molecular point group: c1
  Charge       = 0
  Multiplicity = 1
  Basis Set: CC-PVTZ
  Basis Set:
  @DF-RHF Final Energy:  -232.24459610084844
    Total Energy =                       -232.2445961008483550
    Molecular point group: c1
  Basis Set: CC-PVTZ
  Basis Set:
  Basis Set: CC-PVTZ
  Basis Set:
  @DF-RHF Final Energy:  -232.19637748096918
    Total Energy =                       -232.1963774809694314
  Basis Set: CC-PVTZ
  Basis Set:
  Basis Set: CC-PVTZ
  Basis Set:
  @DF-RHF Final Energy:  -232.24429066729019
    Total Energy =                       -232.2442906672901017
  Basis Set: CC-PVTZ
  Basis Set:
  Basis Set: CC-PVTZ
  Basis Set:
  @DF-RHF Final Energy:  -232.24658858739534
    Total Energy =                       -232.2465885873953653
  Basis Set: CC-PVTZ
  Basis Set:
  Basis Set: CC-PVTZ
  Basis Set:
  @DF-RHF Final Energy:  -232.24665970980058
    Total Energy =                       -232.2466597098006673
  Basis Set: CC-PVTZ
  Basis Set:
  Basis Set: CC-PVTZ
  Basis Set:
  @DF-RHF Final Energy:  -232.24666605304139
    Total Energy =                       -232.2466660530415652
  Basis Set: CC-PVTZ
  Basis Set:
  Basis Set: CC-PVTZ
  Basis Set:
  @DF-RHF Final Energy:  -232.24666712514610
    Total Energy =                       -232.2466671251461889
  Basis Set: CC-PVTZ
  Basis Set:
  Charge       = 0
  Multiplicity = 1
  Basis Set: CC-PVTZ
  Basis Set:

    Orbital Energies (a.u.)
    -----------------------

    Doubly Occupied:

       1A    -20.542128     2A    -11.280795     3A    -11.210950
       4A    -11.207719     5A    -11.203815     6A     -1.364868
       7A     -1.065258     8A     -0.942671     9A     -0.939900
      10A     -0.778519    11A     -0.672624    12A     -0.624339
      13A     -0.622834    14A     -0.575987    15A     -0.557610
      16A     -0.532837    17A     -0.517038    18A     -0.511315
      19A     -0.504621    20A     -0.458680    21A     -0.428701

  @DF-RHF Final Energy:  -232.24666749422406

   => Energetics <=

    Nuclear Repulsion Energy =            200.6747602745585652
    One-Electron Energy =                -712.7564375194384638
    Two-Electron Energy =                 279.8350097506555585
    DFT Exchange-Correlation Energy =       0.0000000000000000
    Empirical Dispersion Energy =           0.0000000000000000
    PCM Polarization Energy =               0.0000000000000000
    EFP Energy =                            0.0000000000000000
    Total Energy =                       -232.2466674942243117
    Molecular point group: c1
  Basis Set: CC-PVTZ
  Basis Set:

  -Total Gradient:
     Atom            X                  Y                   Z
    ------   -----------------  -----------------  -----------------
       1        0.000085213153     0.000902767528     0.000144213507
       2       -0.000108518197    -0.000961565495    -0.000146472006
       3        0.000076610234    -0.000497176649     0.000004782803
       4       -0.000075159251     0.000552703314     0.000028652037
       5       -0.000000932134     0.000005582434    -0.000027903448
       6        0.000021989502    -0.000000129578    -0.000036888221
       7       -0.000014479160    -0.000005020872     0.000024423803
       8       -0.000011689561     0.000007480019    -0.000005410079
       9       -0.000006023910    -0.000006915813    -0.000004101715
      10       -0.000014537475    -0.000003615313     0.000008517320
      11        0.000011350159     0.000013653553    -0.000001904111
      12        0.000015690422    -0.000005094865     0.000004010782
      13       -0.000014203856     0.000008969142     0.000002849914
      14        0.000006901442    -0.000006207803    -0.000003605721
      15        0.000027788633    -0.000005429600     0.000008835137

  **** Optimization is complete! (in 8 steps) ****
    Final optimized geometry and variables:
    Molecular point group: c1

    Geometry (in Angstrom), charge = 0, multiplicity = 1:

    H           -1.443879593277    -0.119853334746     1.269993933888
    O           -0.505294368937    -0.174311955492     1.281764196962
    C            0.007911734403     0.000913909276    -0.024208578522
    C            1.513527776216     0.147900958974     0.148248317452
    C           -0.324591079133    -1.226738082541    -0.869946394615
    C           -0.587373377477     1.263096020078    -0.644963380992
    H            2.002451596179     0.271493530578    -0.810870344687
    H            1.922020972690    -0.730200703391     0.632460964610
    H            1.738044763714     1.008759828175     0.765102189359
    H            0.084928383623    -1.138848177168    -1.869802921696
    H            0.079551659587    -2.119039793613    -0.408745719150
    H           -1.399116707606    -1.351213126733    -0.959760807513
    H           -0.183029086213     1.441700724660    -1.634315349567
    H           -0.372918289317     2.124747101358    -0.024976644413
    H           -1.665580436333     1.174090304230    -0.740762011973

  Mulliken Charges: (a.u.)
   Center  Symbol    Alpha    Beta     Spin     Total
       1     H     0.39551  0.39551  0.00000  0.20898
       2     O     4.21130  4.21130  0.00000 -0.42261
       3     C     2.87834  2.87834  0.00000  0.24332
       4     C     3.14292  3.14292  0.00000 -0.28584
       5     C     3.14841  3.14841  0.00000 -0.29681
       6     C     3.15216  3.15216  0.00000 -0.30432
       7     H     0.45878  0.45878  0.00000  0.08244
       8     H     0.44772  0.44772  0.00000  0.10456
       9     H     0.44917  0.44917  0.00000  0.10166
      10     H     0.45634  0.45634  0.00000  0.08732
      11     H     0.44709  0.44709  0.00000  0.10581
      12     H     0.45545  0.45545  0.00000  0.08910
      13     H     0.45461  0.45461  0.00000  0.09079
      14     H     0.44594  0.44594  0.00000  0.10812
      15     H     0.45626  0.45626  0.00000  0.08748

   Total alpha = 21.00000, Total beta = 21.00000, Total charge = -0.00000

*** Psi4 exiting successfully. Buy a developer a beer!
