                              Psi4 1.0.54 Driver

  ==> Input File <==

--------------------------------------------------------------------------
set {
	reference rhf
	basis cc-pvtz
}

set_num_threads( 4 )
memory 2 gb

molecule MOL {
0 1

H	 -2.721501	 0.805566	 -0.427500
N	 -1.745277	 0.877817	 -0.235571
C	 -0.963243	 0.727995	 -1.448880
H	 -1.510996	 0.156482	 0.413109
C	 0.513611	 0.829198	 -1.143415
H	 -1.143173	 -0.213157	 -1.966956
H	 -1.223844	 1.529706	 -2.131080
O	 0.881195	 -0.248324	 -0.336237
H	 1.084687	 0.813843	 -2.070674
H	 0.717733	 1.767576	 -0.632817
C	 2.208068	 -0.234417	 0.074171
H	 2.725499	 -1.027054	 -0.446768
H	 2.688377	 0.712084	 -0.164856
H	 2.295137	 -0.403407	 1.144883

	symmetry c1
}
set optking {
	frozen_dihedral = ("
		5 8 11 13
	")
}

ee,wfn = optimize('scf', return_wfn=True)
oeprop( wfn, 'DIPOLE', 'QUADRUPOLE', 'MULLIKEN_CHARGES')
f=open( 'psi4out.xyz', 'w' )
f.write( "14  " )
f.write( str(ee) + "\n" )
f.write( MOL.save_string_xyz() )
f.close()
--------------------------------------------------------------------------

    Molecular point group: c1
  Charge       = 0
  Multiplicity = 1
  Basis Set: CC-PVTZ
  Basis Set:
  @DF-RHF Final Energy:  -248.22224958092062
    Total Energy =                       -248.2222495809206748
    Molecular point group: c1
  Basis Set: CC-PVTZ
  Basis Set:
  Basis Set: CC-PVTZ
  Basis Set:
  @DF-RHF Final Energy:  -248.22270741350619
    Total Energy =                       -248.2227074135061571
  Basis Set: CC-PVTZ
  Basis Set:
  Basis Set: CC-PVTZ
  Basis Set:
  @DF-RHF Final Energy:  -248.22282413031030
    Total Energy =                       -248.2228241303100731
  Basis Set: CC-PVTZ
  Basis Set:
  Charge       = 0
  Multiplicity = 1
  Basis Set: CC-PVTZ
  Basis Set:

    Orbital Energies (a.u.)
    -----------------------

    Doubly Occupied:

       1A    -20.547452     2A    -15.523087     3A    -11.264449
       4A    -11.263256     5A    -11.239379     6A     -1.380013
       7A     -1.175539     8A     -1.000436     9A     -0.907892
      10A     -0.815398    11A     -0.683780    12A     -0.673723
      13A     -0.645196    14A     -0.611757    15A     -0.607521
      16A     -0.540447    17A     -0.535564    18A     -0.497433
      19A     -0.473484    20A     -0.414984    21A     -0.383489

  @DF-RHF Final Energy:  -248.22282507315751

   => Energetics <=

    Nuclear Repulsion Energy =            194.4280157584379083
    One-Electron Energy =                -722.9331228569078576
    Two-Electron Energy =                 280.2822820253126110
    DFT Exchange-Correlation Energy =       0.0000000000000000
    Empirical Dispersion Energy =           0.0000000000000000
    PCM Polarization Energy =               0.0000000000000000
    EFP Energy =                            0.0000000000000000
    Total Energy =                       -248.2228250731573098
    Molecular point group: c1
  Basis Set: CC-PVTZ
  Basis Set:

  -Total Gradient:
     Atom            X                  Y                   Z
    ------   -----------------  -----------------  -----------------
       1        0.000007142872     0.000003592101    -0.000015322042
       2        0.000011170859    -0.000001877845    -0.000011284773
       3       -0.000020024718    -0.000002090988    -0.000017855813
       4        0.000011338630     0.000010345895    -0.000011383861
       5       -0.000346909113     0.000628796950     0.000947978869
       6       -0.000003314414     0.000006365110     0.000010101489
       7       -0.000034193676     0.000009231682    -0.000007101104
       8        0.000666961240    -0.000975883818    -0.001655666512
       9       -0.000003667573    -0.000032718071     0.000040428325
      10        0.000011036083     0.000008740688    -0.000008524575
      11       -0.000665640321     0.000799626878     0.001967217640
      12        0.000027183479    -0.000010084129     0.000007486697
      13        0.000359330501    -0.000463475110    -0.001246839877
      14       -0.000020413847     0.000019430656     0.000000765538

  **** Optimization is complete! (in 4 steps) ****
    Final optimized geometry and variables:
    Molecular point group: c1

    Geometry (in Angstrom), charge = 0, multiplicity = 1:

    H           -2.911012600332     0.343439742183     0.198914797030
    N           -1.935785671168     0.442895574272     0.383508693149
    C           -1.160755465802     0.336433391493    -0.838732484764
    H           -1.673291277081    -0.281389278324     1.017861512108
    C            0.315144028128     0.477548820233    -0.544516477400
    H           -1.316968660605    -0.601279667129    -1.370507194144
    H           -1.451313192534     1.140818738478    -1.505710577682
    O            0.717128160626    -0.600886565756     0.247030606706
    H            0.874984506472     0.491777651524    -1.478268010695
    H            0.494267472135     1.414218616429    -0.023288037339
    C            2.044994989452    -0.590653314209     0.672684985759
    H            2.606337385149    -1.371863513292     0.170132621607
    H            2.529230415810     0.357122125007     0.462274034415
    H            2.082051317355    -0.769223727781     1.739995282897

  Mulliken Charges: (a.u.)
   Center  Symbol    Alpha    Beta     Spin     Total
       1     H     0.43034  0.43034  0.00000  0.13932
       2     N     3.69429  3.69429  0.00000 -0.38857
       3     C     3.02404  3.02404  0.00000 -0.04809
       4     H     0.42220  0.42220  0.00000  0.15561
       5     C     2.96793  2.96793  0.00000  0.06414
       6     H     0.46482  0.46482  0.00000  0.07037
       7     H     0.45874  0.45874  0.00000  0.08251
       8     O     4.18447  4.18447  0.00000 -0.36894
       9     H     0.47020  0.47020  0.00000  0.05960
      10     H     0.46830  0.46830  0.00000  0.06339
      11     C     3.02728  3.02728  0.00000 -0.05456
      12     H     0.46073  0.46073  0.00000  0.07853
      13     H     0.47178  0.47178  0.00000  0.05643
      14     H     0.45487  0.45487  0.00000  0.09025

   Total alpha = 21.00000, Total beta = 21.00000, Total charge = -0.00000

*** Psi4 exiting successfully. Buy a developer a beer!
