  ==> Input File <==

--------------------------------------------------------------------------
set {
	reference rhf
	basis 6-31G*
}

set_num_threads( 4 )
memory 2 gb

molecule MOL {
0 1

H	 -0.000158	 1.970498	 0.756846
O	 -0.000074	 1.880206	 -0.189275
C	 -0.000015	 0.544847	 -0.545111
C	 -1.372108	 -0.064079	 -0.275747
C	 1.146590	 -0.178385	 0.153625
H	 0.178627	 0.486759	 -1.608509
F	 -2.283636	 0.570116	 -0.981763
F	 -1.423404	 -1.339685	 -0.595995
F	 -1.696544	 0.054045	 1.001901
F	 2.292347	 0.362617	 -0.201472
F	 1.188554	 -1.458163	 -0.150985
F	 1.039241	 -0.070372	 1.468306

	symmetry c1
}
set optking {
	frozen_dihedral = ("
		6 3 2 1
	")
}

ee = optimize('scf')
oeprop('DIPOLE', 'QUADRUPOLE', 'MULLIKEN_CHARGES')
f=open( 'psi4out.xyz', 'w' )
f.write( "12  " )
f.write( str(ee) + "\n" )
f.write( MOL.save_string_xyz() )
f.close()
--------------------------------------------------------------------------

    Molecular point group: c1
  Charge       = 0
  Multiplicity = 1
  Basis Set: 6-31G*
  Basis Set:
  @DF-RHF Final Energy:  -786.27783525624216
    Total Energy =                       -786.2778352562419286
    Molecular point group: c1
  Basis Set: 6-31G*
  Basis Set:
  Basis Set: 6-31G*
  Basis Set:
  @DF-RHF Final Energy:  -786.27786793844996
    Total Energy =                       -786.2778679384500720
  Basis Set: 6-31G*
  Basis Set:
  Charge       = 0
  Multiplicity = 1
  Basis Set: 6-31G*
  Basis Set:

    Orbital Energies (a.u.)
    -----------------------

    Doubly Occupied:

       1A    -26.365250     2A    -26.363715     3A    -26.360532
       4A    -26.360121     5A    -26.359983     6A    -26.356315
       7A    -20.616940     8A    -11.527909     9A    -11.523961
      10A    -11.349359    11A     -1.765406    12A     -1.758228
      13A     -1.662928    14A     -1.658902    15A     -1.656195
      16A     -1.654352    17A     -1.435338    18A     -1.101980
      19A     -0.997048    20A     -0.938488    21A     -0.864261
      22A     -0.862762    23A     -0.852464    24A     -0.844120
      25A     -0.831822    26A     -0.815682    27A     -0.743848
      28A     -0.727924    29A     -0.723500    30A     -0.717565
      31A     -0.689423    32A     -0.686904    33A     -0.683481
      34A     -0.674168    35A     -0.669704    36A     -0.663654
      37A     -0.656094    38A     -0.653398    39A     -0.620265
      40A     -0.551377    41A     -0.505912

  @DF-RHF Final Energy:  -786.27787356391411

   => Energetics <=

    Nuclear Repulsion Energy =            670.5334383544362709
    One-Electron Energy =               -2427.9200680727271902
    Two-Electron Energy =                 971.1087561543777156
    DFT Exchange-Correlation Energy =       0.0000000000000000
    Empirical Dispersion Energy =           0.0000000000000000
    PCM Polarization Energy =               0.0000000000000000
    EFP Energy =                            0.0000000000000000
    Total Energy =                       -786.2778735639130900
    Molecular point group: c1
  Basis Set: 6-31G*
  Basis Set:

  -Total Gradient:
     Atom            X                  Y                   Z
    ------   -----------------  -----------------  -----------------
       1        0.001466660803    -0.000014460371    -0.000010744500
       2       -0.001566056159    -0.000019134870     0.000028398177
       3       -0.001166963122     0.000008995975    -0.000256548276
       4        0.000092455605    -0.000225370551    -0.000126482455
       5        0.000012417076     0.000315650178     0.000123111992
       6        0.001323352980    -0.000039696469     0.000229404685
       7       -0.000068189187     0.000073191489     0.000037813543
       8       -0.000046717493     0.000079063904     0.000094140522
       9       -0.000003829276     0.000018646394    -0.000007073831
      10        0.000009361475    -0.000100799527    -0.000056179537
      11       -0.000032641356     0.000002873924    -0.000048396435
      12       -0.000019851329    -0.000098960090    -0.000007443883

  **** Optimization is complete! (in 3 steps) ****
    Final optimized geometry and variables:
    Molecular point group: c1

    Geometry (in Angstrom), charge = 0, multiplicity = 1:

    H            0.099515793185     1.970807660677     0.764424373668
    O            0.110414171207     1.878226901236    -0.181215711284
    C            0.115410754818     0.542338650659    -0.535738623929
    C           -1.256220175211    -0.068862158438    -0.269927333573
    C            1.260618184627    -0.178611227744     0.167679602732
    H            0.306128960266     0.481959911514    -1.597083749161
    F           -2.172122011145     0.588683877285    -0.948004233037
    F           -1.313623398719    -1.334246705703    -0.630448017545
    F           -1.567521150413     0.008552314591     1.013120336706
    F            2.409610759982     0.338522956112    -0.213336453024
    F            1.282778443229    -1.465768140001    -0.102431631951
    F            1.170725095000    -0.033399711909     1.480810454221

  Mulliken Charges: (a.u.)
   Center  Symbol    Alpha    Beta     Spin     Total
       1     H     0.26543  0.26543  0.00000  0.46913
       2     O     4.36332  4.36332  0.00000 -0.72664
       3     C     3.04404  3.04404  0.00000 -0.08809
       4     C     2.44354  2.44354  0.00000  1.11292
       5     C     2.44924  2.44924  0.00000  1.10152
       6     H     0.37551  0.37551  0.00000  0.24899
       7     F     4.67491  4.67491  0.00000 -0.34983
       8     F     4.67477  4.67477  0.00000 -0.34954
       9     F     4.68039  4.68039  0.00000 -0.36078
      10     F     4.67489  4.67489  0.00000 -0.34978
      11     F     4.67295  4.67295  0.00000 -0.34591
      12     F     4.68100  4.68100  0.00000 -0.36199

   Total alpha = 41.00000, Total beta = 41.00000, Total charge =  0.00000
