  ==> Input File <==

--------------------------------------------------------------------------
set {
	reference rhf
	basis cc-pvtz
}

set_num_threads( 4 )
memory 2 gb

molecule MOL {
0 1

H	 1.994659	 0.067677	 -0.726292
C	 1.134928	 -0.484948	 -0.413244
C	 1.127789	 -1.865048	 -0.410671
C	 0.000000	 0.179985	 0.000046
H	 2.000437	 -2.400786	 -0.728452
C	 0.000001	 -2.552036	 -0.000007
N	 0.000000	 1.644631	 0.000076
C	 -1.134928	 -0.484965	 0.413307
H	 0.000000	 -3.625035	 -0.000032
C	 -1.127788	 -1.865065	 0.410681
O	 1.050559	 2.194174	 -0.000073
O	 -1.050559	 2.194174	 -0.000074
H	 -1.994657	 0.067648	 0.726387
H	 -2.000438	 -2.400815	 0.728436

	symmetry c1
}
set optking {
	frozen_dihedral = ("
		2 4 7 11
	")
}

ee = optimize('scf')
oeprop('DIPOLE', 'QUADRUPOLE', 'MULLIKEN_CHARGES')
f=open( 'psi4out.xyz', 'w' )
f.write( "14  " )
f.write( str(ee) + "\n" )
f.write( MOL.save_string_xyz() )
f.close()
--------------------------------------------------------------------------

    Molecular point group: c1
  Charge       = 0
  Multiplicity = 1
  Basis Set: CC-PVTZ
  Basis Set:
  @DF-RHF Final Energy:  -434.32935940590090
    Total Energy =                       -434.3293594059009592
    Molecular point group: c1
  Basis Set: CC-PVTZ
  Basis Set:
  Basis Set: CC-PVTZ
  Basis Set:
  @DF-RHF Final Energy:  -434.32329480277065
    Total Energy =                       -434.3232948027704197
  Basis Set: CC-PVTZ
  Basis Set:
  Basis Set: CC-PVTZ
  Basis Set:
  @DF-RHF Final Energy:  -434.32929952454236
    Total Energy =                       -434.3292995245428756
  Basis Set: CC-PVTZ
  Basis Set:
  Basis Set: CC-PVTZ
  Basis Set:
  @DF-RHF Final Energy:  -434.32943265110003
    Total Energy =                       -434.3294326511000918
  Basis Set: CC-PVTZ
  Basis Set:
  Basis Set: CC-PVTZ
  Basis Set:
  @DF-RHF Final Energy:  -434.32943336662203
    Total Energy =                       -434.3294333666216289
  Basis Set: CC-PVTZ
  Basis Set:
  Charge       = 0
  Multiplicity = 1
  Basis Set: CC-PVTZ
  Basis Set:

    Orbital Energies (a.u.)
    -----------------------

    Doubly Occupied:

       1A    -20.592317     2A    -20.592256     3A    -15.847615
       4A    -11.302824     5A    -11.267460     6A    -11.267389
       7A    -11.264381     8A    -11.258531     9A    -11.258381
      10A     -1.641348    11A     -1.423884    12A     -1.204908
      13A     -1.096014    14A     -1.055372    15A     -0.959515
      16A     -0.868115    17A     -0.829135    18A     -0.788883
      19A     -0.740614    20A     -0.735371    21A     -0.712457
      22A     -0.658972    23A     -0.651886    24A     -0.626438
      25A     -0.556170    26A     -0.542177    27A     -0.531668
      28A     -0.493273    29A     -0.491337    30A     -0.457258
      31A     -0.377022    32A     -0.369559

  @DF-RHF Final Energy:  -434.32943490004368

   => Energetics <=

    Nuclear Repulsion Energy =            418.2145795787001816
    One-Electron Energy =               -1420.1629759104710047
    Two-Electron Energy =                 567.6189614317268024
    DFT Exchange-Correlation Energy =       0.0000000000000000
    Empirical Dispersion Energy =           0.0000000000000000
    PCM Polarization Energy =               0.0000000000000000
    EFP Energy =                            0.0000000000000000
    Total Energy =                       -434.3294349000440207
    Molecular point group: c1
  Basis Set: CC-PVTZ
  Basis Set:

  -Total Gradient:
     Atom            X                  Y                   Z
    ------   -----------------  -----------------  -----------------
       1        0.000001404822    -0.000001197808     0.000002911784
       2       -0.000622550902    -0.000023139999    -0.001676950261
       3        0.000008303611     0.000005091675     0.000012975514
       4        0.000897408803     0.000038240087     0.003173660462
       5       -0.000000060455     0.000000346549    -0.000002033275
       6       -0.000005439609    -0.000001287863     0.000004573580
       7       -0.000293445892    -0.000031199292    -0.003549668983
       8        0.000009079997     0.000004708163     0.000013213309
       9        0.000000565406     0.000000572470    -0.000000775906
      10       -0.000002555935    -0.000006372998    -0.000016442633
      11        0.000026604872     0.000014912928     0.002036542702
      12       -0.000018268434    -0.000001076031     0.000000653504
      13       -0.000000982280    -0.000001105502    -0.000001209665
      14       -0.000000064006     0.000001507624     0.000002549870

  **** Optimization is complete! (in 6 steps) ****
    Final optimized geometry and variables:
    Molecular point group: c1

    Geometry (in Angstrom), charge = 0, multiplicity = 1:

    H            1.999232131947     0.070401542032    -0.713515980812
    C            1.137449950761    -0.483232449485    -0.406458515142
    C            1.126978231577    -1.863379056193    -0.412969245752
    C            0.003664188656     0.180022846068     0.010049956349
    H            1.996426701053    -2.399428189738    -0.738872469549
    C           -0.000221330191    -2.549977601716    -0.000166077383
    N           -0.000314462379     1.643058489277    -0.004467918630
    C           -1.136139827899    -0.482908285596     0.410416843589
    H           -0.001201092128    -3.622913759100    -0.002406372067
    C           -1.127147986663    -1.863051547188     0.413058497319
    O            1.050037861979     2.193230408017    -0.018972927889
    O           -1.052920840072     2.188629751712     0.013089960879
    H           -1.999740363118     0.070697497688     0.712154748184
    H           -1.999164862524    -2.398999548014     0.732206360895

  Mulliken Charges: (a.u.)
   Center  Symbol    Alpha    Beta     Spin     Total
       1     H     0.40098  0.40098  0.00000  0.19803
       2     C     3.07939  3.07939  0.00000 -0.15877
       3     C     3.07204  3.07204  0.00000 -0.14408
       4     C     2.97006  2.97006  0.00000  0.05988
       5     H     0.41696  0.41696  0.00000  0.16609
       6     C     3.06529  3.06529  0.00000 -0.13058
       7     N     3.25849  3.25849  0.00000  0.48302
       8     C     3.07902  3.07902  0.00000 -0.15805
       9     H     0.41714  0.41714  0.00000  0.16573
      10     C     3.07179  3.07179  0.00000 -0.14359
      11     O     4.17534  4.17534  0.00000 -0.35068
      12     O     4.17547  4.17547  0.00000 -0.35094
      13     H     0.40105  0.40105  0.00000  0.19789
      14     H     0.41697  0.41697  0.00000  0.16605

   Total alpha = 32.00000, Total beta = 32.00000, Total charge = -0.00000
