  ==> Input File <==

--------------------------------------------------------------------------
set {
	reference rhf
	basis 6-31G*
}

set_num_threads( 1 )
memory 2 gb

molecule MOL {
0 1

O	 3.092826	 1.388796	 0.981119
C	 2.627286	 0.301220	 0.864888
C	 1.245376	 -0.013843	 0.345420
O	 3.282839	 -0.807030	 1.186855
C	 0.455112	 1.231400	 -0.050772
H	 1.366755	 -0.700250	 -0.486028
H	 0.729050	 -0.574675	 1.120386
C	 -0.998893	 1.219485	 0.433193
H	 0.482531	 1.345121	 -1.130325
H	 0.957290	 2.103070	 0.354729
C	 -1.883438	 0.145884	 -0.207175
H	 -1.431207	 2.195402	 0.224832
H	 -1.019646	 1.105716	 1.516076
C	 -3.347647	 0.245583	 0.225435
H	 -1.822183	 0.231698	 -1.291012
H	 -1.510341	 -0.844814	 0.042401
C	 -4.239992	 -0.825570	 -0.404234
H	 -3.732888	 1.230466	 -0.033079
H	 -3.408585	 0.170602	 1.310038
C	 -5.701275	 -0.716658	 0.029921
H	 -4.179496	 -0.752714	 -1.488058
H	 -3.859041	 -1.810759	 -0.143352
H	 -6.308102	 -1.488908	 -0.432678
H	 -6.122175	 0.245478	 -0.248167
H	 -5.799072	 -0.820114	 1.106957
C	 4.596801	 -0.652710	 1.691410
H	 5.229126	 -0.166393	 0.962600
H	 4.955385	 -1.650489	 1.891062
H	 4.588777	 -0.068801	 2.600543

	symmetry c1
}
set optking {
	frozen_dihedral = ("
		21 17 14 11,
		17 14 11 15,
		15 11 8 5,
		11 8 5 9,
		2 4 26 27,
		1 2 4 26,
		6 3 2 1
	")
}

ee = energy('scf')
oeprop('DIPOLE', 'QUADRUPOLE', 'MULLIKEN_CHARGES')
f=open( 'psi4out.xyz', 'w' )
f.write( "29  " )
f.write( str(ee) + "\n" )
f.write( MOL.save_string_xyz() )
f.close()
--------------------------------------------------------------------------

    Molecular point group: c1

    Geometry (in Angstrom), charge = 0, multiplicity = 1:

       Center              X                  Y                   Z               Mass
    ------------   -----------------  -----------------  -----------------  -----------------
           O          3.130953081133     1.260607931652     0.502170175888    15.994914619560
           C          2.665413081133     0.173031931652     0.385939175888    12.000000000000
           C          1.283503081133    -0.142031068348    -0.133528824112    12.000000000000
           O          3.320966081133    -0.935218068348     0.707906175888    15.994914619560
           C          0.493239081133     1.103211931652    -0.529720824112    12.000000000000
           H          1.404882081133    -0.828438068348    -0.964976824112     1.007825032070
           H          0.767177081133    -0.702863068348     0.641437175888     1.007825032070
           C         -0.960765918867     1.091296931652    -0.045755824112    12.000000000000
           H          0.520658081133     1.216932931652    -1.609273824112     1.007825032070
           H          0.995417081133     1.974881931652    -0.124219824112     1.007825032070
           C         -1.845310918867     0.017695931652    -0.686123824112    12.000000000000
           H         -1.393079918867     2.067213931652    -0.254116824112     1.007825032070
           H         -0.981518918867     0.977527931652     1.037127175888     1.007825032070
           C         -3.309519918867     0.117394931652    -0.253513824112    12.000000000000
           H         -1.784055918867     0.103509931652    -1.769960824112     1.007825032070
           H         -1.472213918867    -0.973002068348    -0.436547824112     1.007825032070
           C         -4.201864918867    -0.953758068348    -0.883182824112    12.000000000000
           H         -3.694760918867     1.102277931652    -0.512027824112     1.007825032070
           H         -3.370457918867     0.042413931652     0.831089175888     1.007825032070
           C         -5.663147918867    -0.844846068348    -0.449027824112    12.000000000000
           H         -4.141368918867    -0.880902068348    -1.967006824112     1.007825032070
           H         -3.820913918867    -1.938947068348    -0.622300824112     1.007825032070
           H         -6.269974918867    -1.617096068348    -0.911626824112     1.007825032070
           H         -6.084047918867     0.117289931652    -0.727115824112     1.007825032070
           H         -5.760944918867    -0.948302068348     0.628008175888     1.007825032070
           C          4.634928081133    -0.780898068348     1.212461175888    12.000000000000
           H          5.267253081133    -0.294581068348     0.483651175888     1.007825032070
           H          4.993512081133    -1.778677068348     1.412113175888     1.007825032070
           H          4.626904081133    -0.196989068348     2.121594175888     1.007825032070

  Charge       = 0
  Multiplicity = 1
  Basis Set: 6-31G*
  Basis Set:

    Orbital Energies (a.u.)
    -----------------------

    Doubly Occupied:

       1A    -20.604081     2A    -20.546206     3A    -11.372695
       4A    -11.281046     5A    -11.233856     6A    -11.216427
       7A    -11.215549     8A    -11.215239     9A    -11.215082
      10A    -11.213867    11A    -11.208775    12A     -1.469837
      13A     -1.363634    14A     -1.097232    15A     -1.066337
      16A     -1.019035    17A     -0.977098    18A     -0.927905
      19A     -0.860896    20A     -0.799655    21A     -0.790263
      22A     -0.763159    23A     -0.702286    24A     -0.682363
      25A     -0.673095    26A     -0.652717    27A     -0.625397
      28A     -0.606128    29A     -0.592595    30A     -0.581075
      31A     -0.566143    32A     -0.550161    33A     -0.533631
      34A     -0.527173    35A     -0.514678    36A     -0.509054
      37A     -0.498477    38A     -0.474913    39A     -0.469698
      40A     -0.461383    41A     -0.458517    42A     -0.456219
      43A     -0.439983    44A     -0.436875

  @DF-RHF Final Energy:  -501.04051260623567

   => Energetics <=

    Nuclear Repulsion Energy =            610.9035472295714726
    One-Electron Energy =               -1892.9474626318462924
    Two-Electron Energy =                 781.0034027960388130
    DFT Exchange-Correlation Energy =       0.0000000000000000
    Empirical Dispersion Energy =           0.0000000000000000
    PCM Polarization Energy =               0.0000000000000000
    EFP Energy =                            0.0000000000000000
    Total Energy =                       -501.0405126062358931

  Mulliken Charges: (a.u.)
   Center  Symbol    Alpha    Beta     Spin     Total
       1     O     4.28468  4.28468  0.00000 -0.56937
       2     C     2.61090  2.61090  0.00000  0.77820
       3     C     3.20956  3.20956  0.00000 -0.41912
       4     O     4.30594  4.30594  0.00000 -0.61188
       5     C     3.16334  3.16334  0.00000 -0.32668
       6     H     0.39742  0.39742  0.00000  0.20516
       7     H     0.39892  0.39892  0.00000  0.20217
       8     C     3.15792  3.15792  0.00000 -0.31584
       9     H     0.41860  0.41860  0.00000  0.16281
      10     H     0.39256  0.39256  0.00000  0.21488
      11     C     3.15409  3.15409  0.00000 -0.30818
      12     H     0.41934  0.41934  0.00000  0.16131
      13     H     0.42290  0.42290  0.00000  0.15420
      14     C     3.15046  3.15046  0.00000 -0.30092
      15     H     0.42353  0.42353  0.00000  0.15293
      16     H     0.42378  0.42378  0.00000  0.15244
      17     C     3.15137  3.15137  0.00000 -0.30275
      18     H     0.42327  0.42327  0.00000  0.15346
      19     H     0.42404  0.42404  0.00000  0.15192
      20     C     3.23932  3.23932  0.00000 -0.47863
      21     H     0.42303  0.42303  0.00000  0.15393
      22     H     0.42348  0.42348  0.00000  0.15303
      23     H     0.41935  0.41935  0.00000  0.16129
      24     H     0.42158  0.42158  0.00000  0.15684
      25     H     0.42179  0.42179  0.00000  0.15642
      26     C     3.09229  3.09229  0.00000 -0.18458
      27     H     0.40899  0.40899  0.00000  0.18202
      28     H     0.40844  0.40844  0.00000  0.18312
      29     H     0.40910  0.40910  0.00000  0.18180

   Total alpha = 44.00000, Total beta = 44.00000, Total charge =  0.00000
