                              Psi4 1.0.54 Driver

  ==> Input File <==

--------------------------------------------------------------------------
set {
	reference rhf
	basis cc-pvtz
}

set_num_threads( 4 )
memory 2 gb

molecule MOL {
0 1

O	 -1.278239	 1.034789	 -0.784693
C	 -1.204115	 0.062668	 -0.112312
C	 -2.386398	 -0.667698	 0.460323
O	 -0.068058	 -0.518372	 0.226882
H	 -2.382952	 -1.693172	 0.114333
H	 -3.296656	 -0.175702	 0.158400
H	 -2.312537	 -0.685191	 1.540100
C	 0.484184	 -0.276700	 1.525121
C	 1.980387	 -0.479963	 1.394074
C	 -0.155075	 -1.208416	 2.538956
H	 0.271019	 0.747606	 1.790538
H	 2.395683	 0.197898	 0.659375
H	 2.464868	 -0.293153	 2.344911
H	 2.204821	 -1.494936	 1.088466
H	 0.270712	 -1.035180	 3.520381
H	 -1.220950	 -1.038061	 2.598446
H	 0.021248	 -2.243197	 2.267993

	symmetry c1
}
set optking {
	frozen_dihedral = ("
		8 4 2 1
	")
}

ee,wfn = optimize('scf', return_wfn=True)
oeprop( wfn, 'DIPOLE', 'QUADRUPOLE', 'MULLIKEN_CHARGES')
f=open( 'psi4out.xyz', 'w' )
f.write( "17  " )
f.write( str(ee) + "\n" )
f.write( MOL.save_string_xyz() )
f.close()
--------------------------------------------------------------------------

    Molecular point group: c1
  Charge       = 0
  Multiplicity = 1
  Basis Set: CC-PVTZ
  Basis Set:
  @DF-RHF Final Energy:  -345.01043429727849
    Total Energy =                       -345.0104342972783797
    Molecular point group: c1
  Basis Set: CC-PVTZ
  Basis Set:
  Basis Set: CC-PVTZ
  Basis Set:
  @DF-RHF Final Energy:  -345.01173856521552
    Total Energy =                       -345.0117385652155235
  Basis Set: CC-PVTZ
  Basis Set:
  Basis Set: CC-PVTZ
  Basis Set:
  @DF-RHF Final Energy:  -345.01882215909922
    Total Energy =                       -345.0188221590991589
  Basis Set: CC-PVTZ
  Basis Set:
  Basis Set: CC-PVTZ
  Basis Set:
  @DF-RHF Final Energy:  -345.02051912076797
    Total Energy =                       -345.0205191207680286
  Basis Set: CC-PVTZ
  Basis Set:
  @DF-RHF Final Energy:  -345.02093575932707
    Total Energy =                       -345.0209357593269033
  @DF-RHF Final Energy:  -345.02186338785424
    Total Energy =                       -345.0218633878540686
  @DF-RHF Final Energy:  -345.01158424216703
    Total Energy =                       -345.0115842421668049
  @DF-RHF Final Energy:  -345.02246276055786
    Total Energy =                       -345.0224627605581986
  @DF-RHF Final Energy:  -345.02252364149626
    Total Energy =                       -345.0225236414964911
  @DF-RHF Final Energy:  -345.02308686883111
    Total Energy =                       -345.0230868688310011
  @DF-RHF Final Energy:  -345.02334053335960
    Total Energy =                       -345.0233405333596011
  @DF-RHF Final Energy:  -345.02356079935555
    Total Energy =                       -345.0235607993553799
  @DF-RHF Final Energy:  -345.02376959691253
    Total Energy =                       -345.0237695969125298
  @DF-RHF Final Energy:  -345.01834180475987
    Total Energy =                       -345.0183418047598707
  @DF-RHF Final Energy:  -345.02406328372388
    Total Energy =                       -345.0240632837239900
  @DF-RHF Final Energy:  -345.02409457911602
    Total Energy =                       -345.0240945791162517
  @DF-RHF Final Energy:  -345.02410257126013
    Total Energy =                       -345.0241025712599594
  Basis Set: CC-PVTZ
  Basis Set:
  @DF-RHF Final Energy:  -345.02410800113648
    Total Energy =                       -345.0241080011365966
  Basis Set: CC-PVTZ
  Basis Set:
  Basis Set: CC-PVTZ
  Basis Set:
  @DF-RHF Final Energy:  -345.02410997785319
    Total Energy =                       -345.0241099778532998
  Basis Set: CC-PVTZ
  Basis Set:
  Basis Set: CC-PVTZ
  Basis Set:
  @DF-RHF Final Energy:  -345.02411098526056
    Total Energy =                       -345.0241109852608474
  Basis Set: CC-PVTZ
  Basis Set:
  Charge       = 0
  Multiplicity = 1
  Basis Set: CC-PVTZ
  Basis Set:

    Orbital Energies (a.u.)
    -----------------------

    Doubly Occupied:

       1A    -20.573305     2A    -20.542650     3A    -11.369114
       4A    -11.300230     5A    -11.235608     6A    -11.221033
       7A    -11.215779     8A     -1.458757     9A     -1.368179
      10A     -1.074368    11A     -1.011874    12A     -0.951719
      13A     -0.849193    14A     -0.771057    15A     -0.695324
      16A     -0.676656    17A     -0.655604    18A     -0.620024
      19A     -0.591840    20A     -0.590326    21A     -0.556911
      22A     -0.552000    23A     -0.545642    24A     -0.520944
      25A     -0.509653    26A     -0.481619    27A     -0.450181
      28A     -0.437497

  @DF-RHF Final Energy:  -345.02411106371943

   => Energetics <=

    Nuclear Repulsion Energy =            322.9194894195208576
    One-Electron Energy =               -1110.2330288041744097
    Two-Electron Energy =                 442.2894283209340642
    DFT Exchange-Correlation Energy =       0.0000000000000000
    Empirical Dispersion Energy =           0.0000000000000000
    PCM Polarization Energy =               0.0000000000000000
    EFP Energy =                            0.0000000000000000
    Total Energy =                       -345.0241110637194311
    Molecular point group: c1
  Basis Set: CC-PVTZ
  Basis Set:

  -Total Gradient:
     Atom            X                  Y                   Z
    ------   -----------------  -----------------  -----------------
       1       -0.000246158427    -0.000376623292    -0.000594498491
       2        0.000094822294     0.000396361252     0.000997352378
       3        0.000004468251     0.000031216590    -0.000017064607
       4        0.000636510847     0.000228008970    -0.000603873402
       5       -0.000000758828    -0.000007033844     0.000001244186
       6        0.000000950585    -0.000009989789     0.000002296603
       7        0.000000483257    -0.000008054359     0.000005552232
       8       -0.000483582452    -0.000273836013     0.000216613518
       9        0.000009338552     0.000006782324    -0.000004023770
      10       -0.000003396037     0.000011260387     0.000012092160
      11       -0.000012997676     0.000002858469    -0.000003487116
      12        0.000000412722     0.000003700243     0.000000596436
      13       -0.000001056780     0.000001311642    -0.000000506255
      14        0.000004545605    -0.000000406384    -0.000003130116
      15        0.000001069729     0.000000972313     0.000000779303
      16       -0.000005696975    -0.000006507034    -0.000006435782
      17        0.000001045332    -0.000000021475    -0.000003507281

  **** Optimization is complete! (in 21 steps) ****
    Final optimized geometry and variables:
    Molecular point group: c1

    Geometry (in Angstrom), charge = 0, multiplicity = 1:

    O           -0.254511602829     1.446234829660    -1.476859658778
    C           -0.727037976007     0.619192778427    -0.785883921729
    C           -2.160369034737     0.630007216433    -0.326540215116
    O           -0.036496031172    -0.473958722129    -0.414040549198
    H           -2.677407348196    -0.193867246126    -0.803886240921
    H           -2.628584652546     1.562275298943    -0.598046986462
    H           -2.227403945835     0.477877792011     0.742730670326
    C            0.558445125302    -0.514351153094     0.883182223639
    C            1.858739389026     0.271151451681     0.891220876652
    C            0.749901014585    -1.977808464524     1.224718346207
    H           -0.131719922424    -0.071732448478     1.595311680942
    H            1.694622241869     1.302925281945     0.611254182197
    H            2.298245098483     0.249965042874     1.882115680012
    H            2.561438357694    -0.160667060573     0.189538889190
    H            1.196622660629    -2.078922325090     2.206529410283
    H           -0.198776013066    -2.498688134680     1.220844917663
    H            1.401381651667    -2.448740184313     0.498984645778

  Mulliken Charges: (a.u.)
   Center  Symbol    Alpha    Beta     Spin     Total
       1     O     4.17260  4.17260  0.00000 -0.34519
       2     C     2.80745  2.80745  0.00000  0.38510
       3     C     3.14534  3.14534  0.00000 -0.29068
       4     O     4.17677  4.17677  0.00000 -0.35355
       5     H     0.44322  0.44322  0.00000  0.11355
       6     H     0.43626  0.43626  0.00000  0.12748
       7     H     0.45121  0.45121  0.00000  0.09758
       8     C     2.93714  2.93714  0.00000  0.12572
       9     C     3.13937  3.13937  0.00000 -0.27874
      10     C     3.13775  3.13775  0.00000 -0.27550
      11     H     0.45757  0.45757  0.00000  0.08487
      12     H     0.44368  0.44368  0.00000  0.11265
      13     H     0.45265  0.45265  0.00000  0.09470
      14     H     0.44917  0.44917  0.00000  0.10165
      15     H     0.45507  0.45507  0.00000  0.08986
      16     H     0.44693  0.44693  0.00000  0.10614
      17     H     0.44783  0.44783  0.00000  0.10435

   Total alpha = 28.00000, Total beta = 28.00000, Total charge = -0.00000

*** Psi4 exiting successfully. Buy a developer a beer!
