                              Psi4 1.0.54 Driver

  ==> Input File <==

--------------------------------------------------------------------------
set {
	reference rhf
	basis cc-pvtz
}

set_num_threads( 4 )
memory 2 gb

molecule MOL {
0 1

H	 -3.436473	 1.252944	 -1.023892
O	 -3.458596	 0.315260	 -0.960865
C	 -3.176635	 -0.080824	 0.355601
C	 -1.763371	 0.265266	 0.799691
H	 -3.321825	 -1.153438	 0.379502
H	 -3.895468	 0.357385	 1.043382
C	 -1.705835	 1.192560	 2.010120
H	 -1.225606	 -0.656400	 1.016956
H	 -1.248786	 0.725257	 -0.040546
C	 -0.281350	 1.502859	 2.462368
H	 -2.258557	 0.745851	 2.829182
H	 -2.217343	 2.121251	 1.768462
C	 -0.230695	 2.435393	 3.671029
H	 0.226223	 0.570813	 2.691608
H	 0.268345	 1.955212	 1.639526
C	 1.176537	 2.840769	 4.112861
H	 -0.746815	 1.967741	 4.506356
H	 -0.790540	 3.336757	 3.437069
C	 2.028095	 1.697499	 4.659602
H	 1.088479	 3.604971	 4.879031
H	 1.693587	 3.307718	 3.278572
H	 1.533157	 1.207352	 5.491990
H	 2.983498	 2.065988	 5.015498
H	 2.230349	 0.945735	 3.906243

	symmetry c1
}
set optking {
	frozen_dihedral = ("
		7 4 3 2
	")
}

ee,wfn = optimize('scf', return_wfn=True)
oeprop( wfn, 'DIPOLE', 'QUADRUPOLE', 'MULLIKEN_CHARGES')
f=open( 'psi4out.xyz', 'w' )
f.write( "24  " )
f.write( str(ee) + "\n" )
f.write( MOL.save_string_xyz() )
f.close()
--------------------------------------------------------------------------

    Molecular point group: c1
  Charge       = 0
  Multiplicity = 1
  Basis Set: CC-PVTZ
  Basis Set:
  @DF-RHF Final Energy:  -349.37398998065504
    Total Energy =                       -349.3739899806549261
    Molecular point group: c1
  Basis Set: CC-PVTZ
  Basis Set:
  Basis Set: CC-PVTZ
  Basis Set:
  @DF-RHF Final Energy:  -349.37425359375061
    Total Energy =                       -349.3742535937503249
  Basis Set: CC-PVTZ
  Basis Set:
  Basis Set: CC-PVTZ
  Basis Set:
  @DF-RHF Final Energy:  -349.37431602836762
    Total Energy =                       -349.3743160283675593
  Basis Set: CC-PVTZ
  Basis Set:
  Charge       = 0
  Multiplicity = 1
  Basis Set: CC-PVTZ
  Basis Set:

    Orbital Energies (a.u.)
    -----------------------

    Doubly Occupied:

       1A    -20.544723     2A    -11.264852     3A    -11.217358
       4A    -11.214801     5A    -11.213826     6A    -11.213379
       7A    -11.213150     8A    -11.207278     9A     -1.362191
      10A     -1.093494    11A     -1.050965    12A     -0.986432
      13A     -0.916566    14A     -0.853345    15A     -0.803988
      16A     -0.780229    17A     -0.689773    18A     -0.657732
      19A     -0.623777    20A     -0.615459    21A     -0.598614
      22A     -0.586664    23A     -0.558586    24A     -0.540350
      25A     -0.533697    26A     -0.508076    27A     -0.492726
      28A     -0.485850    29A     -0.474276    30A     -0.462431
      31A     -0.456942    32A     -0.443660    33A     -0.424488

  @DF-RHF Final Energy:  -349.37431660221381

   => Energetics <=

    Nuclear Repulsion Energy =            381.0796336269714288
    One-Electron Energy =               -1228.7285497321909133
    Two-Electron Energy =                 498.2745995030056747
    DFT Exchange-Correlation Energy =       0.0000000000000000
    Empirical Dispersion Energy =           0.0000000000000000
    PCM Polarization Energy =               0.0000000000000000
    EFP Energy =                            0.0000000000000000
    Total Energy =                       -349.3743166022138666
    Molecular point group: c1
  Basis Set: CC-PVTZ
  Basis Set:

  -Total Gradient:
     Atom            X                  Y                   Z
    ------   -----------------  -----------------  -----------------
       1        0.000011781482    -0.000027274920     0.000048814736
       2        0.000124510149    -0.000415243457    -0.000177492416
       3       -0.000152350432     0.000486098513     0.000285675610
       4        0.000049072980     0.000252530413    -0.000407759719
       5        0.000016229128     0.000020950000    -0.000037461493
       6        0.000007852157     0.000003472364     0.000024168389
       7       -0.000032310853    -0.000318213512     0.000257307384
       8       -0.000019587788     0.000016246083     0.000013259471
       9       -0.000010028328    -0.000003917177    -0.000011063368
      10        0.000005283284    -0.000020856155    -0.000013073968
      11       -0.000014434110    -0.000023029392     0.000015213450
      12       -0.000013048670    -0.000010410462     0.000015982642
      13        0.000005491997     0.000025919445    -0.000030830172
      14       -0.000020188912     0.000005030238     0.000005311705
      15        0.000030128473    -0.000003391902     0.000014283461
      16        0.000000202026     0.000013835099    -0.000004442252
      17        0.000011663084    -0.000011783473    -0.000014877420
      18       -0.000013940283     0.000005269784     0.000007692647
      19        0.000002177270    -0.000001594733    -0.000001957294
      20        0.000006465741     0.000003509215     0.000000859680
      21        0.000003222199    -0.000001179886     0.000004045505
      22        0.000000174924     0.000000447658     0.000000410374
      23       -0.000002393249     0.000000654259    -0.000000514457
      24        0.000004027732     0.000002931993     0.000006447507

  **** Optimization is complete! (in 4 steps) ****
    Final optimized geometry and variables:
    Molecular point group: c1

    Geometry (in Angstrom), charge = 0, multiplicity = 1:

    H           -2.455512467193    -0.016222475032    -3.127374548754
    O           -2.496766308279    -0.952268274371    -3.053398186996
    C           -2.236733739030    -1.340066883344    -1.729253370310
    C           -0.805812292059    -1.019422868595    -1.264191824295
    H           -2.413326846134    -2.405771426413    -1.704769962512
    H           -2.959638162318    -0.882404049765    -1.058739526415
    C           -0.742177670866    -0.080895577124    -0.061025896196
    H           -0.283817655654    -1.939748765031    -1.023057144676
    H           -0.270815343595    -0.582534068438    -2.100817097817
    C            0.682503173173     0.243990375640     0.378507045609
    H           -1.281288815120    -0.527287079009     0.771268310425
    H           -1.265511144088     0.843592322224    -0.297279085789
    C            0.737725716088     1.186308034950     1.579452858400
    H            1.198388288667    -0.682827731996     0.608810572693
    H            1.219916061799     0.693270052001    -0.453691478945
    C            2.146240119089     1.608084454650     2.001645903406
    H            0.236296468955     0.720309102685     2.424751701247
    H            0.166853787450     2.080871760190     1.345433461786
    C            3.015249797852     0.476600652736     2.545367574386
    H            2.059848686170     2.376489178952     2.763743660373
    H            2.648425794434     2.074449882653     1.158091544422
    H            2.534686946569    -0.013728719105     3.386023432304
    H            3.970537559089     0.857017106646     2.888538320198
    H            3.217108476636    -0.277343071418     1.794173213924

  Mulliken Charges: (a.u.)
   Center  Symbol    Alpha    Beta     Spin     Total
       1     H     0.39513  0.39513  0.00000  0.20973
       2     O     4.20174  4.20174  0.00000 -0.40347
       3     C     2.97236  2.97236  0.00000  0.05529
       4     C     3.10509  3.10509  0.00000 -0.21019
       5     H     0.45332  0.45332  0.00000  0.09335
       6     H     0.46984  0.46984  0.00000  0.06033
       7     C     3.09455  3.09455  0.00000 -0.18911
       8     H     0.45163  0.45163  0.00000  0.09674
       9     H     0.44875  0.44875  0.00000  0.10249
      10     C     3.09299  3.09299  0.00000 -0.18598
      11     H     0.45284  0.45284  0.00000  0.09433
      12     H     0.45661  0.45661  0.00000  0.08677
      13     C     3.09447  3.09447  0.00000 -0.18894
      14     H     0.45167  0.45167  0.00000  0.09666
      15     H     0.45404  0.45404  0.00000  0.09192
      16     C     3.09037  3.09037  0.00000 -0.18074
      17     H     0.45399  0.45399  0.00000  0.09203
      18     H     0.45014  0.45014  0.00000  0.09971
      19     C     3.15255  3.15255  0.00000 -0.30511
      20     H     0.44842  0.44842  0.00000  0.10317
      21     H     0.45477  0.45477  0.00000  0.09047
      22     H     0.45491  0.45491  0.00000  0.09019
      23     H     0.44624  0.44624  0.00000  0.10752
      24     H     0.45358  0.45358  0.00000  0.09283

   Total alpha = 33.00000, Total beta = 33.00000, Total charge = -0.00000

*** Psi4 exiting successfully. Buy a developer a beer!
