  ==> Input File <==

--------------------------------------------------------------------------
set {
	reference rhf
	basis 6-31G*
}

set_num_threads( 1 )
memory 2 gb

molecule MOL {
0 1

H	 -3.872278	 0.499661	 -0.907425
O	 -3.517110	 -0.026191	 -0.205115
C	 -2.306886	 0.532354	 0.237577
C	 -1.177863	 -0.397191	 -0.171080
H	 -2.156308	 1.517575	 -0.201710
H	 -2.315015	 0.655684	 1.319734
C	 0.198102	 0.111031	 0.262842
H	 -1.208843	 -0.518759	 -1.250427
H	 -1.368741	 -1.376554	 0.258909
C	 1.331804	 -0.827780	 -0.158768
H	 0.361943	 1.100838	 -0.156218
H	 0.217265	 0.229072	 1.345532
C	 2.723619	 -0.410569	 0.329459
H	 1.342964	 -0.912588	 -1.244120
H	 1.116806	 -1.824343	 0.220779
C	 3.243875	 0.895854	 -0.272975
H	 3.424222	 -1.207124	 0.091250
H	 2.714788	 -0.329854	 1.414619
H	 3.251977	 0.848779	 -1.358681
H	 2.637085	 1.747371	 0.016682
H	 4.259473	 1.094070	 0.055697

	symmetry c1
}
set optking {
	frozen_dihedral = ("
		2 3 4 8,
		8 4 7 10,
		4 7 10 14,
		16 13 10 14
	")
}

ee = energy('scf')
oeprop('DIPOLE', 'QUADRUPOLE', 'MULLIKEN_CHARGES')
f=open( 'psi4out.xyz', 'w' )
f.write( "21  " )
f.write( str(ee) + "\n" )
f.write( MOL.save_string_xyz() )
f.close()
--------------------------------------------------------------------------

    Molecular point group: c1

    Geometry (in Angstrom), charge = 0, multiplicity = 1:

       Center              X                  Y                   Z               Mass
    ------------   -----------------  -----------------  -----------------  -----------------
           H         -3.875872826941     0.500040834572    -0.898075656023     1.007825032070
           O         -3.520704826941    -0.025811165428    -0.195765656023    15.994914619560
           C         -2.310480826941     0.532733834572     0.246926343977    12.000000000000
           C         -1.181457826941    -0.396811165428    -0.161730656023    12.000000000000
           H         -2.159902826941     1.517954834572    -0.192360656023     1.007825032070
           H         -2.318609826941     0.656063834572     1.329083343977     1.007825032070
           C          0.194507173059     0.111410834572     0.272191343977    12.000000000000
           H         -1.212437826941    -0.518379165428    -1.241077656023     1.007825032070
           H         -1.372335826941    -1.376174165428     0.268258343977     1.007825032070
           C          1.328209173059    -0.827400165428    -0.149418656023    12.000000000000
           H          0.358348173059     1.101217834572    -0.146868656023     1.007825032070
           H          0.213670173059     0.229451834572     1.354881343977     1.007825032070
           C          2.720024173059    -0.410189165428     0.338808343977    12.000000000000
           H          1.339369173059    -0.912208165428    -1.234770656023     1.007825032070
           H          1.113211173059    -1.823963165428     0.230128343977     1.007825032070
           C          3.240280173059     0.896233834572    -0.263625656023    12.000000000000
           H          3.420627173059    -1.206744165428     0.100599343977     1.007825032070
           H          2.711193173059    -0.329474165428     1.423968343977     1.007825032070
           H          3.248382173059     0.849158834572    -1.349331656023     1.007825032070
           H          2.633490173059     1.747750834572     0.026031343977     1.007825032070
           H          4.255878173059     1.094449834572     0.065046343977     1.007825032070

  Charge       = 0
  Multiplicity = 1
  Basis Set: 6-31G*
  Basis Set:

    Orbital Energies (a.u.)
    -----------------------

    Doubly Occupied:

       1A    -20.551245     2A    -11.267784     3A    -11.215286
       4A    -11.215041     5A    -11.213716     6A    -11.208970
       7A    -11.208659     8A     -1.359258     9A     -1.086161
      10A     -1.032946    11A     -0.954292    12A     -0.876545
      13A     -0.810128    14A     -0.778824    15A     -0.700993
      16A     -0.648446    17A     -0.623415    18A     -0.602170
      19A     -0.592481    20A     -0.569538    21A     -0.541206
      22A     -0.520840    23A     -0.507930    24A     -0.490894
      25A     -0.473476    26A     -0.466041    27A     -0.459975
      28A     -0.455404    29A     -0.417869

  @DF-RHF Final Energy:  -310.21028317124365

   => Energetics <=

    Nuclear Repulsion Energy =            312.6975315741632357
    One-Electron Energy =               -1040.1165889337380577
    Two-Electron Energy =                 417.2087741883297554
    DFT Exchange-Correlation Energy =       0.0000000000000000
    Empirical Dispersion Energy =           0.0000000000000000
    PCM Polarization Energy =               0.0000000000000000
    EFP Energy =                            0.0000000000000000
    Total Energy =                       -310.2102831712450666

  Mulliken Charges: (a.u.)
   Center  Symbol    Alpha    Beta     Spin     Total
       1     H     0.27974  0.27974  0.00000  0.44053
       2     O     4.37170  4.37170  0.00000 -0.74339
       3     C     2.99579  2.99579  0.00000  0.00841
       4     C     3.15454  3.15454  0.00000 -0.30908
       5     H     0.43262  0.43262  0.00000  0.13476
       6     H     0.42184  0.42184  0.00000  0.15633
       7     C     3.16318  3.16318  0.00000 -0.32637
       8     H     0.42325  0.42325  0.00000  0.15349
       9     H     0.41458  0.41458  0.00000  0.17085
      10     C     3.15134  3.15134  0.00000 -0.30268
      11     H     0.42318  0.42318  0.00000  0.15364
      12     H     0.42352  0.42352  0.00000  0.15296
      13     C     3.15240  3.15240  0.00000 -0.30480
      14     H     0.42401  0.42401  0.00000  0.15197
      15     H     0.42086  0.42086  0.00000  0.15828
      16     C     3.24113  3.24113  0.00000 -0.48226
      17     H     0.42078  0.42078  0.00000  0.15844
      18     H     0.42329  0.42329  0.00000  0.15342
      19     H     0.42246  0.42246  0.00000  0.15509
      20     H     0.42068  0.42068  0.00000  0.15864
      21     H     0.41912  0.41912  0.00000  0.16176

   Total alpha = 29.00000, Total beta = 29.00000, Total charge = -0.00000
