  ==> Input File <==

--------------------------------------------------------------------------
set {
	reference rhf
	basis cc-pvtz
}

set_num_threads( 4 )
memory 2 gb

molecule MOL {
0 1

H	 2.462485	 -2.216993	 0.000000
O	 2.777472	 -1.330706	 0.000000
C	 1.763288	 -0.447523	 0.000000
C	 1.800181	 0.569590	 -0.942995
C	 0.713935	 -0.524713	 0.890651
H	 2.625297	 0.611109	 -1.626087
C	 0.789640	 1.502284	 -0.990343
H	 0.659953	 -1.298312	 1.628165
C	 -0.282653	 0.428051	 0.814345
H	 0.826564	 2.284790	 -1.722511
C	 -0.274900	 1.445694	 -0.106320
N	 -1.396408	 0.339710	 1.765421
H	 -1.066232	 2.162558	 -0.131258
O	 -1.378503	 -0.549372	 2.550461
O	 -2.246617	 1.161021	 1.692692

	symmetry c1
}
set optking {
	frozen_dihedral = ("
		4 3 2 1
	")
}

ee = optimize('scf')
oeprop('DIPOLE', 'QUADRUPOLE', 'MULLIKEN_CHARGES')
f=open( 'psi4out.xyz', 'w' )
f.write( "15  " )
f.write( str(ee) + "\n" )
f.write( MOL.save_string_xyz() )
f.close()
--------------------------------------------------------------------------

    Molecular point group: c1
  Charge       = 0
  Multiplicity = 1
  Basis Set: CC-PVTZ
  Basis Set:
  @DF-RHF Final Energy:  -509.21612510101977
    Total Energy =                       -509.2161251010199976
    Molecular point group: c1
  Basis Set: CC-PVTZ
  Basis Set:
  Basis Set: CC-PVTZ
  Basis Set:
  @DF-RHF Final Energy:  -509.21622876103208
    Total Energy =                       -509.2162287610317435
  Basis Set: CC-PVTZ
  Basis Set:
  Basis Set: CC-PVTZ
  Basis Set:
  @DF-RHF Final Energy:  -509.21573843136184
    Total Energy =                       -509.2157384313617285
  Basis Set: CC-PVTZ
  Basis Set:
  Basis Set: CC-PVTZ
  Basis Set:
  @DF-RHF Final Energy:  -509.21633522285759
    Total Energy =                       -509.2163352228582198
  Basis Set: CC-PVTZ
  Basis Set:
  Basis Set: CC-PVTZ
  Basis Set:
  @DF-RHF Final Energy:  -509.21630054174102
    Total Energy =                       -509.2163005417409067
  Basis Set: CC-PVTZ
  Basis Set:
  Basis Set: CC-PVTZ
  Basis Set:
  @DF-RHF Final Energy:  -509.21639195326702
    Total Energy =                       -509.2163919532671343
  Basis Set: CC-PVTZ
  Basis Set:
  Charge       = 0
  Multiplicity = 1
  Basis Set: CC-PVTZ
  Basis Set:

    Orbital Energies (a.u.)
    -----------------------

    Doubly Occupied:

       1A    -20.599609     2A    -20.594695     3A    -20.594356
       4A    -15.850508     5A    -11.322401     6A    -11.308199
       7A    -11.263985     8A    -11.263197     9A    -11.261771
      10A    -11.258757    11A     -1.644117    12A     -1.429979
      13A     -1.426525    14A     -1.202961    15A     -1.095433
      16A     -1.048245    17A     -0.965857    18A     -0.875836
      19A     -0.833148    20A     -0.795985    21A     -0.749399
      22A     -0.743434    23A     -0.728608    24A     -0.710291
      25A     -0.680124    26A     -0.642200    27A     -0.629415
      28A     -0.574510    29A     -0.557520    30A     -0.541333
      31A     -0.518427    32A     -0.494773    33A     -0.491072
      34A     -0.460133    35A     -0.379993    36A     -0.354983

  @DF-RHF Final Energy:  -509.21639263883958

   => Energetics <=

    Nuclear Repulsion Energy =            504.3195180756420086
    One-Electron Energy =               -1695.2882652304542717
    Two-Electron Energy =                 681.7523545159726837
    DFT Exchange-Correlation Energy =       0.0000000000000000
    Empirical Dispersion Energy =           0.0000000000000000
    PCM Polarization Energy =               0.0000000000000000
    EFP Energy =                            0.0000000000000000
    Total Energy =                       -509.2163926388395794
    Molecular point group: c1
  Basis Set: CC-PVTZ
  Basis Set:

  -Total Gradient:
     Atom            X                  Y                   Z
    ------   -----------------  -----------------  -----------------
       1        0.000050196918    -0.000047142338    -0.002560609313
       2       -0.000442829425    -0.000547732107     0.002600855438
       3        0.001210110500     0.001631404561     0.001318151234
       4       -0.000983372161    -0.000934162514    -0.001261849515
       5        0.000157730380    -0.000099492648    -0.000074347606
       6        0.000006469188    -0.000008994941     0.000007910921
       7        0.000140500268    -0.000090038278    -0.000108896024
       8       -0.000003830256     0.000006072537     0.000013571197
       9       -0.000091654193     0.000143793109    -0.000101041818
      10       -0.000013427316     0.000005686376     0.000006955934
      11       -0.000049191178    -0.000057676342     0.000196647457
      12       -0.000022033798    -0.000023017030     0.000005509246
      13        0.000000480373     0.000002777430    -0.000016441470
      14        0.000038878505    -0.000009189533    -0.000010860676
      15        0.000001972195     0.000027711714    -0.000015554999

  **** Optimization is complete! (in 7 steps) ****
    Final optimized geometry and variables:
    Molecular point group: c1

    Geometry (in Angstrom), charge = 0, multiplicity = 1:

    H            2.273799657988    -2.439191826099    -0.599229179833
    O            2.592788581989    -1.553889981754    -0.602904099746
    C            1.569965741503    -0.663979832627    -0.632253515446
    C            1.603131006230     0.348694082064    -1.574776071058
    C            0.524806394465    -0.741917980992     0.264419327364
    H            2.423946737145     0.386717816337    -2.263293906922
    C            0.597032673522     1.291756354039    -1.613312258977
    H            0.487711795539    -1.511635952707     1.005920898266
    C           -0.473449372158     0.206717675408     0.190421126034
    H            0.631669338185     2.076012644339    -2.343583815595
    C           -0.462378572809     1.230432802941    -0.727943299470
    N           -1.587963723627     0.117809649948     1.139416593445
    H           -1.253369623023     1.948152244662    -0.747791378178
    O           -1.586452707952    -0.788081170556     1.904623260953
    O           -2.423810796989     0.955668702113     1.083582529346

  Mulliken Charges: (a.u.)
   Center  Symbol    Alpha    Beta     Spin     Total
       1     H     0.38241  0.38241  0.00000  0.23519
       2     O     4.18087  4.18087  0.00000 -0.36173
       3     C     2.86012  2.86012  0.00000  0.27976
       4     C     3.09649  3.09649  0.00000 -0.19299
       5     C     3.12227  3.12227  0.00000 -0.24455
       6     H     0.41072  0.41072  0.00000  0.17856
       7     C     3.06184  3.06184  0.00000 -0.12367
       8     H     0.39763  0.39763  0.00000  0.20473
       9     C     2.98085  2.98085  0.00000  0.03830
      10     H     0.41548  0.41548  0.00000  0.16904
      11     C     3.08960  3.08960  0.00000 -0.17920
      12     N     3.25000  3.25000  0.00000  0.50000
      13     H     0.39904  0.39904  0.00000  0.20193
      14     O     4.17730  4.17730  0.00000 -0.35461
      15     O     4.17538  4.17538  0.00000 -0.35075

   Total alpha = 36.00000, Total beta = 36.00000, Total charge = -0.00000
