                              Psi4 1.0.54 Driver

  ==> Input File <==

--------------------------------------------------------------------------
set {
	reference rhf
	basis cc-pvtz
}

set_num_threads( 4 )
memory 2 gb

molecule MOL {
0 1

H	 -0.497530	 -1.633399	 0.150027
N	 -0.625934	 -0.663929	 -0.000707
C	 -1.968505	 -0.173022	 -0.204689
C	 0.468494	 0.129045	 -0.002160
H	 -2.420425	 -0.630030	 -1.076985
H	 -1.921113	 0.892024	 -0.354775
H	 -2.592302	 -0.377852	 0.657262
C	 1.785715	 -0.615093	 0.000603
O	 0.413285	 1.323206	 0.000532
H	 1.866994	 -1.243310	 -0.878792
H	 2.591506	 0.100263	 0.006422
H	 1.860358	 -1.250360	 0.875522

	symmetry c1
}
set optking {
	frozen_dihedral = ("
		3 2 4 9
	")
}

ee,wfn = optimize('scf', return_wfn=True)
oeprop( wfn, 'DIPOLE', 'QUADRUPOLE', 'MULLIKEN_CHARGES')
f=open( 'psi4out.xyz', 'w' )
f.write( "12  " )
f.write( str(ee) + "\n" )
f.write( MOL.save_string_xyz() )
f.close()
--------------------------------------------------------------------------

    Molecular point group: c1
  Charge       = 0
  Multiplicity = 1
  Basis Set: CC-PVTZ
  Basis Set:
  @DF-RHF Final Energy:  -247.09991303127092
    Total Energy =                       -247.0999130312709440
    Molecular point group: c1
  Basis Set: CC-PVTZ
  Basis Set:
  Basis Set: CC-PVTZ
  Basis Set:
  @DF-RHF Final Energy:  -247.10028821248869
    Total Energy =                       -247.1002882124886355
  Basis Set: CC-PVTZ
  Basis Set:
  Basis Set: CC-PVTZ
  Basis Set:
  @DF-RHF Final Energy:  -247.10046906675015
    Total Energy =                       -247.1004690667503496
  Basis Set: CC-PVTZ
  Basis Set:
  Basis Set: CC-PVTZ
  Basis Set:
  @DF-RHF Final Energy:  -247.10070720805717
    Total Energy =                       -247.1007072080569742
  Basis Set: CC-PVTZ
  Basis Set:
  @DF-RHF Final Energy:  -247.10072978129119
    Total Energy =                       -247.1007297812911929
  @DF-RHF Final Energy:  -247.10078569185640
    Total Energy =                       -247.1007856918564585
  @DF-RHF Final Energy:  -247.10094236282163
    Total Energy =                       -247.1009423628219110
  @DF-RHF Final Energy:  -247.10103785978680
    Total Energy =                       -247.1010378597869703
  @DF-RHF Final Energy:  -247.10119272761048
    Total Energy =                       -247.1011927276104529
  @DF-RHF Final Energy:  -247.10128335949636
    Total Energy =                       -247.1012833594963922
  @DF-RHF Final Energy:  -247.10129155887793
    Total Energy =                       -247.1012915588780743
  Basis Set: CC-PVTZ
  Basis Set:
  @DF-RHF Final Energy:  -247.10131934548744
    Total Energy =                       -247.1013193454872976
  Basis Set: CC-PVTZ
  Basis Set:
  Basis Set: CC-PVTZ
  Basis Set:
  @DF-RHF Final Energy:  -247.10131224668532
    Total Energy =                       -247.1013122466853247
  Basis Set: CC-PVTZ
  Basis Set:
  Basis Set: CC-PVTZ
  Basis Set:
  @DF-RHF Final Energy:  -247.10132391479075
    Total Energy =                       -247.1013239147908394
  Basis Set: CC-PVTZ
  Basis Set:
  Charge       = 0
  Multiplicity = 1
  Basis Set: CC-PVTZ
  Basis Set:

    Orbital Energies (a.u.)
    -----------------------

    Doubly Occupied:

       1A    -20.506692     2A    -15.576023     3A    -11.335860
       4A    -11.253783     5A    -11.228731     6A     -1.389169
       7A     -1.231306     8A     -1.016299     9A     -0.933426
      10A     -0.788372    11A     -0.690825    12A     -0.651943
      13A     -0.636047    14A     -0.586303    15A     -0.582895
      16A     -0.556006    17A     -0.547716    18A     -0.506508
      19A     -0.418224    20A     -0.392032

  @DF-RHF Final Energy:  -247.10132401877823

   => Energetics <=

    Nuclear Repulsion Energy =            181.8754534191621417
    One-Electron Energy =                -696.2972323456298227
    Two-Electron Energy =                 267.3204549076895091
    DFT Exchange-Correlation Energy =       0.0000000000000000
    Empirical Dispersion Energy =           0.0000000000000000
    PCM Polarization Energy =               0.0000000000000000
    EFP Energy =                            0.0000000000000000
    Total Energy =                       -247.1013240187782003
    Molecular point group: c1
  Basis Set: CC-PVTZ
  Basis Set:

  -Total Gradient:
     Atom            X                  Y                   Z
    ------   -----------------  -----------------  -----------------
       1       -0.000001687103     0.000009287028     0.000002079000
       2       -0.000041638555     0.001319146918     0.001942774792
       3        0.000062654568    -0.000671616944    -0.000881524752
       4       -0.000077981989    -0.001293023803    -0.002251058030
       5        0.000001626267     0.000006010344    -0.000001004296
       6       -0.000008961915     0.000007891552    -0.000000744919
       7       -0.000006452407    -0.000003061550    -0.000002101434
       8        0.000002819857     0.000001523763    -0.000002102512
       9        0.000074684183     0.000633737111     0.001199670943
      10        0.000004009724    -0.000011749300     0.000003089950
      11       -0.000001330843    -0.000001722529    -0.000007083999
      12       -0.000007741786     0.000003577413    -0.000001994745

  **** Optimization is complete! (in 15 steps) ****
    Final optimized geometry and variables:
    Molecular point group: c1

    Geometry (in Angstrom), charge = 0, multiplicity = 1:

    H           -0.488048351602    -1.474705952163     0.751545972883
    N           -0.620282681434    -0.557044802032     0.406372503602
    C           -1.959784400933    -0.155138739926     0.039979731314
    C            0.464010092713     0.113794017260    -0.042491445620
    H           -2.162359487055    -0.326551186760    -1.010975376274
    H           -2.095321408637     0.895883450470     0.242260052953
    H           -2.666955412818    -0.719765045913     0.631237689917
    C            1.798629553968    -0.544061955372     0.224306684669
    O            0.379805237492     1.161550322387    -0.611731849697
    H            2.086953856282    -1.109155243552    -0.654650129381
    H            2.538125266550     0.224338988236     0.388726033811
    H            1.772200114548    -1.214578922615     1.073327514151

  Mulliken Charges: (a.u.)
   Center  Symbol    Alpha    Beta     Spin     Total
       1     H     0.41367  0.41367  0.00000  0.17266
       2     N     3.61359  3.61359  0.00000 -0.22718
       3     C     3.07817  3.07817  0.00000 -0.15633
       4     C     2.84096  2.84096  0.00000  0.31808
       5     H     0.45675  0.45675  0.00000  0.08651
       6     H     0.44018  0.44018  0.00000  0.11965
       7     H     0.45511  0.45511  0.00000  0.08978
       8     C     3.14754  3.14754  0.00000 -0.29508
       9     O     4.21703  4.21703  0.00000 -0.43405
      10     H     0.44484  0.44484  0.00000  0.11031
      11     H     0.43579  0.43579  0.00000  0.12843
      12     H     0.45638  0.45638  0.00000  0.08723

   Total alpha = 20.00000, Total beta = 20.00000, Total charge =  0.00000

*** Psi4 exiting successfully. Buy a developer a beer!
