  ==> Input File <==

--------------------------------------------------------------------------
set {
	reference rhf
	basis 6-31G*
}

set_num_threads( 1 )
memory 2 gb

molecule MOL {
0 1

H	 -3.085996	 1.046588	 -1.410460
C	 -2.441548	 1.528896	 -2.155905
C	 -1.459778	 2.527986	 -1.598627
O	 -2.547963	 1.251498	 -3.306329
C	 -0.617569	 1.949525	 -0.453060
H	 -0.836764	 2.884835	 -2.410551
H	 -2.039004	 3.372126	 -1.226365
C	 0.339954	 0.841438	 -0.898696
H	 -0.049284	 2.757559	 -0.002042
H	 -1.278097	 1.572519	 0.326252
C	 1.180775	 0.282413	 0.250794
H	 0.997163	 1.229553	 -1.674124
H	 -0.222109	 0.030944	 -1.358832
C	 2.148627	 -0.814315	 -0.201312
H	 1.731669	 1.097697	 0.712919
H	 0.520406	 -0.116078	 1.019886
C	 3.580890	 -0.659131	 0.322722
H	 2.166869	 -0.852443	 -1.289387
H	 1.762857	 -1.776509	 0.128956
C	 4.324889	 0.564933	 -0.213704
H	 4.142010	 -1.551473	 0.056605
H	 3.564836	 -0.624694	 1.410140
H	 4.342616	 0.565491	 -1.300421
H	 3.866655	 1.493402	 0.110242
H	 5.353900	 0.572371	 0.132816

	symmetry c1
}
set optking {
	frozen_dihedral = ("
		6 3 5 8,
		6 3 2 4,
		3 5 8 12,
		12 8 11 14,
		20 17 14 18
	")
}

ee = energy('scf')
oeprop('DIPOLE', 'QUADRUPOLE', 'MULLIKEN_CHARGES')
f=open( 'psi4out.xyz', 'w' )
f.write( "25  " )
f.write( str(ee) + "\n" )
f.write( MOL.save_string_xyz() )
f.close()
--------------------------------------------------------------------------

    Molecular point group: c1

    Geometry (in Angstrom), charge = 0, multiplicity = 1:

       Center              X                  Y                   Z               Mass
    ------------   -----------------  -----------------  -----------------  -----------------
           H         -3.593504088633     0.215555346032    -0.480978461781     1.007825032070
           C         -2.949056088633     0.697863346032    -1.226423461781    12.000000000000
           C         -1.967286088633     1.696953346032    -0.669145461781    12.000000000000
           O         -3.055471088633     0.420465346032    -2.376847461781    15.994914619560
           C         -1.125077088633     1.118492346032     0.476421538219    12.000000000000
           H         -1.344272088633     2.053802346032    -1.481069461781     1.007825032070
           H         -2.546512088633     2.541093346032    -0.296883461781     1.007825032070
           C         -0.167554088633     0.010405346032     0.030785538219    12.000000000000
           H         -0.556792088633     1.926526346032     0.927439538219     1.007825032070
           H         -1.785605088633     0.741486346032     1.255733538219     1.007825032070
           C          0.673266911367    -0.548619653968     1.180275538219    12.000000000000
           H          0.489654911367     0.398520346032    -0.744642461781     1.007825032070
           H         -0.729617088633    -0.800088653968    -0.429350461781     1.007825032070
           C          1.641118911367    -1.645347653968     0.728169538219    12.000000000000
           H          1.224160911367     0.266664346032     1.642400538219     1.007825032070
           H          0.012897911367    -0.947110653968     1.949367538219     1.007825032070
           C          3.073381911367    -1.490163653968     1.252203538219    12.000000000000
           H          1.659360911367    -1.683475653968    -0.359905461781     1.007825032070
           H          1.255348911367    -2.607541653968     1.058437538219     1.007825032070
           C          3.817380911367    -0.266099653968     0.715777538219    12.000000000000
           H          3.634501911367    -2.382505653968     0.986086538219     1.007825032070
           H          3.057327911367    -1.455726653968     2.339621538219     1.007825032070
           H          3.835107911367    -0.265541653968    -0.370939461781     1.007825032070
           H          3.359146911367     0.662369346032     1.039723538219     1.007825032070
           H          4.846391911367    -0.258661653968     1.062297538219     1.007825032070

  Charge       = 0
  Multiplicity = 1
  Basis Set: 6-31G*
  Basis Set:

    Orbital Energies (a.u.)
    -----------------------

    Doubly Occupied:

       1A    -20.561865     2A    -11.325994     3A    -11.234887
       4A    -11.234305     5A    -11.223978     6A    -11.218484
       7A    -11.218154     8A    -11.215567     9A    -11.211169
      10A     -1.401858    11A     -1.104058    12A     -1.069598
      13A     -1.012690    14A     -0.943112    15A     -0.875197
      16A     -0.820499    17A     -0.788088    18A     -0.781394
      19A     -0.664197    20A     -0.661439    21A     -0.630945
      22A     -0.626797    23A     -0.605934    24A     -0.592289
      25A     -0.573181    26A     -0.551964    27A     -0.535593
      28A     -0.522371    29A     -0.511612    30A     -0.495351
      31A     -0.489795    32A     -0.482847    33A     -0.462488
      34A     -0.455261    35A     -0.440313    36A     -0.409422

  @DF-RHF Final Energy:  -387.11702076032691

   => Energetics <=

    Nuclear Repulsion Energy =            442.8482428785553111
    One-Electron Energy =               -1402.0250116235292808
    Two-Electron Energy =                 572.0597479846462647
    DFT Exchange-Correlation Energy =       0.0000000000000000
    Empirical Dispersion Energy =           0.0000000000000000
    PCM Polarization Energy =               0.0000000000000000
    EFP Energy =                            0.0000000000000000
    Total Energy =                       -387.1170207603277049

  Mulliken Charges: (a.u.)
   Center  Symbol    Alpha    Beta     Spin     Total
       1     H     0.43262  0.43262  0.00000  0.13475
       2     C     2.83083  2.83083  0.00000  0.33834
       3     C     3.20809  3.20809  0.00000 -0.41618
       4     O     4.23782  4.23782  0.00000 -0.47564
       5     C     3.16701  3.16701  0.00000 -0.33401
       6     H     0.39981  0.39981  0.00000  0.20038
       7     H     0.40678  0.40678  0.00000  0.18643
       8     C     3.15775  3.15775  0.00000 -0.31550
       9     H     0.41295  0.41295  0.00000  0.17410
      10     H     0.41969  0.41969  0.00000  0.16063
      11     C     3.15524  3.15524  0.00000 -0.31048
      12     H     0.41745  0.41745  0.00000  0.16511
      13     H     0.41776  0.41776  0.00000  0.16449
      14     C     3.15628  3.15628  0.00000 -0.31257
      15     H     0.42030  0.42030  0.00000  0.15940
      16     H     0.42076  0.42076  0.00000  0.15848
      17     C     3.15408  3.15408  0.00000 -0.30817
      18     H     0.41975  0.41975  0.00000  0.16050
      19     H     0.41910  0.41910  0.00000  0.16179
      20     C     3.24095  3.24095  0.00000 -0.48190
      21     H     0.42062  0.42062  0.00000  0.15877
      22     H     0.42313  0.42313  0.00000  0.15373
      23     H     0.42137  0.42137  0.00000  0.15725
      24     H     0.42163  0.42163  0.00000  0.15675
      25     H     0.41822  0.41822  0.00000  0.16355

   Total alpha = 36.00000, Total beta = 36.00000, Total charge =  0.00000
