  ==> Input File <==

--------------------------------------------------------------------------
set {
	reference rhf
	basis 6-31G*
}

set_num_threads( 4 )
memory 2 gb

molecule MOL {
0 1

H	 -2.461835	 2.123991	 1.335410
O	 -1.773723	 1.531514	 1.068245
C	 -2.306886	 0.532354	 0.237577
C	 -1.177863	 -0.397191	 -0.171080
H	 -3.080592	 -0.028120	 0.760602
H	 -2.765153	 0.973416	 -0.646615
C	 0.198102	 0.111031	 0.262842
H	 -1.208843	 -0.518759	 -1.250427
H	 -1.368741	 -1.376554	 0.258909
C	 1.331804	 -0.827780	 -0.158768
H	 0.361943	 1.100838	 -0.156218
H	 0.217265	 0.229072	 1.345532
C	 2.723619	 -0.410569	 0.329459
H	 1.342964	 -0.912588	 -1.244120
H	 1.116806	 -1.824343	 0.220779
C	 3.243875	 0.895854	 -0.272975
H	 3.424222	 -1.207124	 0.091250
H	 2.714788	 -0.329854	 1.414619
H	 3.251977	 0.848779	 -1.358681
H	 2.637085	 1.747371	 0.016682
H	 4.259473	 1.094070	 0.055697

	symmetry c1
}
set optking {
	frozen_dihedral = ("
		2 3 4 8
	")
}

ee = optimize('scf')
oeprop('DIPOLE', 'QUADRUPOLE', 'MULLIKEN_CHARGES')
f=open( 'psi4out.xyz', 'w' )
f.write( "21  " )
f.write( str(ee) + "\n" )
f.write( MOL.save_string_xyz() )
f.close()
--------------------------------------------------------------------------

    Molecular point group: c1
  Charge       = 0
  Multiplicity = 1
  Basis Set: 6-31G*
  Basis Set:
  @DF-RHF Final Energy:  -310.20279664515368
    Total Energy =                       -310.2027966451536258
    Molecular point group: c1
  Basis Set: 6-31G*
  Basis Set:
  Basis Set: 6-31G*
  Basis Set:
  @DF-RHF Final Energy:  -310.20317700212109
    Total Energy =                       -310.2031770021212083
  Basis Set: 6-31G*
  Basis Set:
  Basis Set: 6-31G*
  Basis Set:
  @DF-RHF Final Energy:  -310.20466796701265
    Total Energy =                       -310.2046679670124263
  Basis Set: 6-31G*
  Basis Set:
  Basis Set: 6-31G*
  Basis Set:
  @DF-RHF Final Energy:  -310.20472436767375
    Total Energy =                       -310.2047243676738049
  Basis Set: 6-31G*
  Basis Set:
  Basis Set: 6-31G*
  Basis Set:
  @DF-RHF Final Energy:  -310.20473039487257
    Total Energy =                       -310.2047303948725130
  Basis Set: 6-31G*
  Basis Set:
  Charge       = 0
  Multiplicity = 1
  Basis Set: 6-31G*
  Basis Set:

    Orbital Energies (a.u.)
    -----------------------

    Doubly Occupied:

       1A    -20.552428     2A    -11.268897     3A    -11.212944
       4A    -11.208984     5A    -11.206496     6A    -11.202354
       7A    -11.202013     8A     -1.359235     9A     -1.077346
      10A     -1.025037    11A     -0.950322    12A     -0.875010
      13A     -0.799454    14A     -0.771068    15A     -0.694549
      16A     -0.656018    17A     -0.615538    18A     -0.602634
      19A     -0.583158    20A     -0.562646    21A     -0.531101
      22A     -0.520743    23A     -0.495053    24A     -0.491779
      25A     -0.481053    26A     -0.455988    27A     -0.448399
      28A     -0.434857    29A     -0.423031

  @DF-RHF Final Energy:  -310.20473044809842

   => Energetics <=

    Nuclear Repulsion Energy =            318.2196234117261611
    One-Electron Energy =               -1051.4324284608228481
    Two-Electron Energy =                 423.0080746009981567
    DFT Exchange-Correlation Energy =       0.0000000000000000
    Empirical Dispersion Energy =           0.0000000000000000
    PCM Polarization Energy =               0.0000000000000000
    EFP Energy =                            0.0000000000000000
    Total Energy =                       -310.2047304480985304
    Molecular point group: c1
  Basis Set: 6-31G*
  Basis Set:

  -Total Gradient:
     Atom            X                  Y                   Z
    ------   -----------------  -----------------  -----------------
       1       -0.000004757411    -0.000002215248    -0.000009846769
       2        0.000397031740     0.001168485371    -0.001764496892
       3       -0.000206845682    -0.001119892366     0.002219871805
       4       -0.001795420899    -0.002254043268    -0.000219655274
       5       -0.000008810662     0.000030664892     0.000025982085
       6        0.000000251685     0.000038307188     0.000030781687
       7       -0.000046806998    -0.000010108824    -0.000049905317
       8        0.001679103576     0.002164832672    -0.000237100981
       9       -0.000003260259    -0.000006534223     0.000005113243
      10        0.000008082782    -0.000015488745    -0.000001545498
      11       -0.000029960258     0.000017359105     0.000012198376
      12       -0.000012139676    -0.000027391605    -0.000020191604
      13       -0.000011799964     0.000021573722     0.000014714066
      14       -0.000021366972     0.000025066495     0.000005684621
      15        0.000027216131    -0.000022990370    -0.000013703367
      16        0.000017585926    -0.000000626599    -0.000003886765
      17       -0.000004551256    -0.000009860346     0.000014117607
      18       -0.000005763861     0.000017068940     0.000001463383
      19       -0.000006068916     0.000004283737    -0.000006063749
      20        0.000025412503    -0.000010346680     0.000004467637
      21        0.000002868467    -0.000008143849    -0.000007998296

  **** Optimization is complete! (in 6 steps) ****
    Final optimized geometry and variables:
    Molecular point group: c1

    Geometry (in Angstrom), charge = 0, multiplicity = 1:

    H           -2.905246315898     1.869037453436     1.105567932660
    O           -2.166318890375     1.321607608703     0.881624391111
    C           -2.599627084773     0.288320847577     0.031904186053
    C           -1.423499780580    -0.636417333543    -0.344764893188
    H           -3.384466003712    -0.288582971024     0.515196357097
    H           -3.029432941185     0.718667166301    -0.869893713899
    C           -0.041008955145    -0.129979114159     0.081301373256
    H           -1.414919621191    -0.761521284929    -1.424265464682
    H           -1.583904364433    -1.622393374224     0.081704153071
    C            1.072008914086    -1.079449974593    -0.370866485049
    H            0.118404348216     0.860725663806    -0.329257411237
    H           -0.009744192740    -0.019569431469     1.160073792528
    C            2.475730367631    -0.683634321564     0.101932889630
    H            1.069569052549    -1.152989350451    -1.457811572848
    H            0.854462859353    -2.079646580901    -0.000269638634
    C            3.001860262157     0.622731895013    -0.495401852038
    H            3.164613445305    -1.485746800877    -0.152533592781
    H            2.481444275664    -0.611866448930     1.187592033969
    H            2.994577761411     0.585586743395    -1.581681727374
    H            2.407480056995     1.476831942789    -0.189253010996
    H            4.024223735029     0.806940403932    -0.179238454511

  Mulliken Charges: (a.u.)
   Center  Symbol    Alpha    Beta     Spin     Total
       1     H     0.28053  0.28053  0.00000  0.43894
       2     O     4.37144  4.37144  0.00000 -0.74287
       3     C     2.99057  2.99057  0.00000  0.01886
       4     C     3.17619  3.17619  0.00000 -0.35238
       5     H     0.42975  0.42975  0.00000  0.14051
       6     H     0.43074  0.43074  0.00000  0.13853
       7     C     3.14584  3.14584  0.00000 -0.29167
       8     H     0.42047  0.42047  0.00000  0.15906
       9     H     0.41952  0.41952  0.00000  0.16096
      10     C     3.15420  3.15420  0.00000 -0.30841
      11     H     0.41502  0.41502  0.00000  0.16997
      12     H     0.41364  0.41364  0.00000  0.17272
      13     C     3.15135  3.15135  0.00000 -0.30270
      14     H     0.42680  0.42680  0.00000  0.14639
      15     H     0.42467  0.42467  0.00000  0.15065
      16     C     3.24130  3.24130  0.00000 -0.48259
      17     H     0.42282  0.42282  0.00000  0.15436
      18     H     0.42309  0.42309  0.00000  0.15383
      19     H     0.42364  0.42364  0.00000  0.15272
      20     H     0.41776  0.41776  0.00000  0.16448
      21     H     0.42067  0.42067  0.00000  0.15866

   Total alpha = 29.00000, Total beta = 29.00000, Total charge =  0.00000
