  ==> Input File <==

--------------------------------------------------------------------------
set {
	reference rhf
	basis 6-31G*
}

set_num_threads( 4 )
memory 2 gb

molecule MOL {
0 1

H	 2.845955	 -0.323208	 0.022310
C	 1.900140	 0.071967	 -0.330070
C	 0.778463	 -0.508087	 0.517968
H	 1.782469	 -0.206877	 -1.370777
H	 1.922247	 1.149867	 -0.254252
N	 -0.540928	 0.005139	 0.058438
H	 0.716718	 -1.581298	 0.454712
H	 0.859711	 -0.198647	 1.550086
O	 -1.489834	 -0.700444	 0.203365
O	 -0.556735	 1.096064	 -0.425435

	symmetry c1
}
set optking {
	frozen_dihedral = ("
		9 6 3 2
	")
}

ee = optimize('scf')
oeprop('DIPOLE', 'QUADRUPOLE', 'MULLIKEN_CHARGES')
f=open( 'psi4out.xyz', 'w' )
f.write( "10  " )
f.write( str(ee) + "\n" )
f.write( MOL.save_string_xyz() )
f.close()
--------------------------------------------------------------------------

    Molecular point group: c1
  Charge       = 0
  Multiplicity = 1
  Basis Set: 6-31G*
  Basis Set:
  @DF-RHF Final Energy:  -282.69985152259648
    Total Energy =                       -282.6998515225964184
    Molecular point group: c1
  Basis Set: 6-31G*
  Basis Set:
  Basis Set: 6-31G*
  Basis Set:
  @DF-RHF Final Energy:  -282.69550612027086
    Total Energy =                       -282.6955061202710340
  Basis Set: 6-31G*
  Basis Set:
  Basis Set: 6-31G*
  Basis Set:
  @DF-RHF Final Energy:  -282.69955827165631
    Total Energy =                       -282.6995582716563149
  Basis Set: 6-31G*
  Basis Set:
  Basis Set: 6-31G*
  Basis Set:
  @DF-RHF Final Energy:  -282.70040946349997
    Total Energy =                       -282.7004094635000797
  Basis Set: 6-31G*
  Basis Set:
  Basis Set: 6-31G*
  Basis Set:
  @DF-RHF Final Energy:  -282.70041994954408
    Total Energy =                       -282.7004199495439707
  Basis Set: 6-31G*
  Basis Set:
  Charge       = 0
  Multiplicity = 1
  Basis Set: 6-31G*
  Basis Set:

    Orbital Energies (a.u.)
    -----------------------

    Doubly Occupied:

       1A    -20.603259     2A    -20.602237     3A    -15.849788
       4A    -11.304841     5A    -11.247604     6A     -1.633191
       7A     -1.418682     8A     -1.125958     9A     -0.967426
      10A     -0.834544    11A     -0.761530    12A     -0.744952
      13A     -0.726861    14A     -0.644320    15A     -0.592685
      16A     -0.564244    17A     -0.540213    18A     -0.486651
      19A     -0.478371    20A     -0.450784

  @DF-RHF Final Energy:  -282.70042187344711

   => Energetics <=

    Nuclear Repulsion Energy =            186.0842248430814436
    One-Electron Energy =                -754.4130121669987830
    Two-Electron Energy =                 285.6283654504700280
    DFT Exchange-Correlation Energy =       0.0000000000000000
    Empirical Dispersion Energy =           0.0000000000000000
    PCM Polarization Energy =               0.0000000000000000
    EFP Energy =                            0.0000000000000000
    Total Energy =                       -282.7004218734473397
    Molecular point group: c1
  Basis Set: 6-31G*
  Basis Set:

  -Total Gradient:
     Atom            X                  Y                   Z
    ------   -----------------  -----------------  -----------------
       1        0.000017636396     0.000000132183    -0.000002120230
       2        0.000040332233     0.000074369847     0.000049336340
       3       -0.000031794245    -0.000048844365    -0.000084532793
       4       -0.000001297912     0.000006008000     0.000010492886
       5       -0.000003014211    -0.000026279279    -0.000005722067
       6       -0.000136463052    -0.000032816067    -0.000054150330
       7       -0.000027710984    -0.000014607596     0.000004809056
       8       -0.000024919353     0.000003468571    -0.000005253370
       9        0.000080033537    -0.000050372218     0.000124114542
      10        0.000087197596     0.000088940928    -0.000036974034

  **** Optimization is complete! (in 6 steps) ****
    Final optimized geometry and variables:
    Molecular point group: c1

    Geometry (in Angstrom), charge = 0, multiplicity = 1:

    H            2.857693757703    -0.348870272311     0.027893826572
    C            1.925975740651     0.068779768362    -0.337215923593
    C            0.788455443428    -0.491539764068     0.494945040820
    H            1.817522183376    -0.202167484818    -1.380400980371
    H            1.973562614775     1.145327048428    -0.262879574545
    N           -0.544701460118     0.007300535559     0.050753321030
    H            0.717185635497    -1.565859185344     0.451569114032
    H            0.857234667094    -0.189138634515     1.531947861110
    O           -1.471557203301    -0.723232512032     0.218718114022
    O           -0.606179739727     1.107147103940    -0.404681144500

  Mulliken Charges: (a.u.)
   Center  Symbol    Alpha    Beta     Spin     Total
       1     H     0.40869  0.40869  0.00000  0.18261
       2     C     3.25281  3.25281  0.00000 -0.50563
       3     C     3.09543  3.09543  0.00000 -0.19085
       4     H     0.40374  0.40374  0.00000  0.19253
       5     H     0.39420  0.39420  0.00000  0.21160
       6     N     3.21911  3.21911  0.00000  0.56177
       7     H     0.38496  0.38496  0.00000  0.23008
       8     H     0.38465  0.38465  0.00000  0.23070
       9     O     4.22811  4.22811  0.00000 -0.45623
      10     O     4.22829  4.22829  0.00000 -0.45658

   Total alpha = 20.00000, Total beta = 20.00000, Total charge =  0.00000
