  ==> Input File <==

--------------------------------------------------------------------------
set {
	reference rhf
	basis 6-31G*
}

set_num_threads( 4 )
memory 2 gb

molecule MOL {
0 1

O	 2.617943	 0.431530	 -1.172728
C	 2.701189	 0.057885	 -0.047330
C	 2.105429	 0.748211	 1.155711
O	 3.347903	 -1.046386	 0.304773
C	 1.339046	 2.020060	 0.799100
H	 1.476463	 0.022199	 1.660190
H	 2.920825	 0.962287	 1.842005
C	 0.817599	 2.788652	 2.018056
H	 0.512228	 1.768141	 0.141811
H	 1.992086	 2.667345	 0.223789
C	 -0.262098	 2.062394	 2.825469
H	 0.412970	 3.736476	 1.670740
H	 1.651157	 3.038690	 2.672786
C	 -0.827105	 2.913867	 3.964223
H	 -1.072076	 1.770907	 2.158544
H	 0.137774	 1.140471	 3.241562
C	 -1.903173	 2.196382	 4.781183
H	 -1.241671	 3.833327	 3.554390
H	 -0.016034	 3.214625	 4.625590
C	 -2.464904	 3.054871	 5.913948
H	 -2.713966	 1.894259	 4.121654
H	 -1.489416	 1.279253	 5.195260
H	 -3.224855	 2.519141	 6.474373
H	 -2.917539	 3.964378	 5.529092
H	 -1.683382	 3.345087	 6.610563
C	 4.728119	 -1.109107	 -0.004993
H	 4.882018	 -1.033965	 -1.071845
H	 5.068212	 -2.067527	 0.355250
H	 5.265056	 -0.311663	 0.488280

	symmetry c1
}
set optking {
	frozen_dihedral = ("
		1 2 4 26
	")
}

ee = optimize('scf')
oeprop('DIPOLE', 'QUADRUPOLE', 'MULLIKEN_CHARGES')
f=open( 'psi4out.xyz', 'w' )
f.write( "29  " )
f.write( str(ee) + "\n" )
f.write( MOL.save_string_xyz() )
f.close()
--------------------------------------------------------------------------

    Molecular point group: c1
  Charge       = 0
  Multiplicity = 1
  Basis Set: 6-31G*
  Basis Set:
  @DF-RHF Final Energy:  -501.02902871952460
    Total Energy =                       -501.0290287195241490
    Molecular point group: c1
  Basis Set: 6-31G*
  Basis Set:
  Basis Set: 6-31G*
  Basis Set:
  @DF-RHF Final Energy:  -501.02673155735010
    Total Energy =                       -501.0267315573501037
  Basis Set: 6-31G*
  Basis Set:
  Basis Set: 6-31G*
  Basis Set:
  @DF-RHF Final Energy:  -501.02992811657418
    Total Energy =                       -501.0299281165745242
  Basis Set: 6-31G*
  Basis Set:
  Basis Set: 6-31G*
  Basis Set:
  @DF-RHF Final Energy:  -501.03002629473656
    Total Energy =                       -501.0300262947368992
  Basis Set: 6-31G*
  Basis Set:
  Basis Set: 6-31G*
  Basis Set:
  @DF-RHF Final Energy:  -501.03003103883373
    Total Energy =                       -501.0300310388340677
  Basis Set: 6-31G*
  Basis Set:
  Charge       = 0
  Multiplicity = 1
  Basis Set: 6-31G*
  Basis Set:

    Orbital Energies (a.u.)
    -----------------------

    Doubly Occupied:

       1A    -20.589243     2A    -20.553509     3A    -11.374165
       4A    -11.287052     5A    -11.236547     6A    -11.220266
       7A    -11.218739     8A    -11.216584     9A    -11.216195
      10A    -11.214986    11A    -11.209368    12A     -1.460497
      13A     -1.365064    14A     -1.098687    15A     -1.066684
      16A     -1.017016    17A     -0.975644    18A     -0.932760
      19A     -0.864037    20A     -0.800736    21A     -0.791391
      22A     -0.761806    23A     -0.699657    24A     -0.675991
      25A     -0.673040    26A     -0.650961    27A     -0.627106
      28A     -0.613210    29A     -0.596457    30A     -0.586790
      31A     -0.564653    32A     -0.555257    33A     -0.534837
      34A     -0.529937    35A     -0.518851    36A     -0.505985
      37A     -0.493826    38A     -0.479671    39A     -0.472403
      40A     -0.463504    41A     -0.462578    42A     -0.450754
      43A     -0.441952    44A     -0.432171

  @DF-RHF Final Energy:  -501.03003108497785

   => Energetics <=

    Nuclear Repulsion Energy =            609.9027682374934329
    One-Electron Energy =               -1890.8644596925480528
    Two-Electron Energy =                 779.9316603700765427
    DFT Exchange-Correlation Energy =       0.0000000000000000
    Empirical Dispersion Energy =           0.0000000000000000
    PCM Polarization Energy =               0.0000000000000000
    EFP Energy =                            0.0000000000000000
    Total Energy =                       -501.0300310849781908
    Molecular point group: c1
  Basis Set: 6-31G*
  Basis Set:

  -Total Gradient:
     Atom            X                  Y                   Z
    ------   -----------------  -----------------  -----------------
       1       -0.007628635132    -0.004210763040    -0.000612562205
       2        0.012144919300     0.007528895287     0.003787466604
       3        0.000066798843    -0.000011325144    -0.000038694552
       4       -0.006469720659    -0.006103427046    -0.009148881590
       5       -0.000036049177    -0.000016417663     0.000021675521
       6        0.000011219463    -0.000003445500    -0.000031561187
       7       -0.000013752669    -0.000014348659     0.000007276322
       8        0.000027634790    -0.000002109009     0.000013993859
       9       -0.000000059052    -0.000013582930     0.000017699044
      10       -0.000017312749     0.000021111155    -0.000005094414
      11       -0.000021933492     0.000011711909    -0.000005070434
      12        0.000014393613     0.000006402606    -0.000003837138
      13        0.000007205127    -0.000015065950     0.000004012233
      14       -0.000004448150     0.000004048112    -0.000007551827
      15       -0.000014839057    -0.000005805852    -0.000003424130
      16       -0.000017562306     0.000027699928     0.000010795475
      17        0.000000943949    -0.000001662185    -0.000000250294
      18       -0.000004258053    -0.000004374252    -0.000000352062
      19        0.000000578380     0.000004727875    -0.000003188995
      20        0.000005633188    -0.000001834031     0.000004366999
      21       -0.000000108651     0.000003531496    -0.000000529710
      22       -0.000001719419    -0.000002831873    -0.000001033575
      23        0.000001483153    -0.000000701004     0.000000863943
      24       -0.000000258351    -0.000001809762    -0.000001147649
      25       -0.000000389803     0.000001960680     0.000000658394
      26        0.001942705918     0.002816324323     0.005980844974
      27        0.000000878172    -0.000012069082     0.000012245378
      28        0.000017733437    -0.000000881498    -0.000008788986
      29       -0.000011080620    -0.000003958890     0.000010070005

  **** Optimization is complete! (in 6 steps) ****
    Final optimized geometry and variables:
    Molecular point group: c1

    Geometry (in Angstrom), charge = 0, multiplicity = 1:

    O            1.508948609091    -0.806919415314    -3.004423512613
    C            1.609735949667    -1.156979251463    -1.877853178590
    C            0.995448938664    -0.461552875950    -0.689220893405
    O            2.216074915773    -2.307993093932    -1.528755423232
    C            0.187798031002     0.780458134435    -1.057513294218
    H            0.395349104885    -1.202602943632    -0.171059897392
    H            1.806682132382    -0.214294331568    -0.006877728957
    C           -0.351343237897     1.550060850707     0.153119163748
    H           -0.634009268819     0.492245661890    -1.706164768177
    H            0.816380411255     1.440070578232    -1.646297990375
    C           -1.409456023818     0.805079784793     0.971970529524
    H           -0.781917486617     2.482350003931    -0.204793593523
    H            0.476640586230     1.830560302028     0.802714741086
    C           -1.993675538531     1.654679762721     2.102406224439
    H           -2.213086767551     0.484625623051     0.310804195505
    H           -0.984456596069    -0.101148351023     1.397496168908
    C           -3.047131812279     0.918110540448     2.931750395462
    H           -2.434452045467     2.557484612345     1.683030872852
    H           -1.188959612966     1.985414680598     2.757245149170
    C           -3.627183480892     1.774145855151     4.057112233990
    H           -3.852039827146     0.587101167058     2.278973115436
    H           -2.607548106581     0.017035811474     3.354344753705
    H           -4.370181846677     1.224616259690     4.626803082060
    H           -4.105683529383     2.666686043022     3.663927231667
    H           -2.850992163840     2.093216356176     4.747056788334
    C            3.575321394939    -2.453691459287    -1.890845797644
    H            3.708938760700    -2.310258174279    -2.953889393064
    H            3.859887771514    -3.457798654660    -1.617361135348
    H            4.188130506450    -1.745375588226    -1.344225426978

  Mulliken Charges: (a.u.)
   Center  Symbol    Alpha    Beta     Spin     Total
       1     O     4.26421  4.26421  0.00000 -0.52842
       2     C     2.60730  2.60730  0.00000  0.78540
       3     C     3.21303  3.21303  0.00000 -0.42605
       4     O     4.31546  4.31546  0.00000 -0.63092
       5     C     3.15447  3.15447  0.00000 -0.30893
       6     H     0.39606  0.39606  0.00000  0.20789
       7     H     0.40651  0.40651  0.00000  0.18697
       8     C     3.15646  3.15646  0.00000 -0.31292
       9     H     0.41205  0.41205  0.00000  0.17591
      10     H     0.40961  0.40961  0.00000  0.18078
      11     C     3.15503  3.15503  0.00000 -0.31005
      12     H     0.41805  0.41805  0.00000  0.16390
      13     H     0.42446  0.42446  0.00000  0.15109
      14     C     3.15033  3.15033  0.00000 -0.30065
      15     H     0.42207  0.42207  0.00000  0.15587
      16     H     0.42357  0.42357  0.00000  0.15285
      17     C     3.15150  3.15150  0.00000 -0.30300
      18     H     0.42326  0.42326  0.00000  0.15349
      19     H     0.42423  0.42423  0.00000  0.15154
      20     C     3.23937  3.23937  0.00000 -0.47874
      21     H     0.42254  0.42254  0.00000  0.15493
      22     H     0.42337  0.42337  0.00000  0.15327
      23     H     0.41910  0.41910  0.00000  0.16181
      24     H     0.42152  0.42152  0.00000  0.15696
      25     H     0.42195  0.42195  0.00000  0.15610
      26     C     3.09471  3.09471  0.00000 -0.18942
      27     H     0.40399  0.40399  0.00000  0.19201
      28     H     0.40518  0.40518  0.00000  0.18964
      29     H     0.42065  0.42065  0.00000  0.15870

   Total alpha = 44.00000, Total beta = 44.00000, Total charge = -0.00000
