                              Psi4 1.0.54 Driver

  ==> Input File <==

--------------------------------------------------------------------------
set {
	reference rhf
	basis cc-pvtz
}

set_num_threads( 4 )
memory 2 gb

molecule MOL {
0 1

H	 3.721907	 -0.933076	 -0.066039
O	 2.824271	 -1.154299	 0.131461
C	 2.076458	 -0.067370	 -0.038225
C	 0.626018	 -0.337582	 0.258241
O	 2.538288	 0.965419	 -0.381593
C	 -0.267326	 0.883135	 0.076490
H	 0.325620	 -1.161483	 -0.378003
H	 0.574537	 -0.713685	 1.275261
C	 -1.726822	 0.642622	 0.463839
H	 -0.210803	 1.217591	 -0.953497
H	 0.129920	 1.693110	 0.675679
C	 -2.454110	 -0.409490	 -0.371716
H	 -2.258811	 1.584801	 0.371427
H	 -1.782375	 0.367902	 1.514977
C	 -3.930987	 -0.530721	 -0.010310
H	 -2.360754	 -0.155563	 -1.424256
H	 -1.981606	 -1.378698	 -0.247893
H	 -4.423505	 -1.280984	 -0.617940
H	 -4.449066	 0.410267	 -0.161419
H	 -4.057119	 -0.812725	 1.029747

	symmetry c1
}
set optking {
	frozen_dihedral = ("
		12 9 6 10
	")
}

ee,wfn = optimize('scf', return_wfn=True)
oeprop( wfn, 'DIPOLE', 'QUADRUPOLE', 'MULLIKEN_CHARGES')
f=open( 'psi4out.xyz', 'w' )
f.write( "20  " )
f.write( str(ee) + "\n" )
f.write( MOL.save_string_xyz() )
f.close()
--------------------------------------------------------------------------

    Molecular point group: c1
  Charge       = 0
  Multiplicity = 1
  Basis Set: CC-PVTZ
  Basis Set:
  @DF-RHF Final Energy:  -384.09496175447583
    Total Energy =                       -384.0949617544754915
    Molecular point group: c1
  Basis Set: CC-PVTZ
  Basis Set:
  Basis Set: CC-PVTZ
  Basis Set:
  @DF-RHF Final Energy:  -384.09495970186032
    Total Energy =                       -384.0949597018603754
  Basis Set: CC-PVTZ
  Basis Set:
  Basis Set: CC-PVTZ
  Basis Set:
  @DF-RHF Final Energy:  -384.09495015749337
    Total Energy =                       -384.0949501574937699
  Basis Set: CC-PVTZ
  Basis Set:
  Basis Set: CC-PVTZ
  Basis Set:
  @DF-RHF Final Energy:  -384.09497796858290
    Total Energy =                       -384.0949779685826684
  Basis Set: CC-PVTZ
  Basis Set:
  Charge       = 0
  Multiplicity = 1
  Basis Set: CC-PVTZ
  Basis Set:

    Orbital Energies (a.u.)
    -----------------------

    Doubly Occupied:

       1A    -20.603860     2A    -20.540484     3A    -11.373430
       4A    -11.238697     5A    -11.220982     6A    -11.218807
       7A    -11.218192     8A    -11.210593     9A     -1.477453
      10A     -1.368956    11A     -1.097606    12A     -1.042175
      13A     -0.962667    14A     -0.870431    15A     -0.818502
      16A     -0.777086    17A     -0.703692    18A     -0.692964
      19A     -0.666954    20A     -0.637587    21A     -0.604265
      22A     -0.596621    23A     -0.577415    24A     -0.556880
      25A     -0.540978    26A     -0.514416    27A     -0.495999
      28A     -0.484517    29A     -0.471367    30A     -0.468008
      31A     -0.458288    32A     -0.446543

  @DF-RHF Final Energy:  -384.09497846343498

   => Energetics <=

    Nuclear Repulsion Energy =            376.7349943188291377
    One-Electron Energy =               -1269.7471121878090798
    Two-Electron Energy =                 508.9171394055448445
    DFT Exchange-Correlation Energy =       0.0000000000000000
    Empirical Dispersion Energy =           0.0000000000000000
    PCM Polarization Energy =               0.0000000000000000
    EFP Energy =                            0.0000000000000000
    Total Energy =                       -384.0949784634350408
    Molecular point group: c1
  Basis Set: CC-PVTZ
  Basis Set:

  -Total Gradient:
     Atom            X                  Y                   Z
    ------   -----------------  -----------------  -----------------
       1       -0.000007705060     0.000007361527     0.000000385993
       2       -0.000007425315    -0.000003349598     0.000010946255
       3       -0.000011519112    -0.000030501828    -0.000034076958
       4        0.000001638745    -0.000022475650    -0.000005537027
       5        0.000009314070     0.000028785423     0.000008257307
       6        0.000122885176    -0.000965179240    -0.000124738840
       7        0.000001382559    -0.000005648041     0.000002157088
       8       -0.000006533443     0.000009692842     0.000001958093
       9       -0.000231506443     0.000691782565    -0.000434612369
      10       -0.000047014745     0.000672366908     0.000229158419
      11        0.000001044412    -0.000003257972    -0.000000806770
      12        0.000165267377    -0.000407851933     0.000350823603
      13       -0.000006452412     0.000000167038    -0.000005698180
      14        0.000004779367    -0.000001100431    -0.000004385911
      15       -0.000003972126     0.000024978251    -0.000003971539
      16        0.000009550177     0.000003615630     0.000007649254
      17        0.000015564842     0.000000606950     0.000003604901
      18        0.000000244692     0.000004758107    -0.000005738997
      19       -0.000011251113     0.000000741131     0.000008171957
      20        0.000001708353    -0.000005491675    -0.000003546278

  **** Optimization is complete! (in 5 steps) ****
    Final optimized geometry and variables:
    Molecular point group: c1

    Geometry (in Angstrom), charge = 0, multiplicity = 1:

    H            3.725600552184    -0.896406212591    -0.091126684814
    O            2.828764450895    -1.126516677816     0.099779081937
    C            2.074142583202    -0.042336879996    -0.057187880355
    C            0.624476500095    -0.327396961868     0.229357215325
    O            2.529878872799     0.998531755407    -0.384064279829
    C           -0.276156730016     0.889655863562     0.062267316250
    H            0.332770268618    -1.143582870761    -0.420640094985
    H            0.571395217531    -0.719392910203     1.240364073179
    C           -1.732035829529     0.644452380904     0.459935379573
    H           -0.228424191110     1.235668463585    -0.964426749270
    H            0.121404329656     1.697526831739     0.664357782150
    C           -2.469883362271    -0.397906394920    -0.378647363560
    H           -2.263134855252     1.588801079751     0.387175455401
    H           -1.775887993107     0.354752962508     1.507691478395
    C           -3.946003813408    -0.510936923042    -0.011099895387
    H           -2.379672672583    -0.140053902763    -1.430723341826
    H           -2.003404537882    -1.370642710294    -0.260977792492
    H           -4.445311682853    -1.258174000416    -0.616923115472
    H           -4.459566177121     0.432947001098    -0.159446716159
    H           -4.069247359013    -0.792794984818     1.029373125956

  Mulliken Charges: (a.u.)
   Center  Symbol    Alpha    Beta     Spin     Total
       1     H     0.38235  0.38235  0.00000  0.23531
       2     O     4.16021  4.16021  0.00000 -0.32042
       3     C     2.80377  2.80377  0.00000  0.39247
       4     C     3.11260  3.11260  0.00000 -0.22521
       5     O     4.19115  4.19115  0.00000 -0.38230
       6     C     3.09283  3.09283  0.00000 -0.18565
       7     H     0.43667  0.43667  0.00000  0.12666
       8     H     0.43757  0.43757  0.00000  0.12485
       9     C     3.09894  3.09894  0.00000 -0.19788
      10     H     0.44541  0.44541  0.00000  0.10918
      11     H     0.43941  0.43941  0.00000  0.12117
      12     C     3.08787  3.08787  0.00000 -0.17573
      13     H     0.44568  0.44568  0.00000  0.10865
      14     H     0.45366  0.45366  0.00000  0.09268
      15     C     3.14960  3.14960  0.00000 -0.29919
      16     H     0.45249  0.45249  0.00000  0.09503
      17     H     0.45372  0.45372  0.00000  0.09257
      18     H     0.44773  0.44773  0.00000  0.10454
      19     H     0.45354  0.45354  0.00000  0.09292
      20     H     0.45482  0.45482  0.00000  0.09036

   Total alpha = 32.00000, Total beta = 32.00000, Total charge =  0.00000

*** Psi4 exiting successfully. Buy a developer a beer!
