  ==> Input File <==

--------------------------------------------------------------------------
set {
	reference rhf
	basis cc-pvtz
}

set_num_threads( 4 )
memory 2 gb

molecule MOL {
0 1

H	 -0.000105	 1.988529	 0.748933
O	 -0.000098	 1.879786	 -0.188206
C	 -0.000014	 0.545691	 -0.532416
C	 1.286017	 0.193750	 -1.282109
C	 -1.285999	 0.193585	 -1.282108
H	 0.000022	 -0.032476	 0.379934
F	 2.317751	 0.448474	 -0.515623
F	 1.336630	 -1.070726	 -1.617148
F	 1.414457	 0.913164	 -2.376331
F	 -2.317766	 0.448159	 -0.515619
F	 -1.336440	 -1.070895	 -1.617163
F	 -1.414538	 0.912994	 -2.376323

	symmetry c1
}
set optking {
	frozen_dihedral = ("
		6 3 2 1
	")
}

ee = optimize('scf')
oeprop('DIPOLE', 'QUADRUPOLE', 'MULLIKEN_CHARGES')
f=open( 'psi4out.xyz', 'w' )
f.write( "12  " )
f.write( str(ee) + "\n" )
f.write( MOL.save_string_xyz() )
f.close()
--------------------------------------------------------------------------

    Molecular point group: c1
  Charge       = 0
  Multiplicity = 1
  Basis Set: CC-PVTZ
  Basis Set:
  @DF-RHF Final Energy:  -786.58564107949019
    Total Energy =                       -786.5856410794907561
    Molecular point group: c1
  Basis Set: CC-PVTZ
  Basis Set:
  Basis Set: CC-PVTZ
  Basis Set:
  @DF-RHF Final Energy:  -786.58702558326593
    Total Energy =                       -786.5870255832653584
  Basis Set: CC-PVTZ
  Basis Set:
  Basis Set: CC-PVTZ
  Basis Set:
  @DF-RHF Final Energy:  -786.58729937650980
    Total Energy =                       -786.5872993765095771
  Basis Set: CC-PVTZ
  Basis Set:
  Basis Set: CC-PVTZ
  Basis Set:
  @DF-RHF Final Energy:  -786.58732298523262
    Total Energy =                       -786.5873229852325039
  Basis Set: CC-PVTZ
  Basis Set:
  Basis Set: CC-PVTZ
  Basis Set:
  @DF-RHF Final Energy:  -786.58732702391671
    Total Energy =                       -786.5873270239164867
  Basis Set: CC-PVTZ
  Basis Set:
  Charge       = 0
  Multiplicity = 1
  Basis Set: CC-PVTZ
  Basis Set:

    Orbital Energies (a.u.)
    -----------------------

    Doubly Occupied:

       1A    -26.351463     2A    -26.351460     3A    -26.350079
       4A    -26.350078     5A    -26.348729     6A    -26.348727
       7A    -20.609460     8A    -11.514595     9A    -11.514586
      10A    -11.351869    11A     -1.765794    12A     -1.760463
      13A     -1.660408    14A     -1.658062    15A     -1.655948
      16A     -1.655769    17A     -1.439118    18A     -1.103318
      19A     -0.996534    20A     -0.938929    21A     -0.865773
      22A     -0.862187    23A     -0.857008    24A     -0.845610
      25A     -0.834900    26A     -0.785792    27A     -0.771770
      28A     -0.732025    29A     -0.725368    30A     -0.724211
      31A     -0.719410    32A     -0.684999    33A     -0.680237
      34A     -0.673779    35A     -0.672247    36A     -0.662481
      37A     -0.657434    38A     -0.624281    39A     -0.622121
      40A     -0.560963    41A     -0.508636

  @DF-RHF Final Energy:  -786.58732759080772

   => Energetics <=

    Nuclear Repulsion Energy =            670.0702727107520786
    One-Electron Energy =               -2427.7219630227409652
    Two-Electron Energy =                 971.0643627211818512
    DFT Exchange-Correlation Energy =       0.0000000000000000
    Empirical Dispersion Energy =           0.0000000000000000
    PCM Polarization Energy =               0.0000000000000000
    EFP Energy =                            0.0000000000000000
    Total Energy =                       -786.5873275908070354
    Molecular point group: c1
  Basis Set: CC-PVTZ
  Basis Set:

  -Total Gradient:
     Atom            X                  Y                   Z
    ------   -----------------  -----------------  -----------------
       1       -0.000000000943     0.000024258560     0.000014444428
       2       -0.000000018254    -0.000012804161     0.000033775357
       3       -0.000000006277     0.000070916378    -0.000000348875
       4       -0.000029450320     0.000092313166    -0.000136562833
       5        0.000029459452     0.000092286055    -0.000136586678
       6       -0.000000002560     0.000010617663    -0.000022998441
       7        0.000030710740    -0.000006810427     0.000051162999
       8       -0.000020953347    -0.000097717216    -0.000003367310
       9       -0.000012442919    -0.000034283246     0.000076321325
      10       -0.000030720572    -0.000006769458     0.000051172467
      11        0.000020977432    -0.000097719910    -0.000003374902
      12        0.000012447557    -0.000034287395     0.000076362467

  **** Optimization is complete! (in 6 steps) ****
    Final optimized geometry and variables:
    Molecular point group: c1

    Geometry (in Angstrom), charge = 0, multiplicity = 1:

    H           -0.000108551455     1.671962700732     1.975139554603
    O           -0.000100334703     1.537983712469     1.045751930291
    C           -0.000012471721     0.194275300879     0.728112468559
    C            1.285966850828    -0.122266459212    -0.034904534612
    C           -1.285950846468    -0.122434650765    -0.034903680200
    H            0.000029692725    -0.446270204505     1.600803523916
    F            2.312846712248     0.149752737831     0.739054558386
    F            1.354486869880    -1.393897648206    -0.352659026713
    F            1.406841030881     0.580470991555    -1.129362008494
    F           -2.312865775735     0.149451722535     0.739055586139
    F           -1.354305439097    -1.394075041078    -0.352656937712
    F           -1.406916973591     0.580286049271    -1.129361725692

  Mulliken Charges: (a.u.)
   Center  Symbol    Alpha    Beta     Spin     Total
       1     H     0.38040  0.38040  0.00000  0.23920
       2     O     4.18725  4.18725  0.00000 -0.37450
       3     C     3.00202  3.00202  0.00000 -0.00404
       4     C     2.67889  2.67889  0.00000  0.64223
       5     C     2.67889  2.67889  0.00000  0.64223
       6     H     0.44473  0.44473  0.00000  0.11055
       7     F     4.60784  4.60784  0.00000 -0.21568
       8     F     4.60539  4.60539  0.00000 -0.21077
       9     F     4.60069  4.60069  0.00000 -0.20138
      10     F     4.60784  4.60784  0.00000 -0.21568
      11     F     4.60539  4.60539  0.00000 -0.21077
      12     F     4.60069  4.60069  0.00000 -0.20138

   Total alpha = 41.00000, Total beta = 41.00000, Total charge = -0.00000
