  ==> Input File <==

--------------------------------------------------------------------------
set {
	reference rhf
	basis 6-31G*
}

set_num_threads( 4 )
memory 2 gb

molecule MOL {
0 1

H	 -2.818242	 0.284198	 -0.704052
O	 -2.315789	 -0.143634	 -0.024262
C	 -0.945151	 -0.064130	 -0.333158
H	 -0.813375	 -0.223047	 -1.403232
C	 -0.232801	 -1.184051	 0.407206
C	 -0.355424	 1.302939	 0.054523
H	 -0.318824	 -0.992899	 1.473524
H	 -0.742411	 -2.122033	 0.217954
C	 1.248522	 -1.270719	 -0.013048
H	 -0.546144	 2.018388	 -0.742941
H	 -0.890929	 1.656788	 0.930149
C	 1.156425	 1.235120	 0.355905
H	 1.825384	 -1.683246	 0.809111
H	 1.357782	 -1.965923	 -0.840362
C	 1.828244	 0.099899	 -0.419275
H	 1.626109	 2.185622	 0.123525
H	 1.309438	 1.071213	 1.419539
H	 2.901447	 0.112642	 -0.255830
H	 1.681817	 0.263413	 -1.484607

	symmetry c1
}
set optking {
	frozen_dihedral = ("
		1 2 3 4
	")
}

ee = optimize('scf')
oeprop('DIPOLE', 'QUADRUPOLE', 'MULLIKEN_CHARGES')
f=open( 'psi4out.xyz', 'w' )
f.write( "19  " )
f.write( str(ee) + "\n" )
f.write( MOL.save_string_xyz() )
f.close()
--------------------------------------------------------------------------

    Molecular point group: c1
  Charge       = 0
  Multiplicity = 1
  Basis Set: 6-31G*
  Basis Set:
  @DF-RHF Final Energy:  -309.04792793340209
    Total Energy =                       -309.0479279334018656
    Molecular point group: c1
  Basis Set: 6-31G*
  Basis Set:
  Basis Set: 6-31G*
  Basis Set:
  @DF-RHF Final Energy:  -309.04796303519339
    Total Energy =                       -309.0479630351936748
  Basis Set: 6-31G*
  Basis Set:
  Charge       = 0
  Multiplicity = 1
  Basis Set: 6-31G*
  Basis Set:

    Orbital Energies (a.u.)
    -----------------------

    Doubly Occupied:

       1A    -20.549708     2A    -11.269489     3A    -11.215734
       4A    -11.215284     5A    -11.214896     6A    -11.210174
       7A    -11.208173     8A     -1.358479     9A     -1.107630
      10A     -1.000682    11A     -0.987794    12A     -0.841723
      13A     -0.834178    14A     -0.731482    15A     -0.704304
      16A     -0.658191    17A     -0.626819    18A     -0.589277
      19A     -0.570527    20A     -0.544349    21A     -0.533202
      22A     -0.517309    23A     -0.497172    24A     -0.487686
      25A     -0.460505    26A     -0.448645    27A     -0.429964
      28A     -0.408492

  @DF-RHF Final Energy:  -309.04797713787218

   => Energetics <=

    Nuclear Repulsion Energy =            331.1978402913684931
    One-Electron Energy =               -1076.0479028804331847
    Two-Electron Energy =                 435.8020854511921698
    DFT Exchange-Correlation Energy =       0.0000000000000000
    Empirical Dispersion Energy =           0.0000000000000000
    PCM Polarization Energy =               0.0000000000000000
    EFP Energy =                            0.0000000000000000
    Total Energy =                       -309.0479771378725218
    Molecular point group: c1
  Basis Set: 6-31G*
  Basis Set:

  -Total Gradient:
     Atom            X                  Y                   Z
    ------   -----------------  -----------------  -----------------
       1       -0.000088202992    -0.001468840800    -0.000781755784
       2        0.000182360684     0.002201418893     0.000943980683
       3        0.000012197427    -0.002101105598     0.000046215560
       4       -0.000051321842     0.001413830522    -0.000233951138
       5        0.000088419009    -0.000117978519     0.000018818846
       6       -0.000120982102    -0.000064114988    -0.000017386540
       7        0.000006715978     0.000014641079    -0.000003973710
       8       -0.000014283990     0.000001885453    -0.000001790682
       9       -0.000037014827    -0.000008169581     0.000014393470
      10        0.000023630585     0.000009448642     0.000044393763
      11        0.000031165888     0.000041579682    -0.000002545560
      12        0.000069012807     0.000016056697    -0.000021828247
      13       -0.000038008155    -0.000015987351    -0.000002375141
      14       -0.000029995167    -0.000023593381     0.000000662934
      15       -0.000011409451     0.000038159623     0.000000885935
      16       -0.000000101053     0.000018078724    -0.000002100851
      17       -0.000024985211    -0.000001225644    -0.000011173723
      18       -0.000004843492     0.000045009453     0.000011750509
      19        0.000007645908     0.000000907095    -0.000002220325

  **** Optimization is complete! (in 3 steps) ****
    Final optimized geometry and variables:
    Molecular point group: c1

    Geometry (in Angstrom), charge = 0, multiplicity = 1:

    H           -2.820936698418     0.305578998664    -0.688089197977
    O           -2.317689141160    -0.131586010859    -0.016377878194
    C           -0.945978808990    -0.065865652693    -0.331949916401
    H           -0.819693480524    -0.218550645413    -1.403092517245
    C           -0.230731926159    -1.186216201036     0.405757777549
    C           -0.355864493306     1.302505616140     0.052352176200
    H           -0.320347253955    -0.998210504741     1.472430180611
    H           -0.737751902731    -2.124907776610     0.213100308032
    C            1.252591466121    -1.268316860331    -0.008860962890
    H           -0.546311581514     2.015510183831    -0.746914739577
    H           -0.895988208717     1.657807073011     0.923636104798
    C            1.155207775222     1.236859882978     0.357389202268
    H            1.828002043539    -1.677177932375     0.816161818165
    H            1.366760344445    -1.965338094799    -0.834104617295
    C            1.830077077201     0.102881131553    -0.416410722100
    H            1.624656803773     2.188048147602     0.126747134913
    H            1.306594256506     1.072529505012     1.421308596634
    H            2.903289401995     0.117272115575    -0.253036527415
    H            1.683578233872     0.264982143639    -1.482118590622

  Mulliken Charges: (a.u.)
   Center  Symbol    Alpha    Beta     Spin     Total
       1     H     0.28191  0.28191  0.00000  0.43618
       2     O     4.37838  4.37838  0.00000 -0.75676
       3     C     2.91227  2.91227  0.00000  0.17547
       4     H     0.43042  0.43042  0.00000  0.13917
       5     C     3.16601  3.16601  0.00000 -0.33201
       6     C     3.16900  3.16900  0.00000 -0.33800
       7     H     0.41587  0.41587  0.00000  0.16826
       8     H     0.41033  0.41033  0.00000  0.17934
       9     C     3.16079  3.16079  0.00000 -0.32158
      10     H     0.42493  0.42493  0.00000  0.15014
      11     H     0.41002  0.41002  0.00000  0.17997
      12     C     3.16373  3.16373  0.00000 -0.32747
      13     H     0.41783  0.41783  0.00000  0.16434
      14     H     0.41905  0.41905  0.00000  0.16190
      15     C     3.16400  3.16400  0.00000 -0.32800
      16     H     0.41722  0.41722  0.00000  0.16556
      17     H     0.41897  0.41897  0.00000  0.16206
      18     H     0.41665  0.41665  0.00000  0.16669
      19     H     0.42262  0.42262  0.00000  0.15475

   Total alpha = 28.00000, Total beta = 28.00000, Total charge =  0.00000
