  ==> Input File <==

--------------------------------------------------------------------------
set {
	reference rhf
	basis cc-pvtz
}

set_num_threads( 4 )
memory 2 gb

molecule MOL {
0 1

H	 -0.132050	 -0.688587	 0.856353
N	 -0.625934	 -0.663929	 -0.000707
C	 -1.978635	 -0.158664	 0.001017
C	 0.006257	 -1.104676	 -1.110959
H	 -2.519057	 -0.493535	 -0.876362
H	 -1.938890	 0.917202	 -0.004137
H	 -2.514266	 -0.485137	 0.884506
C	 1.421975	 -1.585893	 -0.880756
O	 -0.499410	 -1.112782	 -2.194153
H	 1.431142	 -2.412561	 -0.179947
H	 1.839221	 -1.907528	 -1.820716
H	 2.030814	 -0.789425	 -0.468965

	symmetry c1
}
set optking {
	frozen_dihedral = ("
		4 2 3 5
	")
}

ee = optimize('scf')
oeprop('DIPOLE', 'QUADRUPOLE', 'MULLIKEN_CHARGES')
f=open( 'psi4out.xyz', 'w' )
f.write( "12  " )
f.write( str(ee) + "\n" )
f.write( MOL.save_string_xyz() )
f.close()
--------------------------------------------------------------------------

    Molecular point group: c1
  Charge       = 0
  Multiplicity = 1
  Basis Set: CC-PVTZ
  Basis Set:
  @DF-RHF Final Energy:  -247.10032747608292
    Total Energy =                       -247.1003274760831232
    Molecular point group: c1
  Basis Set: CC-PVTZ
  Basis Set:
  Basis Set: CC-PVTZ
  Basis Set:
  @DF-RHF Final Energy:  -247.10091001730765
    Total Energy =                       -247.1009100173076831
  Basis Set: CC-PVTZ
  Basis Set:
  Basis Set: CC-PVTZ
  Basis Set:
  @DF-RHF Final Energy:  -247.10093375635958
    Total Energy =                       -247.1009337563594954
  Basis Set: CC-PVTZ
  Basis Set:
  Basis Set: CC-PVTZ
  Basis Set:
  @DF-RHF Final Energy:  -247.10101476421940
    Total Energy =                       -247.1010147642192578
  Basis Set: CC-PVTZ
  Basis Set:
  @DF-RHF Final Energy:  -247.10104580394608
    Total Energy =                       -247.1010458039461923
  Basis Set: CC-PVTZ
  Basis Set:
  @DF-RHF Final Energy:  -247.10105576124087
    Total Energy =                       -247.1010557612407297
  Basis Set: CC-PVTZ
  Basis Set:
  Basis Set: CC-PVTZ
  Basis Set:
  @DF-RHF Final Energy:  -247.10106553819017
    Total Energy =                       -247.1010655381900278
  Basis Set: CC-PVTZ
  Basis Set:
  Basis Set: CC-PVTZ
  Basis Set:
  @DF-RHF Final Energy:  -247.10106707826526
    Total Energy =                       -247.1010670782653733
  Basis Set: CC-PVTZ
  Basis Set:
  Charge       = 0
  Multiplicity = 1
  Basis Set: CC-PVTZ
  Basis Set:

    Orbital Energies (a.u.)
    -----------------------

    Doubly Occupied:

       1A    -20.506906     2A    -15.574776     3A    -11.336587
       4A    -11.252706     5A    -11.228085     6A     -1.388657
       7A     -1.230926     8A     -1.016650     9A     -0.932858
      10A     -0.788241    11A     -0.690886    12A     -0.651599
      13A     -0.635496    14A     -0.586439    15A     -0.582998
      16A     -0.555906    17A     -0.545462    18A     -0.510600
      19A     -0.417528    20A     -0.389552

  @DF-RHF Final Energy:  -247.10106757673503

   => Energetics <=

    Nuclear Repulsion Energy =            181.6772729818202947
    One-Electron Energy =                -695.9109627085524608
    Two-Electron Energy =                 267.1326221499970188
    DFT Exchange-Correlation Energy =       0.0000000000000000
    Empirical Dispersion Energy =           0.0000000000000000
    PCM Polarization Energy =               0.0000000000000000
    EFP Energy =                            0.0000000000000000
    Total Energy =                       -247.1010675767350904
    Molecular point group: c1
  Basis Set: CC-PVTZ
  Basis Set:

  -Total Gradient:
     Atom            X                  Y                   Z
    ------   -----------------  -----------------  -----------------
       1        0.000007620212     0.000019581835     0.000002732286
       2        0.000127063859     0.000313414512    -0.000084289319
       3       -0.000124052944    -0.000277645559     0.000151355636
       4       -0.000082587292    -0.000221806520     0.000043088092
       5        0.000066182248     0.000169305732    -0.000101005075
       6        0.000005116999    -0.000011478313     0.000002778288
       7       -0.000007973702    -0.000009188872    -0.000005074517
       8        0.000025929566     0.000065046529    -0.000016427778
       9       -0.000003247723    -0.000009410488    -0.000003909400
      10       -0.000020683189    -0.000016030298    -0.000014000796
      11       -0.000001969390    -0.000001165184     0.000000581773
      12        0.000008601355    -0.000020623376     0.000024170808

  **** Optimization is complete! (in 9 steps) ****
    Final optimized geometry and variables:
    Molecular point group: c1

    Geometry (in Angstrom), charge = 0, multiplicity = 1:

    H            0.228730387883     0.266243398301     1.681500888043
    N           -0.283891204645     0.238928441946     0.835560085888
    C           -1.624908640602     0.774639618173     0.827555714250
    C            0.350353430011    -0.185710623315    -0.279957346930
    H           -2.118880456934     0.454727008165    -0.074500237832
    H           -1.626127952129     1.858805356684     0.854466333983
    H           -2.175959678728     0.405179921977     1.682646036833
    C            1.767999584312    -0.665383714446    -0.057868538519
    O           -0.162597279792    -0.192234152056    -1.359569138914
    H            1.785390203456    -1.479932472094     0.656636842481
    H            2.174868002461    -1.001573018754    -0.997384484834
    H            2.381642530836     0.138023086467     0.333289794515

  Mulliken Charges: (a.u.)
   Center  Symbol    Alpha    Beta     Spin     Total
       1     H     0.41082  0.41082  0.00000  0.17835
       2     N     3.62098  3.62098  0.00000 -0.24196
       3     C     3.08413  3.08413  0.00000 -0.16826
       4     C     2.83689  2.83689  0.00000  0.32622
       5     H     0.43293  0.43293  0.00000  0.13413
       6     H     0.45683  0.45683  0.00000  0.08634
       7     H     0.45490  0.45490  0.00000  0.09020
       8     C     3.15375  3.15375  0.00000 -0.30749
       9     O     4.21526  4.21526  0.00000 -0.43053
      10     H     0.44961  0.44961  0.00000  0.10078
      11     H     0.43355  0.43355  0.00000  0.13291
      12     H     0.45034  0.45034  0.00000  0.09931

   Total alpha = 20.00000, Total beta = 20.00000, Total charge = -0.00000
