                              Psi4 1.0.54 Driver

  ==> Input File <==

--------------------------------------------------------------------------
set {
	reference rhf
	basis cc-pvtz
}

set_num_threads( 4 )
memory 2 gb

molecule MOL {
0 1

H	 -2.452979	 2.404516	 0.703141
O	 -1.771673	 1.810511	 0.447844
C	 -2.302264	 0.528872	 0.237390
C	 -1.175688	 -0.398187	 -0.171891
H	 -2.775386	 0.159031	 1.144664
H	 -3.062066	 0.554513	 -0.540989
C	 0.196029	 0.106276	 0.266738
H	 -1.201873	 -0.515469	 -1.250677
H	 -1.365975	 -1.378728	 0.252664
C	 1.330220	 -0.826136	 -0.155230
H	 0.359542	 1.097229	 -0.145561
H	 0.212134	 0.218135	 1.348778
C	 2.719700	 -0.407669	 0.328325
H	 1.339388	 -0.911200	 -1.239363
H	 1.119001	 -1.821953	 0.224128
C	 3.241564	 0.893452	 -0.276737
H	 3.418299	 -1.204729	 0.093035
H	 2.711776	 -0.323368	 1.411960
H	 3.254204	 0.841071	 -1.360784
H	 2.634460	 1.745075	 0.005842
H	 4.254264	 1.092401	 0.054971

	symmetry c1
}
set optking {
	frozen_dihedral = ("
		2 3 4 8
	")
}

ee,wfn = optimize('scf', return_wfn=True)
oeprop( wfn, 'DIPOLE', 'QUADRUPOLE', 'MULLIKEN_CHARGES')
f=open( 'psi4out.xyz', 'w' )
f.write( "21  " )
f.write( str(ee) + "\n" )
f.write( MOL.save_string_xyz() )
f.close()
--------------------------------------------------------------------------

    Molecular point group: c1
  Charge       = 0
  Multiplicity = 1
  Basis Set: CC-PVTZ
  Basis Set:
  @DF-RHF Final Energy:  -310.32519294130731
    Total Energy =                       -310.3251929413072503
    Molecular point group: c1
  Basis Set: CC-PVTZ
  Basis Set:
  Basis Set: CC-PVTZ
  Basis Set:
  @DF-RHF Final Energy:  -310.32587310025752
    Total Energy =                       -310.3258731002574677
  Basis Set: CC-PVTZ
  Basis Set:
  Basis Set: CC-PVTZ
  Basis Set:
  @DF-RHF Final Energy:  -310.32697455659189
    Total Energy =                       -310.3269745565921198
  Basis Set: CC-PVTZ
  Basis Set:
  Basis Set: CC-PVTZ
  Basis Set:
  @DF-RHF Final Energy:  -310.32703084974906
    Total Energy =                       -310.3270308497491783
  Basis Set: CC-PVTZ
  Basis Set:
  Basis Set: CC-PVTZ
  Basis Set:
  @DF-RHF Final Energy:  -310.32703347102279
    Total Energy =                       -310.3270334710230713
  Basis Set: CC-PVTZ
  Basis Set:
  Basis Set: CC-PVTZ
  Basis Set:
  @DF-RHF Final Energy:  -310.32703590309455
    Total Energy =                       -310.3270359030947247
  Basis Set: CC-PVTZ
  Basis Set:
  Charge       = 0
  Multiplicity = 1
  Basis Set: CC-PVTZ
  Basis Set:

    Orbital Energies (a.u.)
    -----------------------

    Doubly Occupied:

       1A    -20.545910     2A    -11.266629     3A    -11.210898
       4A    -11.207830     5A    -11.205495     6A    -11.202245
       7A    -11.200262     8A     -1.363848     9A     -1.080094
      10A     -1.028023    11A     -0.952867    12A     -0.876281
      13A     -0.800717    14A     -0.772994    15A     -0.700369
      16A     -0.654033    17A     -0.619800    18A     -0.603199
      19A     -0.586555    20A     -0.562902    21A     -0.536111
      22A     -0.521345    23A     -0.497893    24A     -0.493524
      25A     -0.481696    26A     -0.457492    27A     -0.448172
      28A     -0.437896    29A     -0.427677

  @DF-RHF Final Energy:  -310.32703686268786

   => Energetics <=

    Nuclear Repulsion Energy =            318.4282964100248705
    One-Electron Energy =               -1052.0251549125848669
    Two-Electron Energy =                 423.2698216398725890
    DFT Exchange-Correlation Energy =       0.0000000000000000
    Empirical Dispersion Energy =           0.0000000000000000
    PCM Polarization Energy =               0.0000000000000000
    EFP Energy =                            0.0000000000000000
    Total Energy =                       -310.3270368626874642
    Molecular point group: c1
  Basis Set: CC-PVTZ
  Basis Set:

  -Total Gradient:
     Atom            X                  Y                   Z
    ------   -----------------  -----------------  -----------------
       1        0.000012888001    -0.000051803888    -0.000009068095
       2        0.000979913026    -0.000822694037     0.004639154983
       3       -0.002074088603     0.000017353416    -0.005951050539
       4        0.004692060822     0.005900640631     0.000489914362
       5        0.000010178097    -0.000059398272    -0.000018609732
       6        0.000002177038    -0.000057366104    -0.000008098938
       7       -0.000008625292    -0.000006035719     0.000033764368
       8       -0.003617604584    -0.004959577738     0.000808012969
       9       -0.000019186293     0.000015226551     0.000019293693
      10        0.000035877580     0.000034250189    -0.000029935621
      11       -0.000010948848    -0.000019137105     0.000003071777
      12        0.000005241561     0.000009423322     0.000020857196
      13       -0.000024837797     0.000017917214     0.000019931512
      14       -0.000001368864    -0.000002904781    -0.000016548259
      15        0.000005873001     0.000001291344     0.000003279516
      16        0.000007793122    -0.000007175273    -0.000014715468
      17        0.000000520830    -0.000010677903     0.000001601971
      18       -0.000006917251     0.000004786574     0.000014139818
      19       -0.000003700559     0.000005093513    -0.000008640151
      20        0.000008090547    -0.000001068337     0.000008687360
      21        0.000006664470    -0.000008143594    -0.000005042722

  **** Optimization is complete! (in 7 steps) ****
    Final optimized geometry and variables:
    Molecular point group: c1

    Geometry (in Angstrom), charge = 0, multiplicity = 1:

    H           -2.885441582939     2.165247482777     0.482950334874
    O           -2.154473416626     1.614347683040     0.273151078727
    C           -2.592521063891     0.290800337424     0.099957040106
    C           -1.423708523455    -0.617035046061    -0.298063442456
    H           -3.021005299733    -0.066398374343     1.033274918620
    H           -3.371569811974     0.239575406143    -0.654770092301
    C           -0.045711589857    -0.150845436485     0.160804598794
    H           -1.437712556897    -0.785836307337    -1.370564978510
    H           -1.622675079341    -1.595857430122     0.131324023267
    C            1.048322457272    -1.154346235498    -0.198883162429
    H            0.167570131836     0.813897823634    -0.276986987396
    H           -0.056729358620    -0.000105595380     1.236958583710
    C            2.447127088357    -0.775625111764     0.291219432379
    H            1.073737418772    -1.288648500807    -1.278309465195
    H            0.788915167823    -2.123305680780     0.219765327864
    C            3.038623619663     0.468160664726    -0.367777837275
    H            3.112986570940    -1.614301781133     0.110937081431
    H            2.422852423202    -0.635064870893     1.368722141812
    H            3.069116599488     0.359031951082    -1.447307764351
    H            2.464598543098     1.358310431446    -0.141851779369
    H            4.053161353370     0.638627133923    -0.025465445677

  Mulliken Charges: (a.u.)
   Center  Symbol    Alpha    Beta     Spin     Total
       1     H     0.39829  0.39829  0.00000  0.20341
       2     O     4.19243  4.19243  0.00000 -0.38485
       3     C     2.96968  2.96968  0.00000  0.06064
       4     C     3.10080  3.10080  0.00000 -0.20160
       5     H     0.47307  0.47307  0.00000  0.05385
       6     H     0.46844  0.46844  0.00000  0.06311
       7     C     3.08573  3.08573  0.00000 -0.17146
       8     H     0.45328  0.45328  0.00000  0.09344
       9     H     0.45663  0.45663  0.00000  0.08674
      10     C     3.09572  3.09572  0.00000 -0.19144
      11     H     0.44204  0.44204  0.00000  0.11593
      12     H     0.45409  0.45409  0.00000  0.09182
      13     C     3.08940  3.08940  0.00000 -0.17880
      14     H     0.45558  0.45558  0.00000  0.08884
      15     H     0.45173  0.45173  0.00000  0.09653
      16     C     3.15235  3.15235  0.00000 -0.30469
      17     H     0.44987  0.44987  0.00000  0.10026
      18     H     0.45543  0.45543  0.00000  0.08914
      19     H     0.45587  0.45587  0.00000  0.08826
      20     H     0.45170  0.45170  0.00000  0.09661
      21     H     0.44788  0.44788  0.00000  0.10425

   Total alpha = 29.00000, Total beta = 29.00000, Total charge = -0.00000

*** Psi4 exiting successfully. Buy a developer a beer!
