  ==> Input File <==

--------------------------------------------------------------------------
set {
	reference rhf
	basis 6-31G*
}

set_num_threads( 1 )
memory 2 gb

molecule MOL {
0 1

H	 1.404150	 -1.534056	 -0.368415
O	 1.654024	 -0.625927	 -0.460906
C	 1.135793	 0.118896	 0.612333
C	 0.031547	 1.023609	 0.088541
H	 1.915668	 0.729681	 1.063582
H	 0.754543	 -0.542641	 1.387006
C	 -1.134819	 0.293262	 -0.585751
H	 0.474374	 1.714721	 -0.623187
H	 -0.338529	 1.620940	 0.920081
C	 -1.917817	 -0.639439	 0.339494
H	 -0.758119	 -0.268455	 -1.433105
H	 -1.813832	 1.041889	 -0.986690
H	 -2.777680	 -1.057197	 -0.174994
H	 -1.310268	 -1.471279	 0.680599
H	 -2.283753	 -0.111424	 1.216626

	symmetry c1
}
set optking {
	frozen_dihedral = ("
		8 4 7 11,
		2 3 4 8
	")
}

ee = energy('scf')
oeprop('DIPOLE', 'QUADRUPOLE', 'MULLIKEN_CHARGES')
f=open( 'psi4out.xyz', 'w' )
f.write( "15  " )
f.write( str(ee) + "\n" )
f.write( MOL.save_string_xyz() )
f.close()
--------------------------------------------------------------------------

    Molecular point group: c1

    Geometry (in Angstrom), charge = 0, multiplicity = 1:

       Center              X                  Y                   Z               Mass
    ------------   -----------------  -----------------  -----------------  -----------------
           H          1.416814028988    -1.529566143670    -0.365416784615     1.007825032070
           O          1.666688028988    -0.621437143670    -0.457907784615    15.994914619560
           C          1.148457028988     0.123385856330     0.615331215385    12.000000000000
           C          0.044211028988     1.028098856330     0.091539215385    12.000000000000
           H          1.928332028988     0.734170856330     1.066580215385     1.007825032070
           H          0.767207028988    -0.538151143670     1.390004215385     1.007825032070
           C         -1.122154971012     0.297751856330    -0.582752784615    12.000000000000
           H          0.487038028988     1.719210856330    -0.620188784615     1.007825032070
           H         -0.325864971012     1.625429856330     0.923079215385     1.007825032070
           C         -1.905152971012    -0.634949143670     0.342492215385    12.000000000000
           H         -0.745454971012    -0.263965143670    -1.430106784615     1.007825032070
           H         -1.801167971012     1.046378856330    -0.983691784615     1.007825032070
           H         -2.765015971012    -1.052707143670    -0.171995784615     1.007825032070
           H         -1.297603971012    -1.466789143670     0.683597215385     1.007825032070
           H         -2.271088971012    -0.106934143670     1.219624215385     1.007825032070

  Charge       = 0
  Multiplicity = 1
  Basis Set: 6-31G*
  Basis Set:

    Orbital Energies (a.u.)
    -----------------------

    Doubly Occupied:

       1A    -20.553060     2A    -11.268082     3A    -11.213909
       4A    -11.212374     5A    -11.210649     6A     -1.360684
       7A     -1.066492     8A     -0.973691     9A     -0.873851
      10A     -0.777954    11A     -0.704188    12A     -0.646852
      13A     -0.612334    14A     -0.580586    15A     -0.564036
      16A     -0.541188    17A     -0.504650    18A     -0.485908
      19A     -0.470631    20A     -0.456836    21A     -0.425290

  @DF-RHF Final Energy:  -232.14130301302865

   => Energetics <=

    Nuclear Repulsion Energy =            192.4837959765537505
    One-Electron Energy =                -696.2437653899889938
    Two-Electron Energy =                 271.6186664004059708
    DFT Exchange-Correlation Energy =       0.0000000000000000
    Empirical Dispersion Energy =           0.0000000000000000
    PCM Polarization Energy =               0.0000000000000000
    EFP Energy =                            0.0000000000000000
    Total Energy =                       -232.1413030130292441

  Mulliken Charges: (a.u.)
   Center  Symbol    Alpha    Beta     Spin     Total
       1     H     0.27908  0.27908  0.00000  0.44184
       2     O     4.36976  4.36976  0.00000 -0.73952
       3     C     3.00434  3.00434  0.00000 -0.00869
       4     C     3.15610  3.15610  0.00000 -0.31220
       5     H     0.41845  0.41845  0.00000  0.16311
       6     H     0.42965  0.42965  0.00000  0.14070
       7     C     3.15803  3.15803  0.00000 -0.31606
       8     H     0.41432  0.41432  0.00000  0.17135
       9     H     0.42800  0.42800  0.00000  0.14400
      10     C     3.24183  3.24183  0.00000 -0.48365
      11     H     0.41350  0.41350  0.00000  0.17300
      12     H     0.42002  0.42002  0.00000  0.15996
      13     H     0.41743  0.41743  0.00000  0.16515
      14     H     0.42809  0.42809  0.00000  0.14381
      15     H     0.42140  0.42140  0.00000  0.15721

   Total alpha = 21.00000, Total beta = 21.00000, Total charge = -0.00000
