  ==> Input File <==

--------------------------------------------------------------------------
set {
	reference rhf
	basis 6-31G*
}

set_num_threads( 4 )
memory 2 gb

molecule MOL {
0 1

H	 1.706674	 2.219434	 2.417370
O	 2.616931	 2.054073	 2.219479
C	 2.906234	 0.694244	 2.422515
C	 2.313891	 -0.213038	 1.349810
H	 3.985917	 0.618038	 2.410279
H	 2.571050	 0.376533	 3.409171
C	 0.783699	 -0.216130	 1.312792
H	 2.701719	 0.097299	 0.383038
H	 2.673433	 -1.225534	 1.525730
C	 0.219554	 -1.177006	 0.262422
H	 0.429368	 0.790862	 1.110850
H	 0.398329	 -0.493411	 2.294090
C	 -1.309753	 -1.282496	 0.241564
H	 0.573102	 -0.878158	 -0.722738
H	 0.630501	 -2.167946	 0.443694
C	 -2.037799	 -0.007733	 -0.193645
H	 -1.587490	 -2.088337	 -0.434674
H	 -1.662903	 -1.580897	 1.227505
C	 -3.489788	 0.042957	 0.286558
H	 -2.017067	 0.064384	 -1.280144
H	 -1.513726	 0.868678	 0.179924
C	 -4.216917	 1.317354	 -0.141063
H	 -4.025645	 -0.823308	 -0.095450
H	 -3.513059	 -0.038752	 1.371301
H	 -4.239342	 1.411634	 -1.223113
H	 -5.243387	 1.322503	 0.212445
H	 -3.726170	 2.201406	 0.256408

	symmetry c1
}
set optking {
	frozen_dihedral = ("
		10 13 16 20
	")
}

ee = optimize('scf')
oeprop('DIPOLE', 'QUADRUPOLE', 'MULLIKEN_CHARGES')
f=open( 'psi4out.xyz', 'w' )
f.write( "27  " )
f.write( str(ee) + "\n" )
f.write( MOL.save_string_xyz() )
f.close()
--------------------------------------------------------------------------

    Molecular point group: c1
  Charge       = 0
  Multiplicity = 1
  Basis Set: 6-31G*
  Basis Set:
  @DF-RHF Final Energy:  -388.27961894910709
    Total Energy =                       -388.2796189491073164
    Molecular point group: c1
  Basis Set: 6-31G*
  Basis Set:
  Basis Set: 6-31G*
  Basis Set:
  @DF-RHF Final Energy:  -388.27983972987204
    Total Energy =                       -388.2798397298718101
  Basis Set: 6-31G*
  Basis Set:
  Basis Set: 6-31G*
  Basis Set:
  @DF-RHF Final Energy:  -388.28003269569678
    Total Energy =                       -388.2800326956971730
  Basis Set: 6-31G*
  Basis Set:
  Basis Set: 6-31G*
  Basis Set:
  @DF-RHF Final Energy:  -388.28004323001880
    Total Energy =                       -388.2800432300184639
  Basis Set: 6-31G*
  Basis Set:
  Basis Set: 6-31G*
  Basis Set:
  @DF-RHF Final Energy:  -388.28007301554180
    Total Energy =                       -388.2800730155413476
  Basis Set: 6-31G*
  Basis Set:
  Basis Set: 6-31G*
  Basis Set:
  @DF-RHF Final Energy:  -388.28007423675183
    Total Energy =                       -388.2800742367512612
  Basis Set: 6-31G*
  Basis Set:
  Charge       = 0
  Multiplicity = 1
  Basis Set: 6-31G*
  Basis Set:

    Orbital Energies (a.u.)
    -----------------------

    Doubly Occupied:

       1A    -20.552513     2A    -11.267231     3A    -11.220109
       4A    -11.217372     5A    -11.216038     6A    -11.215579
       7A    -11.215380     8A    -11.214045     9A    -11.209210
      10A     -1.359247    11A     -1.094866    12A     -1.061466
      13A     -1.011313    14A     -0.948503    15A     -0.887517
      16A     -0.820339    17A     -0.799225    18A     -0.780995
      19A     -0.694148    20A     -0.645941    21A     -0.645028
      22A     -0.613618    23A     -0.599393    24A     -0.583134
      25A     -0.580128    26A     -0.552595    27A     -0.544521
      28A     -0.527634    29A     -0.505695    30A     -0.492742
      31A     -0.485873    32A     -0.476660    33A     -0.468698
      34A     -0.460038    35A     -0.451495    36A     -0.441043
      37A     -0.423472

  @DF-RHF Final Energy:  -388.28007460526374

   => Energetics <=

    Nuclear Repulsion Energy =            460.6463172105771946
    One-Electron Energy =               -1439.2871752253477098
    Two-Electron Energy =                 590.3607834095066664
    DFT Exchange-Correlation Energy =       0.0000000000000000
    Empirical Dispersion Energy =           0.0000000000000000
    PCM Polarization Energy =               0.0000000000000000
    EFP Energy =                            0.0000000000000000
    Total Energy =                       -388.2800746052638488
    Molecular point group: c1
  Basis Set: 6-31G*
  Basis Set:

  -Total Gradient:
     Atom            X                  Y                   Z
    ------   -----------------  -----------------  -----------------
       1       -0.000002753057     0.000007747014    -0.000000833514
       2       -0.000004426170     0.000002268749     0.000008145666
       3        0.000009834382     0.000004906652    -0.000018615920
       4        0.000005389348    -0.000010320340     0.000002891812
       5        0.000001603269    -0.000012323926     0.000003453480
       6       -0.000007838984     0.000004768862    -0.000002286946
       7       -0.000002677004     0.000015408196    -0.000000428235
       8       -0.000001279965     0.000002727996     0.000002965280
       9        0.000007981282    -0.000001098873    -0.000001836018
      10       -0.000019644791     0.000923098800     0.002356374652
      11       -0.000003112357     0.000005334539     0.000005919881
      12        0.000000702831    -0.000008909617    -0.000009841860
      13       -0.000659790721    -0.001712657269    -0.003316609137
      14       -0.000013841819     0.000004478092     0.000010652100
      15       -0.000010641137    -0.000013258523    -0.000002443006
      16        0.003610130118     0.002505702206     0.000950308309
      17        0.000006168931    -0.000019748172    -0.000003590649
      18        0.000018201694     0.000009314367    -0.000011552044
      19       -0.000006354942    -0.000007178943    -0.000005817732
      20       -0.002934188744    -0.001710035419     0.000040113157
      21       -0.000002521619     0.000012799801    -0.000007912223
      22        0.000008667056     0.000000587292     0.000002505090
      23       -0.000004362174    -0.000003929763     0.000001494721
      24        0.000002504102     0.000003188976    -0.000003957188
      25        0.000000604021    -0.000000861925     0.000000289674
      26        0.000002101908    -0.000003719606     0.000000358614
      27       -0.000000455463     0.000001710827     0.000000252035

  **** Optimization is complete! (in 7 steps) ****
    Final optimized geometry and variables:
    Molecular point group: c1

    Geometry (in Angstrom), charge = 0, multiplicity = 1:

    H            1.920713452044     1.926427293884     1.746048750564
    O            2.818754983406     1.828774974627     1.464824885849
    C            3.183414969885     0.472576001868     1.508139421001
    C            2.552569118084    -0.354910612637     0.393733274524
    H            4.261371618596     0.454379555139     1.411641258033
    H            2.938567355145     0.042998864231     2.478826667054
    C            1.025318428135    -0.428930710053     0.462843536492
    H            2.854565651366     0.065718281651    -0.561809451836
    H            2.966299775186    -1.360830911927     0.442558960401
    C            0.425709213674    -1.325971814215    -0.623682634241
    H            0.614940744673     0.573593282476     0.378150013001
    H            0.725085910275    -0.807938720895     1.439607608419
    C           -1.105007281285    -1.423301090231    -0.590471692480
    H            0.746432237877    -0.971775386968    -1.602031736760
    H            0.843057567758    -2.324424633298    -0.512678154550
    C           -1.837538118547    -0.170844664941    -1.092051392620
    H           -1.424202765163    -2.275993718730    -1.184196065968
    H           -1.414117076033    -1.638311521968     0.431427552956
    C           -3.287524393399    -0.095536617603    -0.605511398393
    H           -1.845549605579    -0.178436853392    -2.180338434979
    H           -1.314311818911     0.731178063875    -0.787244027072
    C           -4.046031474923     1.106202966039    -1.167310423673
    H           -3.807205695336    -1.011196307146    -0.880782741369
    H           -3.299863580290    -0.054405910301     0.481624219172
    H           -4.087264241202     1.071933358784    -2.252331074920
    H           -5.066764105684     1.135319944154    -0.798628636168
    H           -3.566182609444     2.039470781730    -0.885667570198

  Mulliken Charges: (a.u.)
   Center  Symbol    Alpha    Beta     Spin     Total
       1     H     0.27987  0.27987  0.00000  0.44027
       2     O     4.37092  4.37092  0.00000 -0.74184
       3     C     2.99754  2.99754  0.00000  0.00491
       4     C     3.16079  3.16079  0.00000 -0.32159
       5     H     0.41439  0.41439  0.00000  0.17122
       6     H     0.43197  0.43197  0.00000  0.13607
       7     C     3.16281  3.16281  0.00000 -0.32563
       8     H     0.41485  0.41485  0.00000  0.17031
       9     H     0.42424  0.42424  0.00000  0.15152
      10     C     3.15299  3.15299  0.00000 -0.30599
      11     H     0.42369  0.42369  0.00000  0.15261
      12     H     0.42518  0.42518  0.00000  0.14964
      13     C     3.15496  3.15496  0.00000 -0.30992
      14     H     0.42151  0.42151  0.00000  0.15698
      15     H     0.42146  0.42146  0.00000  0.15708
      16     C     3.15292  3.15292  0.00000 -0.30584
      17     H     0.41954  0.41954  0.00000  0.16093
      18     H     0.42444  0.42444  0.00000  0.15111
      19     C     3.15208  3.15208  0.00000 -0.30417
      20     H     0.42243  0.42243  0.00000  0.15515
      21     H     0.42233  0.42233  0.00000  0.15533
      22     C     3.23934  3.23934  0.00000 -0.47869
      23     H     0.42295  0.42295  0.00000  0.15410
      24     H     0.42384  0.42384  0.00000  0.15232
      25     H     0.42149  0.42149  0.00000  0.15702
      26     H     0.41931  0.41931  0.00000  0.16138
      27     H     0.42214  0.42214  0.00000  0.15572

   Total alpha = 37.00000, Total beta = 37.00000, Total charge =  0.00000
