  ==> Input File <==

--------------------------------------------------------------------------
set {
	reference rhf
	basis 6-31G*
}

set_num_threads( 4 )
memory 2 gb

molecule MOL {
0 1

O	 -2.821601	 1.309235	 -0.001213
C	 -2.668563	 0.129746	 -0.000350
C	 -3.801572	 -0.864014	 -0.000442
O	 -1.481751	 -0.454642	 0.000584
H	 -4.417280	 -0.689587	 -0.874708
H	 -3.443784	 -1.883046	 -0.000565
H	 -4.417179	 -0.689832	 0.873954
C	 -0.334255	 0.388708	 0.000906
C	 0.891947	 -0.504646	 0.000751
H	 -0.365390	 1.025305	 -0.873475
H	 -0.365484	 1.024911	 0.875569
C	 2.191998	 0.301789	 0.000897
H	 0.855148	 -1.151283	 -0.871571
H	 0.855132	 -1.151660	 0.872805
C	 3.033226	 0.075919	 1.258532
H	 2.782102	 0.040788	 -0.875882
H	 1.962436	 1.362004	 -0.090348
C	 4.332344	 0.880382	 1.258014
H	 3.263834	 -0.983010	 1.351067
H	 2.445854	 0.338437	 2.135543
H	 4.957472	 0.615387	 0.410072
H	 4.906385	 0.699248	 2.161288
H	 4.133350	 1.946748	 1.200789

	symmetry c1
}
set optking {
	frozen_dihedral = ("
		16 12 9 13
	")
}

ee = optimize('scf')
oeprop('DIPOLE', 'QUADRUPOLE', 'MULLIKEN_CHARGES')
f=open( 'psi4out.xyz', 'w' )
f.write( "23  " )
f.write( str(ee) + "\n" )
f.write( MOL.save_string_xyz() )
f.close()
--------------------------------------------------------------------------

    Molecular point group: c1
  Charge       = 0
  Multiplicity = 1
  Basis Set: 6-31G*
  Basis Set:
  @DF-RHF Final Energy:  -422.97437144939960
    Total Energy =                       -422.9743714493987454
    Molecular point group: c1
  Basis Set: 6-31G*
  Basis Set:
  Basis Set: 6-31G*
  Basis Set:
  @DF-RHF Final Energy:  -422.97458840828898
    Total Energy =                       -422.9745884082891507
  Basis Set: 6-31G*
  Basis Set:
  Basis Set: 6-31G*
  Basis Set:
  @DF-RHF Final Energy:  -422.97464686566542
    Total Energy =                       -422.9746468656660454
  Basis Set: 6-31G*
  Basis Set:
  Basis Set: 6-31G*
  Basis Set:
  @DF-RHF Final Energy:  -422.97452267340321
    Total Energy =                       -422.9745226734030439
  Basis Set: 6-31G*
  Basis Set:
  Basis Set: 6-31G*
  Basis Set:
  @DF-RHF Final Energy:  -422.97465502911342
    Total Energy =                       -422.9746550291138192
  Basis Set: 6-31G*
  Basis Set:
  Charge       = 0
  Multiplicity = 1
  Basis Set: 6-31G*
  Basis Set:

    Orbital Energies (a.u.)
    -----------------------

    Doubly Occupied:

       1A    -20.602987     2A    -20.540635     3A    -11.374217
       4A    -11.281954     5A    -11.232432     6A    -11.224163
       7A    -11.223604     8A    -11.221903     9A    -11.212701
      10A     -1.468097    11A     -1.360871    12A     -1.092418
      13A     -1.041831    14A     -1.002766    15A     -0.930170
      16A     -0.844106    17A     -0.801095    18A     -0.777104
      19A     -0.688777    20A     -0.684943    21A     -0.671583
      22A     -0.636360    23A     -0.612836    24A     -0.586203
      25A     -0.579957    26A     -0.570806    27A     -0.559699
      28A     -0.533214    29A     -0.525509    30A     -0.501430
      31A     -0.496823    32A     -0.478438    33A     -0.467897
      34A     -0.463098    35A     -0.449914    36A     -0.435456

  @DF-RHF Final Energy:  -422.97465515686594

   => Energetics <=

    Nuclear Repulsion Energy =            451.7697345482761762
    One-Electron Energy =               -1471.1367947984072089
    Two-Electron Energy =                 596.3924050932652108
    DFT Exchange-Correlation Energy =       0.0000000000000000
    Empirical Dispersion Energy =           0.0000000000000000
    PCM Polarization Energy =               0.0000000000000000
    EFP Energy =                            0.0000000000000000
    Total Energy =                       -422.9746551568658788
    Molecular point group: c1
  Basis Set: 6-31G*
  Basis Set:

  -Total Gradient:
     Atom            X                  Y                   Z
    ------   -----------------  -----------------  -----------------
       1        0.000006074377    -0.000000351809    -0.000041216589
       2       -0.000000666332    -0.000018789470     0.000131392109
       3       -0.000006787774     0.000000603353    -0.000046954153
       4       -0.000039128175    -0.000005902251    -0.000016685842
       5       -0.000008903462    -0.000007148641     0.000000120578
       6       -0.000000648906    -0.000000331232    -0.000002048459
       7        0.000006857997     0.000006065461    -0.000000298140
       8        0.000011414424     0.000032348415    -0.000062486603
       9       -0.000388272559     0.000679322074    -0.000449780867
      10        0.000013744675     0.000004036923     0.000015747645
      11       -0.000005477949     0.000000513070     0.000005199696
      12        0.000418467575    -0.000679171735     0.000450437028
      13        0.000276991199    -0.000436591608     0.000325066885
      14        0.000006963389     0.000002566610     0.000000702509
      15        0.000012184646    -0.000026773357     0.000013559516
      16       -0.000278025401     0.000441954890    -0.000306766377
      17       -0.000010742094    -0.000003296503    -0.000004808750
      18       -0.000012251322     0.000016068188    -0.000006983387
      19        0.000003018923    -0.000000396977    -0.000005424328
      20       -0.000005422987    -0.000007857409    -0.000002186556
      21       -0.000001018601    -0.000000033622     0.000003284994
      22       -0.000003804913     0.000001323804     0.000003926303
      23        0.000005433270     0.000001841829    -0.000003797210

  **** Optimization is complete! (in 6 steps) ****
    Final optimized geometry and variables:
    Molecular point group: c1

    Geometry (in Angstrom), charge = 0, multiplicity = 1:

    O           -2.723731517867     1.168065563490    -0.273906562699
    C           -2.577703313283    -0.012309626374    -0.274282193482
    C           -3.716562497679    -0.999250656655    -0.262283521252
    O           -1.394280721019    -0.603631699708    -0.285958133138
    H           -4.340598076751    -0.821026040704    -1.129849448747
    H           -3.364887776055    -2.020403123077    -0.266319525058
    H           -4.321682252249    -0.821519534687     0.618695732553
    C           -0.242073406279     0.232175162572    -0.299476568848
    C            0.980602442937    -0.666633053441    -0.307079753104
    H           -0.276217572496     0.866208512548    -1.175567537954
    H           -0.259400478889     0.871755694023     0.573553062728
    C            2.295442290322     0.143298643399    -0.286889004736
    H            0.935585459184    -1.309788280487    -1.179545691851
    H            0.928641039413    -1.323202971108     0.556161578211
    C            3.127365113979    -0.073595919301     0.979382384465
    H            2.896192135496    -0.107012281960    -1.156452903347
    H            2.076453989265     1.205658064761    -0.381579916971
    C            4.412516190703     0.751828770782     0.996885716903
    H            3.372817871074    -1.129414395623     1.069221870660
    H            2.524936275567     0.174391893879     1.850981027251
    H            5.049951646654     0.502490564659     0.153240885267
    H            4.980892593802     0.574293288907     1.904439318681
    H            4.196850633881     1.815249493392     0.944291325261

  Mulliken Charges: (a.u.)
   Center  Symbol    Alpha    Beta     Spin     Total
       1     O     4.28381  4.28381  0.00000 -0.56761
       2     C     2.61551  2.61551  0.00000  0.76899
       3     C     3.28777  3.28777  0.00000 -0.57554
       4     O     4.31234  4.31234  0.00000 -0.62468
       5     H     0.39746  0.39746  0.00000  0.20507
       6     H     0.39986  0.39986  0.00000  0.20027
       7     H     0.39751  0.39751  0.00000  0.20499
       8     C     3.00008  3.00008  0.00000 -0.00016
       9     C     3.16616  3.16616  0.00000 -0.33233
      10     H     0.41004  0.41004  0.00000  0.17991
      11     H     0.41074  0.41074  0.00000  0.17852
      12     C     3.16447  3.16447  0.00000 -0.32895
      13     H     0.41158  0.41158  0.00000  0.17684
      14     H     0.41151  0.41151  0.00000  0.17699
      15     C     3.15292  3.15292  0.00000 -0.30583
      16     H     0.41658  0.41658  0.00000  0.16684
      17     H     0.41899  0.41899  0.00000  0.16201
      18     C     3.24072  3.24072  0.00000 -0.48145
      19     H     0.42070  0.42070  0.00000  0.15860
      20     H     0.42190  0.42190  0.00000  0.15620
      21     H     0.42097  0.42097  0.00000  0.15805
      22     H     0.41784  0.41784  0.00000  0.16431
      23     H     0.42053  0.42053  0.00000  0.15895

   Total alpha = 36.00000, Total beta = 36.00000, Total charge = -0.00000
