                              Psi4 1.0.54 Driver

  ==> Input File <==

--------------------------------------------------------------------------
set {
	reference rhf
	basis cc-pvtz
}

set_num_threads( 4 )
memory 2 gb

molecule MOL {
0 1

H	 1.759961	 -0.677043	 -0.871350
C	 1.170987	 -0.420148	 0.001547
H	 1.754921	 -0.674504	 0.878593
O	 -0.000109	 -1.189088	 -0.000930
C	 0.769465	 1.061920	 -0.001733
C	 -1.171069	 -0.419937	 -0.000798
H	 1.160359	 1.567284	 -0.874094
H	 1.164523	 1.572274	 0.865868
C	 -0.769267	 1.062069	 0.001909
H	 -1.756754	 -0.674086	 -0.876709
H	 -1.758373	 -0.676796	 0.873230
H	 -1.160063	 1.567841	 0.874070
H	 -1.164232	 1.572154	 -0.865879

	symmetry c1
}
ee,wfn = energy('scf', return_wfn=True)
oeprop( wfn, 'DIPOLE', 'QUADRUPOLE', 'MULLIKEN_CHARGES')
oeprop( wfn, 'GRID_ESP')
f=open( 'psi4out.xyz', 'w' )
f.write( "13  " )
f.write( str(ee) + "\n" )
f.write( MOL.save_string_xyz() )
f.close()
--------------------------------------------------------------------------

    Molecular point group: c1

    Geometry (in Angstrom), charge = 0, multiplicity = 1:

       Center              X                  Y                   Z               Mass
    ------------   -----------------  -----------------  -----------------  -----------------
           H          1.759961093946    -0.676940333052    -0.871349762814     1.007825032070
           C          1.170987093946    -0.420045333052     0.001547237186    12.000000000000
           H          1.754921093946    -0.674401333052     0.878593237186     1.007825032070
           O         -0.000108906054    -1.188985333052    -0.000929762814    15.994914619560
           C          0.769465093946     1.062022666948    -0.001732762814    12.000000000000
           C         -1.171068906054    -0.419834333052    -0.000797762814    12.000000000000
           H          1.160359093946     1.567386666948    -0.874093762814     1.007825032070
           H          1.164523093946     1.572376666948     0.865868237186     1.007825032070
           C         -0.769266906054     1.062171666948     0.001909237186    12.000000000000
           H         -1.756753906054    -0.673983333052    -0.876708762814     1.007825032070
           H         -1.758372906054    -0.676693333052     0.873230237186     1.007825032070
           H         -1.160062906054     1.567943666948     0.874070237186     1.007825032070
           H         -1.164231906054     1.572256666948    -0.865878762814     1.007825032070

  Charge       = 0
  Multiplicity = 1
  Basis Set: CC-PVTZ
  Basis Set:

    Orbital Energies (a.u.)
    -----------------------

    Doubly Occupied:

       1A    -20.537883     2A    -11.262627     3A    -11.262601
       4A    -11.220806     5A    -11.220220     6A     -1.376230
       7A     -1.053086     8A     -0.997649     9A     -0.811848
      10A     -0.810652    11A     -0.685526    12A     -0.671497
      13A     -0.591428    14A     -0.588989    15A     -0.582685
      16A     -0.499763    17A     -0.486887    18A     -0.466009
      19A     -0.464665    20A     -0.401108

  @DF-RHF Final Energy:  -231.05515940141021

   => Energetics <=

    Nuclear Repulsion Energy =            190.7289987273143765
    One-Electron Energy =                -691.5839934059072220
    Two-Electron Energy =                 269.7998352771826376
    DFT Exchange-Correlation Energy =       0.0000000000000000
    Empirical Dispersion Energy =           0.0000000000000000
    PCM Polarization Energy =               0.0000000000000000
    EFP Energy =                            0.0000000000000000
    Total Energy =                       -231.0551594014102079

  Mulliken Charges: (a.u.)
   Center  Symbol    Alpha    Beta     Spin     Total
       1     H     0.46482  0.46482  0.00000  0.07036
       2     C     2.97061  2.97061  0.00000  0.05877
       3     H     0.46491  0.46491  0.00000  0.07018
       4     O     4.18716  4.18716  0.00000 -0.37433
       5     C     3.11149  3.11149  0.00000 -0.22298
       6     C     2.97061  2.97061  0.00000  0.05877
       7     H     0.44728  0.44728  0.00000  0.10543
       8     H     0.44730  0.44730  0.00000  0.10539
       9     C     3.11149  3.11149  0.00000 -0.22299
      10     H     0.46486  0.46486  0.00000  0.07029
      11     H     0.46487  0.46487  0.00000  0.07026
      12     H     0.44728  0.44728  0.00000  0.10543
      13     H     0.44730  0.44730  0.00000  0.10540

   Total alpha = 20.00000, Total beta = 20.00000, Total charge = -0.00000

*** Psi4 exiting successfully. Buy a developer a beer!
