                              Psi4 1.0.54 Driver

  ==> Input File <==

--------------------------------------------------------------------------
set {
	reference rhf
	basis cc-pvtz
}

set_num_threads( 4 )
memory 2 gb

molecule MOL {
0 1

O	 -2.729070	 1.183737	 0.799679
C	 -2.617384	 0.065600	 0.425885
C	 -3.757265	 -0.915319	 0.373421
O	 -1.481217	 -0.452708	 0.001092
H	 -4.534137	 -0.506610	 -0.258644
H	 -3.444698	 -1.876776	 -0.001470
H	 -4.165457	 -1.021663	 1.369485
C	 -0.332055	 0.384012	 -0.000250
C	 0.892252	 -0.506059	 -0.000295
H	 -0.360822	 1.020205	 -0.874146
H	 -0.359817	 1.021310	 0.872861
C	 2.188199	 0.299473	 -0.001416
H	 0.857046	 -1.152781	 -0.871031
H	 0.857910	 -1.151798	 0.871202
C	 3.437151	 -0.577593	 -0.000991
H	 2.209565	 0.950707	 -0.871712
H	 2.210062	 0.952234	 0.867721
C	 4.732399	 0.226982	 -0.000914
H	 3.417321	 -1.229122	 -0.869998
H	 3.416993	 -1.228707	 0.868337
H	 4.797903	 0.863451	 -0.876963
H	 5.598517	 -0.424436	 -0.000420
H	 4.797415	 0.864118	 0.874691

	symmetry c1
}
set optking {
	frozen_dihedral = ("
		2 4 8 10
	")
}

ee,wfn = optimize('scf', return_wfn=True)
oeprop( wfn, 'DIPOLE', 'QUADRUPOLE', 'MULLIKEN_CHARGES')
f=open( 'psi4out.xyz', 'w' )
f.write( "23  " )
f.write( str(ee) + "\n" )
f.write( MOL.save_string_xyz() )
f.close()
--------------------------------------------------------------------------

    Molecular point group: c1
  Charge       = 0
  Multiplicity = 1
  Basis Set: CC-PVTZ
  Basis Set:
  @DF-RHF Final Energy:  -423.13405517638137
    Total Energy =                       -423.1340551763809117
    Molecular point group: c1
  Basis Set: CC-PVTZ
  Basis Set:
  Basis Set: CC-PVTZ
  Basis Set:
  @DF-RHF Final Energy:  -423.13401344261342
    Total Energy =                       -423.1340134426133091
  Basis Set: CC-PVTZ
  Basis Set:
  Basis Set: CC-PVTZ
  Basis Set:
  @DF-RHF Final Energy:  -423.13350477516582
    Total Energy =                       -423.1335047751658749
  Basis Set: CC-PVTZ
  Basis Set:
  Basis Set: CC-PVTZ
  Basis Set:
  @DF-RHF Final Energy:  -423.13416857822790
    Total Energy =                       -423.1341685782277864
  Basis Set: CC-PVTZ
  Basis Set:
  Basis Set: CC-PVTZ
  Basis Set:
  @DF-RHF Final Energy:  -423.13418456187418
    Total Energy =                       -423.1341845618742354
  Basis Set: CC-PVTZ
  Basis Set:
  Charge       = 0
  Multiplicity = 1
  Basis Set: CC-PVTZ
  Basis Set:

    Orbital Energies (a.u.)
    -----------------------

    Doubly Occupied:

       1A    -20.595722     2A    -20.529275     3A    -11.366784
       4A    -11.279178     5A    -11.230483     6A    -11.222249
       7A    -11.221333     8A    -11.219483     9A    -11.210909
      10A     -1.470390    11A     -1.364175    12A     -1.095276
      13A     -1.043284    14A     -1.004109    15A     -0.931960
      16A     -0.843007    17A     -0.802645    18A     -0.775860
      19A     -0.696714    20A     -0.686466    21A     -0.670070
      22A     -0.648379    23A     -0.607119    24A     -0.589066
      25A     -0.584502    26A     -0.568508    27A     -0.558312
      28A     -0.538261    29A     -0.524460    30A     -0.505813
      31A     -0.491794    32A     -0.478302    33A     -0.471584
      34A     -0.468878    35A     -0.452924    36A     -0.438030

  @DF-RHF Final Energy:  -423.13418474792621

   => Energetics <=

    Nuclear Repulsion Energy =            450.5340924775507006
    One-Electron Energy =               -1468.9659425146987815
    Two-Electron Energy =                 595.2976652892218681
    DFT Exchange-Correlation Energy =       0.0000000000000000
    Empirical Dispersion Energy =           0.0000000000000000
    PCM Polarization Energy =               0.0000000000000000
    EFP Energy =                            0.0000000000000000
    Total Energy =                       -423.1341847479261560
    Molecular point group: c1
  Basis Set: CC-PVTZ
  Basis Set:

  -Total Gradient:
     Atom            X                  Y                   Z
    ------   -----------------  -----------------  -----------------
       1       -0.000024665351     0.000056251443     0.000021073875
       2        0.000335849059    -0.000527147711     0.001202327458
       3        0.000002172983     0.000024503313     0.000007525734
       4       -0.000273101632     0.000363676725    -0.001952660318
       5        0.000008429985    -0.000007182496     0.000006799623
       6       -0.000006000332     0.000002040114     0.000000970679
       7        0.000002753234     0.000002341868    -0.000013383476
       8       -0.000798166240     0.001135418827     0.001482448442
       9       -0.000007321688     0.000000144418     0.000011759127
      10        0.000760423074    -0.001031883885    -0.000777223743
      11       -0.000003969818    -0.000016439707    -0.000006007153
      12       -0.000003630414    -0.000000087505     0.000011678540
      13       -0.000002620127     0.000002138432     0.000004222018
      14        0.000004691586    -0.000002553375     0.000003757854
      15        0.000001315953     0.000000027826    -0.000002256256
      16       -0.000000788372     0.000000917745     0.000005232801
      17        0.000000529869    -0.000000589093     0.000004690282
      18        0.000001762465    -0.000001894103    -0.000009092750
      19        0.000001893869    -0.000005607523     0.000000081339
      20       -0.000000796337     0.000006688408    -0.000000247559
      21        0.000001205845     0.000001548265    -0.000000018404
      22        0.000002549715     0.000000272819    -0.000001615596
      23       -0.000002517329    -0.000002584808    -0.000000062519

  **** Optimization is complete! (in 6 steps) ****
    Final optimized geometry and variables:
    Molecular point group: c1

    Geometry (in Angstrom), charge = 0, multiplicity = 1:

    O           -2.776506012357     1.236456084400     0.583819104358
    C           -2.647247295095     0.118326870079     0.215721034016
    C           -3.777732783573    -0.873110874662     0.151250204054
    O           -1.500454531392    -0.396094542081    -0.185159214865
    H           -4.547186951943    -0.475498915953    -0.496796808309
    H           -3.450911499321    -1.834636620211    -0.211089714153
    H           -4.201765210258    -0.975312700718     1.141190677295
    C           -0.339534424438     0.423827230117    -0.146447987018
    C            0.874141529419    -0.482255213673    -0.159062593003
    H           -0.346106476054     1.069276514492    -1.015859876978
    H           -0.366721884347     1.043163712082     0.736543166410
    C            2.180027122792     0.307083596323    -0.154680811358
    H            0.829642203271    -1.120219021659    -1.035819052259
    H            0.832973337640    -1.135811499391     0.706491219069
    C            3.418017331350    -0.585239975186    -0.165508830410
    H            2.207953405059     0.966486940545    -1.018780837792
    H            2.211451624500     0.951128073950     0.720709374853
    C            4.723033739539     0.203383404734    -0.163259289838
    H            3.387412519219    -1.229504610373    -1.039704446207
    H            3.392700333551    -1.243051803388     0.698670855006
    H            4.793623208335     0.846164020061    -1.034376601831
    H            5.580994141638    -0.458763520528    -0.170961789586
    H            4.798760789387     0.832516738575     0.717304167658

  Mulliken Charges: (a.u.)
   Center  Symbol    Alpha    Beta     Spin     Total
       1     O     4.20287  4.20287  0.00000 -0.40575
       2     C     2.81287  2.81287  0.00000  0.37426
       3     C     3.14130  3.14130  0.00000 -0.28260
       4     O     4.14619  4.14619  0.00000 -0.29237
       5     H     0.44208  0.44208  0.00000  0.11585
       6     H     0.44195  0.44195  0.00000  0.11611
       7     H     0.44221  0.44221  0.00000  0.11559
       8     C     2.98037  2.98037  0.00000  0.03927
       9     C     3.08142  3.08142  0.00000 -0.16284
      10     H     0.45618  0.45618  0.00000  0.08763
      11     H     0.44870  0.44870  0.00000  0.10260
      12     C     3.09803  3.09803  0.00000 -0.19606
      13     H     0.45051  0.45051  0.00000  0.09899
      14     H     0.45130  0.45130  0.00000  0.09741
      15     C     3.08495  3.08495  0.00000 -0.16989
      16     H     0.45338  0.45338  0.00000  0.09323
      17     H     0.45236  0.45236  0.00000  0.09527
      18     C     3.14960  3.14960  0.00000 -0.29920
      19     H     0.45354  0.45354  0.00000  0.09292
      20     H     0.45340  0.45340  0.00000  0.09319
      21     H     0.45469  0.45469  0.00000  0.09062
      22     H     0.44769  0.44769  0.00000  0.10463
      23     H     0.45443  0.45443  0.00000  0.09115

   Total alpha = 36.00000, Total beta = 36.00000, Total charge =  0.00000

*** Psi4 exiting successfully. Buy a developer a beer!
