  ==> Input File <==

--------------------------------------------------------------------------
set {
	reference rhf
	basis 6-31G*
}

set_num_threads( 1 )
memory 2 gb

molecule MOL {
0 1

O	 0.141159	 -0.083912	 0.638996
C	 1.122059	 0.121804	 -0.000188
C	 1.347907	 1.308683	 -0.904736
O	 2.172624	 -0.688929	 0.000216
C	 0.167996	 2.274956	 -0.943052
H	 2.253298	 1.806091	 -0.567681
H	 1.573766	 0.923591	 -1.895416
C	 0.422749	 3.467316	 -1.866493
H	 -0.040309	 2.626297	 0.062768
H	 -0.720983	 1.742372	 -1.266430
C	 -0.754974	 4.439900	 -1.911812
H	 1.314946	 3.996928	 -1.538510
H	 0.633468	 3.109546	 -2.872310
H	 -0.968802	 4.841958	 -0.925769
H	 -0.548588	 5.275716	 -2.572942
H	 -1.654973	 3.948400	 -2.269679
C	 3.452279	 -0.082609	 0.000533
H	 3.583069	 0.529321	 -0.880332
H	 4.163299	 -0.894027	 0.001117
H	 3.582335	 0.529955	 0.881077

	symmetry c1
}
set optking {
	frozen_dihedral = ("
		9 5 8 12,
		1 2 3 6,
		9 5 3 6
	")
}

ee = energy('scf')
oeprop('DIPOLE', 'QUADRUPOLE', 'MULLIKEN_CHARGES')
f=open( 'psi4out.xyz', 'w' )
f.write( "20  " )
f.write( str(ee) + "\n" )
f.write( MOL.save_string_xyz() )
f.close()
--------------------------------------------------------------------------

    Molecular point group: c1

    Geometry (in Angstrom), charge = 0, multiplicity = 1:

       Center              X                  Y                   Z               Mass
    ------------   -----------------  -----------------  -----------------  -----------------
           O         -0.887224044792    -1.416206684721     1.252667463247    15.994914619560
           C          0.093675955208    -1.210490684721     0.613483463247    12.000000000000
           C          0.319523955208    -0.023611684721    -0.291064536753    12.000000000000
           O          1.144240955208    -2.021223684721     0.613887463247    15.994914619560
           C         -0.860387044792     0.942661315279    -0.329380536753    12.000000000000
           H          1.224914955208     0.473796315279     0.045990463247     1.007825032070
           H          0.545382955208    -0.408703684721    -1.281744536753     1.007825032070
           C         -0.605634044792     2.135021315279    -1.252821536753    12.000000000000
           H         -1.068692044792     1.294002315279     0.676439463247     1.007825032070
           H         -1.749366044792     0.410077315279    -0.652758536753     1.007825032070
           C         -1.783357044792     3.107605315279    -1.298140536753    12.000000000000
           H          0.286562955208     2.664633315279    -0.924838536753     1.007825032070
           H         -0.394915044792     1.777251315279    -2.258638536753     1.007825032070
           H         -1.997185044792     3.509663315279    -0.312097536753     1.007825032070
           H         -1.576971044792     3.943421315279    -1.959270536753     1.007825032070
           H         -2.683356044792     2.616105315279    -1.656007536753     1.007825032070
           C          2.423895955208    -1.414903684721     0.614204463247    12.000000000000
           H          2.554685955208    -0.802973684721    -0.266660536753     1.007825032070
           H          3.134915955208    -2.226321684721     0.614788463247     1.007825032070
           H          2.553951955208    -0.802339684721     1.494748463247     1.007825032070

  Charge       = 0
  Multiplicity = 1
  Basis Set: 6-31G*
  Basis Set:

    Orbital Energies (a.u.)
    -----------------------

    Doubly Occupied:

       1A    -20.599513     2A    -20.549335     3A    -11.374652
       4A    -11.297344     5A    -11.240575     6A    -11.223909
       7A    -11.222707     8A    -11.213330     9A     -1.466431
      10A     -1.369688    11A     -1.091644    12A     -1.018067
      13A     -0.986472    14A     -0.905069    15A     -0.811676
      16A     -0.766343    17A     -0.700384    18A     -0.687953
      19A     -0.679717    20A     -0.649638    21A     -0.614943
      22A     -0.592033    23A     -0.584643    24A     -0.558888
      25A     -0.542204    26A     -0.523824    27A     -0.501300
      28A     -0.481822    29A     -0.478140    30A     -0.473951
      31A     -0.454316    32A     -0.430439

  @DF-RHF Final Energy:  -383.91559043279375

   => Energetics <=

    Nuclear Repulsion Energy =            385.8229529672917693
    One-Electron Energy =               -1287.2951061756534727
    Two-Electron Energy =                 517.5565627755678406
    DFT Exchange-Correlation Energy =       0.0000000000000000
    Empirical Dispersion Energy =           0.0000000000000000
    PCM Polarization Energy =               0.0000000000000000
    EFP Energy =                            0.0000000000000000
    Total Energy =                       -383.9155904327939197

  Mulliken Charges: (a.u.)
   Center  Symbol    Alpha    Beta     Spin     Total
       1     O     4.26601  4.26601  0.00000 -0.53202
       2     C     2.59686  2.59686  0.00000  0.80628
       3     C     3.23928  3.23928  0.00000 -0.47857
       4     O     4.30195  4.30195  0.00000 -0.60390
       5     C     3.14784  3.14784  0.00000 -0.29568
       6     H     0.40360  0.40360  0.00000  0.19280
       7     H     0.39882  0.39882  0.00000  0.20237
       8     C     3.15412  3.15412  0.00000 -0.30825
       9     H     0.41155  0.41155  0.00000  0.17690
      10     H     0.40983  0.40983  0.00000  0.18033
      11     C     3.23951  3.23951  0.00000 -0.47903
      12     H     0.42467  0.42467  0.00000  0.15065
      13     H     0.42334  0.42334  0.00000  0.15331
      14     H     0.41964  0.41964  0.00000  0.16072
      15     H     0.41859  0.41859  0.00000  0.16282
      16     H     0.41906  0.41906  0.00000  0.16188
      17     C     3.10361  3.10361  0.00000 -0.20722
      18     H     0.41264  0.41264  0.00000  0.17472
      19     H     0.39772  0.39772  0.00000  0.20456
      20     H     0.41135  0.41135  0.00000  0.17730

   Total alpha = 32.00000, Total beta = 32.00000, Total charge =  0.00000
