  ==> Input File <==

--------------------------------------------------------------------------
set {
	reference rhf
	basis 6-31G*
}

set_num_threads( 4 )
memory 2 gb

molecule MOL {
0 1

O	 -2.439739	 -0.935931	 -0.423848
C	 -1.921153	 0.064240	 -0.045697
C	 -2.624470	 1.379923	 0.150949
O	 -0.632575	 0.154573	 0.251549
H	 -2.168117	 2.136577	 -0.476876
H	 -3.669540	 1.273223	 -0.098610
H	 -2.519365	 1.700893	 1.180846
C	 0.160891	 -1.019931	 0.106212
C	 1.589627	 -0.672828	 0.480843
H	 0.089836	 -1.367806	 -0.916050
H	 -0.238459	 -1.792301	 0.749618
C	 2.246377	 0.346236	 -0.452210
H	 2.163194	 -1.597435	 0.473358
H	 1.604769	 -0.303424	 1.502885
C	 3.258844	 1.234497	 0.269526
H	 2.742005	 -0.179952	 -1.265585
H	 1.478656	 0.964353	 -0.905966
H	 3.709457	 1.948432	 -0.412587
H	 4.059331	 0.644467	 0.706978
H	 2.786648	 1.795793	 1.070809

	symmetry c1
}
set optking {
	frozen_dihedral = ("
		16 12 9 8
	")
}

ee = optimize('scf')
oeprop('DIPOLE', 'QUADRUPOLE', 'MULLIKEN_CHARGES')
f=open( 'psi4out.xyz', 'w' )
f.write( "20  " )
f.write( str(ee) + "\n" )
f.write( MOL.save_string_xyz() )
f.close()
--------------------------------------------------------------------------

    Molecular point group: c1
  Charge       = 0
  Multiplicity = 1
  Basis Set: 6-31G*
  Basis Set:
  @DF-RHF Final Energy:  -383.94258080218771
    Total Energy =                       -383.9425808021876492
    Molecular point group: c1
  Basis Set: 6-31G*
  Basis Set:
  Basis Set: 6-31G*
  Basis Set:
  @DF-RHF Final Energy:  -383.94272065879574
    Total Energy =                       -383.9427206587957926
  Basis Set: 6-31G*
  Basis Set:
  Basis Set: 6-31G*
  Basis Set:
  @DF-RHF Final Energy:  -383.94171632781212
    Total Energy =                       -383.9417163278127418
  Basis Set: 6-31G*
  Basis Set:
  Basis Set: 6-31G*
  Basis Set:
  @DF-RHF Final Energy:  -383.94285859672124
    Total Energy =                       -383.9428585967214076
  Basis Set: 6-31G*
  Basis Set:
  Basis Set: 6-31G*
  Basis Set:
  @DF-RHF Final Energy:  -383.94286618751318
    Total Energy =                       -383.9428661875128910
  Basis Set: 6-31G*
  Basis Set:
  Basis Set: 6-31G*
  Basis Set:
  @DF-RHF Final Energy:  -383.94287344326187
    Total Energy =                       -383.9428734432616466
  Basis Set: 6-31G*
  Basis Set:
  Charge       = 0
  Multiplicity = 1
  Basis Set: 6-31G*
  Basis Set:

    Orbital Energies (a.u.)
    -----------------------

    Doubly Occupied:

       1A    -20.602236     2A    -20.544363     3A    -11.374855
       4A    -11.282409     5A    -11.233676     6A    -11.225188
       7A    -11.220551     8A    -11.212610     9A     -1.468332
      10A     -1.362634    11A     -1.084618    12A     -1.028002
      13A     -0.981215    14A     -0.879774    15A     -0.810184
      16A     -0.776740    17A     -0.690342    18A     -0.683006
      19A     -0.666963    20A     -0.628207    21A     -0.603893
      22A     -0.592528    23A     -0.573987    24A     -0.551612
      25A     -0.538158    26A     -0.534044    27A     -0.513288
      28A     -0.481375    29A     -0.474336    30A     -0.470858
      31A     -0.448934    32A     -0.438919

  @DF-RHF Final Energy:  -383.94287396964825

   => Energetics <=

    Nuclear Repulsion Energy =            386.5727802131462454
    One-Electron Energy =               -1289.0756420149878068
    Two-Electron Energy =                 518.5599878321935421
    DFT Exchange-Correlation Energy =       0.0000000000000000
    Empirical Dispersion Energy =           0.0000000000000000
    PCM Polarization Energy =               0.0000000000000000
    EFP Energy =                            0.0000000000000000
    Total Energy =                       -383.9428739696480761
    Molecular point group: c1
  Basis Set: 6-31G*
  Basis Set:

  -Total Gradient:
     Atom            X                  Y                   Z
    ------   -----------------  -----------------  -----------------
       1        0.000021002236     0.000002585560    -0.000007754985
       2       -0.000008516089     0.000009051276     0.000000561941
       3       -0.000006032877     0.000001632991     0.000003865414
       4       -0.000020073238    -0.000008216891    -0.000020253655
       5       -0.000001380014    -0.000000577938     0.000000281665
       6       -0.000000923007     0.000002546056     0.000000857175
       7       -0.000000079314     0.000001949968     0.000000488306
       8       -0.001021310722     0.002197721828     0.001733327803
       9        0.002185095290    -0.003096455074    -0.001827295441
      10       -0.000008901393    -0.000001927753    -0.000021102179
      11        0.000021726230     0.000000512517    -0.000017139461
      12       -0.004473310420     0.001052588421    -0.002047862231
      13        0.000008020380     0.000002109167    -0.000010840872
      14       -0.000001566886     0.000003125027     0.000001322237
      15       -0.000004235351    -0.000001973483     0.000015669211
      16        0.003298693936    -0.000150554879     0.002189856209
      17        0.000009236495    -0.000014602618     0.000004035470
      18       -0.000006238594    -0.000000118826    -0.000001475316
      19        0.000004963252     0.000000390400    -0.000001366661
      20        0.000003830087     0.000000214250     0.000004825367

  **** Optimization is complete! (in 7 steps) ****
    Final optimized geometry and variables:
    Molecular point group: c1

    Geometry (in Angstrom), charge = 0, multiplicity = 1:

    O           -2.381901598844    -1.009302996939    -0.491457178037
    C           -1.869417815420    -0.014289972852    -0.092152077829
    C           -2.579721865463     1.294162098172     0.127121998102
    O           -0.583808730791     0.074664831565     0.218631130184
    H           -2.122671929526     2.065587976105    -0.481908957488
    H           -3.622619106150     1.188060512693    -0.131623299434
    H           -2.482749865748     1.594113209734     1.164148904350
    C            0.215612135472    -1.093725209616     0.059340171684
    C            1.639168631945    -0.735936578326     0.446321660317
    H            0.147472313587    -1.429307949344    -0.967403213479
    H           -0.180590840085    -1.876181734434     0.692382032707
    C            2.306566409000     0.278944153307    -0.496342513284
    H            2.223081994623    -1.651387153646     0.487316331678
    H            1.614161008282    -0.339530095914     1.457782717513
    C            3.337956555149     1.152407714629     0.219930701567
    H            2.813569604575    -0.254163240680    -1.296587508833
    H            1.554324092780     0.913054886557    -0.952087292691
    H            3.828230040099     1.828770138227    -0.473316989352
    H            4.107704513187     0.546042160738     0.689697911430
    H            2.870282459970     1.751717071942     0.995525160989

  Mulliken Charges: (a.u.)
   Center  Symbol    Alpha    Beta     Spin     Total
       1     O     4.28300  4.28300  0.00000 -0.56600
       2     C     2.61943  2.61943  0.00000  0.76115
       3     C     3.28166  3.28166  0.00000 -0.56331
       4     O     4.30807  4.30807  0.00000 -0.61613
       5     H     0.40085  0.40085  0.00000  0.19830
       6     H     0.39680  0.39680  0.00000  0.20641
       7     H     0.40051  0.40051  0.00000  0.19898
       8     C     3.00470  3.00470  0.00000 -0.00940
       9     C     3.16585  3.16585  0.00000 -0.33170
      10     H     0.41048  0.41048  0.00000  0.17904
      11     H     0.40889  0.40889  0.00000  0.18223
      12     C     3.15627  3.15627  0.00000 -0.31253
      13     H     0.41577  0.41577  0.00000  0.16845
      14     H     0.41364  0.41364  0.00000  0.17273
      15     C     3.24094  3.24094  0.00000 -0.48189
      16     H     0.42085  0.42085  0.00000  0.15829
      17     H     0.41210  0.41210  0.00000  0.17579
      18     H     0.41886  0.41886  0.00000  0.16229
      19     H     0.42188  0.42188  0.00000  0.15625
      20     H     0.41948  0.41948  0.00000  0.16105

   Total alpha = 32.00000, Total beta = 32.00000, Total charge =  0.00000
