  ==> Input File <==

--------------------------------------------------------------------------
set {
	reference rhf
	basis 6-31G*
}

set_num_threads( 4 )
memory 2 gb

molecule MOL {
0 1

H	 -0.000158	 1.970498	 0.756846
O	 -0.000074	 1.880206	 -0.189275
C	 -0.000015	 0.544847	 -0.545111
C	 -0.648993	 0.372628	 -1.914473
C	 -0.649203	 -0.285920	 0.556879
H	 1.028219	 0.226045	 -0.629979
F	 0.025368	 1.058121	 -2.812738
F	 -0.676569	 -0.885912	 -2.298761
F	 -1.891206	 0.829192	 -1.907053
F	 0.024837	 -0.138126	 1.677309
F	 -0.676522	 -1.568841	 0.264051
F	 -1.891523	 0.113644	 0.777257

	symmetry c1
}
set optking {
	frozen_dihedral = ("
		6 3 2 1
	")
}

ee = optimize('scf')
oeprop('DIPOLE', 'QUADRUPOLE', 'MULLIKEN_CHARGES')
f=open( 'psi4out.xyz', 'w' )
f.write( "12  " )
f.write( str(ee) + "\n" )
f.write( MOL.save_string_xyz() )
f.close()
--------------------------------------------------------------------------

    Molecular point group: c1
  Charge       = 0
  Multiplicity = 1
  Basis Set: 6-31G*
  Basis Set:
  @DF-RHF Final Energy:  -786.27226506365707
    Total Energy =                       -786.2722650636569597
    Molecular point group: c1
  Basis Set: 6-31G*
  Basis Set:
  Basis Set: 6-31G*
  Basis Set:
  @DF-RHF Final Energy:  -786.27423834342858
    Total Energy =                       -786.2742383434288058
  Basis Set: 6-31G*
  Basis Set:
  Basis Set: 6-31G*
  Basis Set:
  @DF-RHF Final Energy:  -786.27468012582233
    Total Energy =                       -786.2746801258219875
  Basis Set: 6-31G*
  Basis Set:
  Basis Set: 6-31G*
  Basis Set:
  @DF-RHF Final Energy:  -786.27476935619188
    Total Energy =                       -786.2747693561916549
  Basis Set: 6-31G*
  Basis Set:
  Basis Set: 6-31G*
  Basis Set:
  @DF-RHF Final Energy:  -786.27478737602860
    Total Energy =                       -786.2747873760283710
  Basis Set: 6-31G*
  Basis Set:
  Basis Set: 6-31G*
  Basis Set:
  @DF-RHF Final Energy:  -786.27479193738475
    Total Energy =                       -786.2747919373849754
  Basis Set: 6-31G*
  Basis Set:
  Charge       = 0
  Multiplicity = 1
  Basis Set: 6-31G*
  Basis Set:

    Orbital Energies (a.u.)
    -----------------------

    Doubly Occupied:

       1A    -26.370912     2A    -26.366698     3A    -26.364761
       4A    -26.355396     5A    -26.351562     6A    -26.351118
       7A    -20.614106     8A    -11.532075     9A    -11.520620
      10A    -11.349166    11A     -1.768701    12A     -1.753739
      13A     -1.665794    14A     -1.663645    15A     -1.650818
      16A     -1.649108    17A     -1.432866    18A     -1.103564
      19A     -0.997761    20A     -0.935646    21A     -0.869693
      22A     -0.860881    23A     -0.855816    24A     -0.841179
      25A     -0.830713    26A     -0.789818    27A     -0.750457
      28A     -0.734442    29A     -0.718706    30A     -0.717324
      31A     -0.709936    32A     -0.688208    33A     -0.684599
      34A     -0.668245    35A     -0.667301    36A     -0.663587
      37A     -0.651857    38A     -0.646409    39A     -0.615592
      40A     -0.546519    41A     -0.503656

  @DF-RHF Final Energy:  -786.27479305617294

   => Energetics <=

    Nuclear Repulsion Energy =            670.7691591359032373
    One-Electron Energy =               -2428.4619142278220352
    Two-Electron Energy =                 971.4179620357465410
    DFT Exchange-Correlation Energy =       0.0000000000000000
    Empirical Dispersion Energy =           0.0000000000000000
    PCM Polarization Energy =               0.0000000000000000
    EFP Energy =                            0.0000000000000000
    Total Energy =                       -786.2747930561722569
    Molecular point group: c1
  Basis Set: 6-31G*
  Basis Set:

  -Total Gradient:
     Atom            X                  Y                   Z
    ------   -----------------  -----------------  -----------------
       1       -0.002600022017     0.000018275974     0.000118254782
       2        0.003232055925     0.000052942746    -0.000814784352
       3       -0.000502030413    -0.000652468122     0.002836084058
       4       -0.000109440730     0.000101642018    -0.000021696011
       5       -0.000111170688    -0.000010034492     0.000005273902
       6       -0.000089237437     0.000569896874    -0.002181390515
       7        0.000054285975     0.000012298895    -0.000021461230
       8        0.000031936357    -0.000084048029     0.000002065794
       9        0.000003796390    -0.000003788873     0.000042823298
      10        0.000039010560     0.000009633496     0.000058915708
      11       -0.000004300884     0.000003975696    -0.000003180989
      12        0.000055116963    -0.000018326199    -0.000020904438

  **** Optimization is complete! (in 7 steps) ****
    Final optimized geometry and variables:
    Molecular point group: c1

    Geometry (in Angstrom), charge = 0, multiplicity = 1:

    H            0.745366601693     1.811760303439     1.363830104380
    O            0.707177109274     1.688858647146     0.424402189568
    C            0.683138168696     0.345641745275     0.094085060021
    C           -0.007652396528     0.239764467140    -1.260060936741
    C            0.006397196963    -0.482741869771     1.179830007495
    H            1.681970122184    -0.054887350827    -0.042207391309
    F            0.694297653411     0.891736645315    -2.163246263877
    F           -0.083776944459    -1.024167721988    -1.638704909344
    F           -1.222380243767     0.737467276154    -1.245621082501
    F            0.567790823720    -0.178673115994     2.345591976591
    F            0.168873945507    -1.770814265962     0.977431964881
    F           -1.279647752818    -0.235457516336     1.288380563135

  Mulliken Charges: (a.u.)
   Center  Symbol    Alpha    Beta     Spin     Total
       1     H     0.26271  0.26271  0.00000  0.47458
       2     O     4.37093  4.37093  0.00000 -0.74185
       3     C     3.03104  3.03104  0.00000 -0.06209
       4     C     2.43644  2.43644  0.00000  1.12711
       5     C     2.45704  2.45704  0.00000  1.08591
       6     H     0.38681  0.38681  0.00000  0.22637
       7     F     4.67656  4.67656  0.00000 -0.35312
       8     F     4.67946  4.67946  0.00000 -0.35892
       9     F     4.67119  4.67119  0.00000 -0.34239
      10     F     4.68673  4.68673  0.00000 -0.37347
      11     F     4.67146  4.67146  0.00000 -0.34293
      12     F     4.66961  4.66961  0.00000 -0.33921

   Total alpha = 41.00000, Total beta = 41.00000, Total charge = -0.00000
