                              Psi4 1.0.54 Driver

  ==> Input File <==

--------------------------------------------------------------------------
set {
	reference rhf
	basis cc-pvtz
}

set_num_threads( 4 )
memory 2 gb

molecule MOL {
0 1

H	 -3.436473	 1.252944	 -1.023892
O	 -3.458596	 0.315260	 -0.960865
C	 -3.176635	 -0.080824	 0.355601
C	 -1.763371	 0.265266	 0.799691
H	 -3.321825	 -1.153438	 0.379502
H	 -3.895468	 0.357385	 1.043382
C	 -1.017273	 1.177600	 -0.169487
H	 -1.806068	 0.730517	 1.783349
H	 -1.212901	 -0.663703	 0.927704
C	 0.386404	 1.541399	 0.307283
H	 -1.594639	 2.082222	 -0.325123
H	 -0.952889	 0.687211	 -1.137929
C	 1.129544	 2.450541	 -0.669576
H	 0.315072	 2.020719	 1.278907
H	 0.963882	 0.631575	 0.457606
C	 2.570624	 2.778243	 -0.274928
H	 0.572810	 3.376860	 -0.791353
H	 1.140385	 1.974555	 -1.646275
C	 2.709872	 3.623805	 0.988709
H	 3.040183	 3.306256	 -1.099241
H	 3.127881	 1.853123	 -0.152300
H	 2.157433	 4.553624	 0.897472
H	 3.748693	 3.874673	 1.170805
H	 2.342381	 3.105791	 1.866329

	symmetry c1
}
set optking {
	frozen_dihedral = ("
		7 4 3 2
	")
}

ee,wfn = optimize('scf', return_wfn=True)
oeprop( wfn, 'DIPOLE', 'QUADRUPOLE', 'MULLIKEN_CHARGES')
f=open( 'psi4out.xyz', 'w' )
f.write( "24  " )
f.write( str(ee) + "\n" )
f.write( MOL.save_string_xyz() )
f.close()
--------------------------------------------------------------------------

    Molecular point group: c1
  Charge       = 0
  Multiplicity = 1
  Basis Set: CC-PVTZ
  Basis Set:
  @DF-RHF Final Energy:  -349.37072000360752
    Total Energy =                       -349.3707200036073459
    Molecular point group: c1
  Basis Set: CC-PVTZ
  Basis Set:
  Basis Set: CC-PVTZ
  Basis Set:
  @DF-RHF Final Energy:  -349.37128951028370
    Total Energy =                       -349.3712895102836455
  Basis Set: CC-PVTZ
  Basis Set:
  Basis Set: CC-PVTZ
  Basis Set:
  @DF-RHF Final Energy:  -349.37214286410415
    Total Energy =                       -349.3721428641041484
  Basis Set: CC-PVTZ
  Basis Set:
  Basis Set: CC-PVTZ
  Basis Set:
  @DF-RHF Final Energy:  -349.37219041779554
    Total Energy =                       -349.3721904177954798
  Basis Set: CC-PVTZ
  Basis Set:
  Basis Set: CC-PVTZ
  Basis Set:
  @DF-RHF Final Energy:  -349.37219383519113
    Total Energy =                       -349.3721938351907852
  Basis Set: CC-PVTZ
  Basis Set:
  Charge       = 0
  Multiplicity = 1
  Basis Set: CC-PVTZ
  Basis Set:

    Orbital Energies (a.u.)
    -----------------------

    Doubly Occupied:

       1A    -20.545309     2A    -11.265821     3A    -11.214156
       4A    -11.213536     5A    -11.213246     6A    -11.211715
       7A    -11.211038     8A    -11.206324     9A     -1.363270
      10A     -1.090649    11A     -1.047481    12A     -0.985366
      13A     -0.919484    14A     -0.854103    15A     -0.794280
      16A     -0.778496    17A     -0.693267    18A     -0.649410
      19A     -0.626456    20A     -0.611862    21A     -0.604929
      22A     -0.588459    23A     -0.559347    24A     -0.543458
      25A     -0.518456    26A     -0.512349    27A     -0.495366
      28A     -0.482205    29A     -0.463900    30A     -0.459574
      31A     -0.454253    32A     -0.447212    33A     -0.423285

  @DF-RHF Final Energy:  -349.37219477323862

   => Energetics <=

    Nuclear Repulsion Energy =            385.6310827201844518
    One-Electron Energy =               -1237.9104371006565088
    Two-Electron Energy =                 502.9071596072334387
    DFT Exchange-Correlation Energy =       0.0000000000000000
    Empirical Dispersion Energy =           0.0000000000000000
    PCM Polarization Energy =               0.0000000000000000
    EFP Energy =                            0.0000000000000000
    Total Energy =                       -349.3721947732386752
    Molecular point group: c1
  Basis Set: CC-PVTZ
  Basis Set:

  -Total Gradient:
     Atom            X                  Y                   Z
    ------   -----------------  -----------------  -----------------
       1       -0.000006942829     0.000011522668    -0.000058744680
       2       -0.000692714618     0.002058617852     0.000519088463
       3        0.001326678690    -0.003436425493    -0.001204522354
       4       -0.001364063161     0.003059901107     0.001569343785
       5        0.000043232865    -0.000007296985     0.000077619935
       6        0.000058593021    -0.000021280130     0.000043200962
       7        0.000665769161    -0.001631724493    -0.000931456129
       8        0.000000547035    -0.000013471876     0.000005870833
       9       -0.000033669592    -0.000013239640    -0.000000914666
      10        0.000020790922    -0.000020963936     0.000003097167
      11       -0.000000956193    -0.000007072190    -0.000018280396
      12        0.000015880395     0.000008309494     0.000009335543
      13       -0.000001503883     0.000039600199    -0.000005487538
      14       -0.000020363889    -0.000015513025    -0.000021200647
      15       -0.000007294377    -0.000007124888     0.000003672096
      16       -0.000002448796    -0.000025555408     0.000009024722
      17        0.000002246409    -0.000001061931    -0.000000228429
      18        0.000012052215     0.000014300822     0.000005098449
      19       -0.000009160490     0.000012974365     0.000008243709
      20       -0.000012953418    -0.000015797488    -0.000007078064
      21       -0.000007175969     0.000000298088     0.000001786659
      22        0.000001613922    -0.000001515646     0.000008122008
      23       -0.000005420953     0.000003188395    -0.000006512238
      24        0.000017263528     0.000009330136    -0.000009079186

  **** Optimization is complete! (in 6 steps) ****
    Final optimized geometry and variables:
    Molecular point group: c1

    Geometry (in Angstrom), charge = 0, multiplicity = 1:

    H           -3.235120030947    -0.282627322230    -1.111636015606
    O           -3.172319035376    -1.213017897605    -1.002826412743
    C           -2.848359208184    -1.526118493245     0.325907300909
    C           -1.415025862376    -1.141688274504     0.762413621536
    H           -2.984477623410    -2.594115986355     0.413408740906
    H           -3.568690059176    -1.061352167751     0.993123451844
    C           -0.638022337042    -0.269529681170    -0.222325826769
    H           -1.463033581723    -0.640525550746     1.724007764043
    H           -0.843333196544    -2.049517940738     0.927054236904
    C            0.772029295611     0.050343080495     0.268260354734
    H           -1.167950052685     0.666041389925    -0.391468658988
    H           -0.585464934195    -0.767852741424    -1.182695011609
    C            1.556476743208     0.925490213119    -0.707516510158
    H            0.709524513653     0.537134182211     1.236503201826
    H            1.313530815431    -0.879285627315     0.428103422989
    C            3.006404381333     1.198586639083    -0.303721016928
    H            1.038140276771     1.873071101461    -0.837341632228
    H            1.555540228732     0.444761816855    -1.681817418923
    C            3.169727417825     2.044076332946     0.957102330345
    H            3.501995198940     1.703714994970    -1.127092328283
    H            3.525884817506     0.252925244985    -0.173080117834
    H            2.653138640042     2.993613974392     0.858715751204
    H            4.216091183320     2.256776874533     1.144227215712
    H            2.778181548549     1.544161603450     1.834763483257

  Mulliken Charges: (a.u.)
   Center  Symbol    Alpha    Beta     Spin     Total
       1     H     0.39158  0.39158  0.00000  0.21684
       2     O     4.20230  4.20230  0.00000 -0.40461
       3     C     2.97315  2.97315  0.00000  0.05369
       4     C     3.11214  3.11214  0.00000 -0.22427
       5     H     0.45354  0.45354  0.00000  0.09292
       6     H     0.46633  0.46633  0.00000  0.06734
       7     C     3.09028  3.09028  0.00000 -0.18055
       8     H     0.45277  0.45277  0.00000  0.09445
       9     H     0.45280  0.45280  0.00000  0.09439
      10     C     3.09366  3.09366  0.00000 -0.18732
      11     H     0.46340  0.46340  0.00000  0.07321
      12     H     0.44010  0.44010  0.00000  0.11980
      13     C     3.09443  3.09443  0.00000 -0.18887
      14     H     0.45372  0.45372  0.00000  0.09256
      15     H     0.45400  0.45400  0.00000  0.09200
      16     C     3.09060  3.09060  0.00000 -0.18119
      17     H     0.45506  0.45506  0.00000  0.08988
      18     H     0.44905  0.44905  0.00000  0.10189
      19     C     3.15253  3.15253  0.00000 -0.30507
      20     H     0.44848  0.44848  0.00000  0.10304
      21     H     0.45461  0.45461  0.00000  0.09078
      22     H     0.45527  0.45527  0.00000  0.08945
      23     H     0.44634  0.44634  0.00000  0.10732
      24     H     0.45383  0.45383  0.00000  0.09233

   Total alpha = 33.00000, Total beta = 33.00000, Total charge = -0.00000

*** Psi4 exiting successfully. Buy a developer a beer!
