  ==> Input File <==

--------------------------------------------------------------------------
set {
	reference rhf
	basis 6-31G*
}

set_num_threads( 4 )
memory 2 gb

molecule MOL {
0 1

H	 -1.070890	 -1.366565	 0.180696
O	 -1.422729	 -0.573567	 -0.196946
C	 -0.731407	 0.539437	 0.309156
C	 0.680193	 0.672443	 -0.251532
H	 -1.319765	 1.404033	 0.030086
H	 -0.700012	 0.506517	 1.397677
C	 1.769975	 0.206726	 0.714483
H	 0.741195	 0.102164	 -1.173869
H	 0.846927	 1.715807	 -0.510631
H	 1.676022	 -0.851788	 0.937903
H	 2.757105	 0.357906	 0.290591
H	 1.727365	 0.755098	 1.652425

	symmetry c1
}
set optking {
	frozen_dihedral = ("
		8 4 3 2
	")
}

ee = optimize('scf')
oeprop('DIPOLE', 'QUADRUPOLE', 'MULLIKEN_CHARGES')
f=open( 'psi4out.xyz', 'w' )
f.write( "12  " )
f.write( str(ee) + "\n" )
f.write( MOL.save_string_xyz() )
f.close()
--------------------------------------------------------------------------

    Molecular point group: c1
  Charge       = 0
  Multiplicity = 1
  Basis Set: 6-31G*
  Basis Set:
  @DF-RHF Final Energy:  -193.10486509174027
    Total Energy =                       -193.1048650917402369
    Molecular point group: c1
  Basis Set: 6-31G*
  Basis Set:
  Basis Set: 6-31G*
  Basis Set:
  @DF-RHF Final Energy:  -193.10525949674692
    Total Energy =                       -193.1052594967468679
  Basis Set: 6-31G*
  Basis Set:
  Basis Set: 6-31G*
  Basis Set:
  @DF-RHF Final Energy:  -193.10535171102120
    Total Energy =                       -193.1053517110211430
  Basis Set: 6-31G*
  Basis Set:
  Basis Set: 6-31G*
  Basis Set:
  @DF-RHF Final Energy:  -193.10535363359071
    Total Energy =                       -193.1053536335906813
  Basis Set: 6-31G*
  Basis Set:
  Charge       = 0
  Multiplicity = 1
  Basis Set: 6-31G*
  Basis Set:

    Orbital Energies (a.u.)
    -----------------------

    Doubly Occupied:

       1A    -20.552809     2A    -11.267683     3A    -11.218638
       4A    -11.217704     5A     -1.358930     6A     -1.050305
       7A     -0.922243     8A     -0.815049     9A     -0.692593
      10A     -0.639396    11A     -0.592819    12A     -0.580700
      13A     -0.555959    14A     -0.508861    15A     -0.488279
      16A     -0.465361    17A     -0.429878

  @DF-RHF Final Energy:  -193.10535395177885

   => Energetics <=

    Nuclear Repulsion Energy =            131.6466763288628954
    One-Electron Energy =                -522.7896437847089146
    Two-Electron Energy =                 198.0376135040672523
    DFT Exchange-Correlation Energy =       0.0000000000000000
    Empirical Dispersion Energy =           0.0000000000000000
    PCM Polarization Energy =               0.0000000000000000
    EFP Energy =                            0.0000000000000000
    Total Energy =                       -193.1053539517787669
    Molecular point group: c1
  Basis Set: 6-31G*
  Basis Set:

  -Total Gradient:
     Atom            X                  Y                   Z
    ------   -----------------  -----------------  -----------------
       1        0.000015286420     0.000024648720     0.000012744741
       2       -0.001307842530     0.001965994482    -0.002676264473
       3        0.002077703211    -0.003407971388     0.004122674790
       4       -0.002067488761     0.004963895008    -0.003806836907
       5        0.000003990762    -0.000000371628    -0.000012517289
       6        0.000009010825    -0.000024117511    -0.000012060216
       7       -0.000009075301    -0.000003073970     0.000010177786
       8        0.001322064203    -0.003530491030     0.002326706487
       9       -0.000041205410    -0.000001137301     0.000036526178
      10        0.000001779523     0.000004757995    -0.000002271908
      11       -0.000009255071    -0.000017463274     0.000000597448
      12        0.000005032128     0.000025329900     0.000000523364

  **** Optimization is complete! (in 5 steps) ****
    Final optimized geometry and variables:
    Molecular point group: c1

    Geometry (in Angstrom), charge = 0, multiplicity = 1:

    H           -1.038000225778    -1.550515295534    -0.021442168313
    O           -1.457234724228    -0.762453950377    -0.338334347772
    C           -0.784766136464     0.365193321964     0.163884675195
    C            0.636375603702     0.521775084445    -0.398956038336
    H           -1.397609799683     1.206497551089    -0.131206182119
    H           -0.766856260523     0.348365188979     1.252075160914
    C            1.726767730673     0.028031435964     0.556771933747
    H            0.690317195266    -0.056376857630    -1.315883926080
    H            0.824482333713     1.560396957081    -0.653022709843
    H            1.573848502912    -1.014502992294     0.826361083214
    H            2.710784116671     0.106155302901     0.105859600234
    H            1.736939806323     0.605931268341     1.476437182670

  Mulliken Charges: (a.u.)
   Center  Symbol    Alpha    Beta     Spin     Total
       1     H     0.28350  0.28350  0.00000  0.43300
       2     O     4.36933  4.36933  0.00000 -0.73865
       3     C     2.99573  2.99573  0.00000  0.00854
       4     C     3.17359  3.17359  0.00000 -0.34718
       5     H     0.41408  0.41408  0.00000  0.17184
       6     H     0.42939  0.42939  0.00000  0.14122
       7     C     3.24314  3.24314  0.00000 -0.48629
       8     H     0.41018  0.41018  0.00000  0.17964
       9     H     0.41795  0.41795  0.00000  0.16411
      10     H     0.42693  0.42693  0.00000  0.14613
      11     H     0.41628  0.41628  0.00000  0.16743
      12     H     0.41990  0.41990  0.00000  0.16020

   Total alpha = 17.00000, Total beta = 17.00000, Total charge =  0.00000
