  ==> Input File <==

--------------------------------------------------------------------------
set {
	reference rhf
	basis 6-31G*
}

set_num_threads( 4 )
memory 2 gb

molecule MOL {
0 1

H	 -2.752777	 -0.642593	 1.143473
C	 -2.703777	 -0.456385	 0.072461
O	 -1.389815	 -0.302011	 -0.357670
H	 -3.120200	 -1.306520	 -0.450035
H	 -3.305093	 0.423501	 -0.152591
C	 -0.719715	 0.768384	 0.229244
C	 0.719720	 0.768376	 -0.229267
H	 -1.187508	 1.710812	 -0.058324
H	 -0.750327	 0.696067	 1.314526
O	 1.392611	 -0.295398	 0.366430
H	 0.750534	 0.687200	 -1.313918
H	 1.185043	 1.714359	 0.050526
C	 2.706965	 -0.449871	 -0.062409
H	 2.756559	 -0.644779	 -1.131878
H	 3.305899	 0.433456	 0.155466
H	 3.125548	 -1.294566	 0.467107

	symmetry c1
}
set optking {
	frozen_dihedral = ("
		3 6 7 11
	")
}

ee = optimize('scf')
oeprop('DIPOLE', 'QUADRUPOLE', 'MULLIKEN_CHARGES')
f=open( 'psi4out.xyz', 'w' )
f.write( "16  " )
f.write( str(ee) + "\n" )
f.write( MOL.save_string_xyz() )
f.close()
--------------------------------------------------------------------------

    Molecular point group: c1
  Charge       = 0
  Multiplicity = 1
  Basis Set: 6-31G*
  Basis Set:
  @DF-RHF Final Energy:  -306.97773072978634
    Total Energy =                       -306.9777307297863445
    Molecular point group: c1
  Basis Set: 6-31G*
  Basis Set:
  Charge       = 0
  Multiplicity = 1
  Basis Set: 6-31G*
  Basis Set:

    Orbital Energies (a.u.)
    -----------------------

    Doubly Occupied:

       1A    -20.553586     2A    -20.553552     3A    -11.269108
       4A    -11.268449     5A    -11.263550     6A    -11.263537
       7A     -1.388292     8A     -1.370640     9A     -1.030840
      10A     -0.936038    11A     -0.892043    12A     -0.823975
      13A     -0.684162    14A     -0.680472    15A     -0.656947
      16A     -0.635812    17A     -0.629812    18A     -0.597117
      19A     -0.550794    20A     -0.535265    21A     -0.508990
      22A     -0.477501    23A     -0.462655    24A     -0.419677
      25A     -0.410587

  @DF-RHF Final Energy:  -306.97773096703725

   => Energetics <=

    Nuclear Repulsion Energy =            258.8502290345071515
    One-Electron Energy =                -931.9291129404439289
    Two-Electron Energy =                 366.1011529388994745
    DFT Exchange-Correlation Energy =       0.0000000000000000
    Empirical Dispersion Energy =           0.0000000000000000
    PCM Polarization Energy =               0.0000000000000000
    EFP Energy =                            0.0000000000000000
    Total Energy =                       -306.9777309670373029
    Molecular point group: c1
  Basis Set: 6-31G*
  Basis Set:

  -Total Gradient:
     Atom            X                  Y                   Z
    ------   -----------------  -----------------  -----------------
       1       -0.000008014723     0.000005212084    -0.000001635718
       2        0.000016178799    -0.000043405109     0.000006176359
       3        0.000014281067    -0.000049036905     0.000111121633
       4       -0.000017771146    -0.000001686353    -0.000000965364
       5        0.000018273624     0.000006784402    -0.000005247364
       6       -0.000042957477     0.000162440566    -0.000137216594
       7       -0.000005025450    -0.000150654116    -0.000007390176
       8       -0.000001492503     0.000016171223     0.000018339865
       9       -0.000015522521    -0.000025033319    -0.000016121318
      10        0.000062615051    -0.000006685655     0.000017799834
      11       -0.000008298071     0.000140373440    -0.000001334670
      12       -0.000007037430    -0.000021619453     0.000000881860
      13       -0.000019943669    -0.000039743960     0.000017859560
      14        0.000002981771     0.000007205152     0.000000181073
      15       -0.000011182015     0.000003053032     0.000000010459
      16        0.000022914686    -0.000003375029    -0.000002459440

  **** Optimization is complete! (in 2 steps) ****
    Final optimized geometry and variables:
    Molecular point group: c1

    Geometry (in Angstrom), charge = 0, multiplicity = 1:

    H           -2.754619063306    -0.639882082007     1.140442285657
    C           -2.705535425876    -0.453597167262     0.069442960341
    O           -1.391539704492    -0.299787765208    -0.360907549439
    H           -3.122805916960    -1.303250746476    -0.453154128499
    H           -3.305826781388     0.426980011534    -0.155350453999
    C           -0.720696904927     0.770155747046     0.225971015792
    C            0.718669862191     0.769815843101    -0.232771970193
    H           -1.188098703248     1.713180017002    -0.060271064011
    H           -0.751083842748     0.696681808622     1.311161526730
    O            1.392191542467    -0.293388773784     0.363214642209
    H            0.749537040982     0.688896061840    -1.317418578910
    H            1.183647460446     1.716148628636     0.046413596621
    C            2.706822836051    -0.447097001408    -0.065233295638
    H            2.756912663959    -0.642041910246    -1.134640868308
    H            3.304601378691     0.436942622292     0.152555913249
    H            3.126197300062    -1.291279018666     0.464500577501

  Mulliken Charges: (a.u.)
   Center  Symbol    Alpha    Beta     Spin     Total
       1     H     0.42809  0.42809  0.00000  0.14383
       2     C     3.07950  3.07950  0.00000 -0.15900
       3     O     4.30081  4.30081  0.00000 -0.60163
       4     H     0.41127  0.41127  0.00000  0.17746
       5     H     0.43189  0.43189  0.00000  0.13622
       6     C     2.99334  2.99334  0.00000  0.01332
       7     C     2.99333  2.99333  0.00000  0.01334
       8     H     0.43225  0.43225  0.00000  0.13550
       9     H     0.42285  0.42285  0.00000  0.15429
      10     O     4.30080  4.30080  0.00000 -0.60160
      11     H     0.42285  0.42285  0.00000  0.15430
      12     H     0.43229  0.43229  0.00000  0.13542
      13     C     3.07950  3.07950  0.00000 -0.15900
      14     H     0.42808  0.42808  0.00000  0.14385
      15     H     0.43188  0.43188  0.00000  0.13623
      16     H     0.41127  0.41127  0.00000  0.17747

   Total alpha = 25.00000, Total beta = 25.00000, Total charge = -0.00000
