  ==> Input File <==

--------------------------------------------------------------------------
set {
	reference rhf
	basis 6-31G*
}

set_num_threads( 1 )
memory 2 gb

molecule MOL {
0 1

H	 -3.696164	 0.157999	 -0.638796
C	 -3.085163	 0.627040	 -1.420013
C	 -2.108829	 1.665041	 -0.928142
O	 -3.220319	 0.307354	 -2.556360
C	 -1.220012	 1.144545	 0.209990
H	 -1.518542	 2.005954	 -1.770786
H	 -2.694656	 2.509613	 -0.567368
C	 -0.252658	 0.041456	 -0.226725
H	 -0.655958	 1.979415	 0.615105
H	 -1.848336	 0.781576	 1.021913
C	 1.180775	 0.282413	 0.250794
H	 -0.266029	 -0.034465	 -1.312038
H	 -0.597733	 -0.921000	 0.146291
C	 2.148627	 -0.814315	 -0.201312
H	 1.516199	 1.249228	 -0.115937
H	 1.192670	 0.346017	 1.338083
C	 3.580890	 -0.659131	 0.322722
H	 2.166869	 -0.852443	 -1.289387
H	 1.762857	 -1.776509	 0.128956
C	 4.324889	 0.564933	 -0.213704
H	 4.142010	 -1.551473	 0.056605
H	 3.564836	 -0.624694	 1.410140
H	 4.342616	 0.565491	 -1.300421
H	 3.866655	 1.493402	 0.110242
H	 5.353900	 0.572371	 0.132816

	symmetry c1
}
set optking {
	frozen_dihedral = ("
		6 3 5 8,
		6 3 2 4,
		12 8 11 14,
		8 11 14 18,
		20 17 14 18
	")
}

ee = energy('scf')
oeprop('DIPOLE', 'QUADRUPOLE', 'MULLIKEN_CHARGES')
f=open( 'psi4out.xyz', 'w' )
f.write( "25  " )
f.write( str(ee) + "\n" )
f.write( MOL.save_string_xyz() )
f.close()
--------------------------------------------------------------------------

    Molecular point group: c1

    Geometry (in Angstrom), charge = 0, multiplicity = 1:

       Center              X                  Y                   Z               Mass
    ------------   -----------------  -----------------  -----------------  -----------------
           H         -3.852851606414    -0.193909351020    -0.096992376624     1.007825032070
           C         -3.241850606414     0.275131648980    -0.878209376624    12.000000000000
           C         -2.265516606414     1.313132648980    -0.386338376624    12.000000000000
           O         -3.377006606414    -0.044554351020    -2.014556376624    15.994914619560
           C         -1.376699606414     0.792636648980     0.751793623376    12.000000000000
           H         -1.675229606414     1.654045648980    -1.228982376624     1.007825032070
           H         -2.851343606414     2.157704648980    -0.025564376624     1.007825032070
           C         -0.409345606414    -0.310452351020     0.315078623376    12.000000000000
           H         -0.812645606414     1.627506648980     1.156908623376     1.007825032070
           H         -2.005023606414     0.429667648980     1.563716623376     1.007825032070
           C          1.024087393586    -0.069495351020     0.792597623376    12.000000000000
           H         -0.422716606414    -0.386373351020    -0.770234376624     1.007825032070
           H         -0.754420606414    -1.272908351020     0.688094623376     1.007825032070
           C          1.991939393586    -1.166223351020     0.340491623376    12.000000000000
           H          1.359511393586     0.897319648980     0.425866623376     1.007825032070
           H          1.035982393586    -0.005891351020     1.879886623376     1.007825032070
           C          3.424202393586    -1.011039351020     0.864525623376    12.000000000000
           H          2.010181393586    -1.204351351020    -0.747583376624     1.007825032070
           H          1.606169393586    -2.128417351020     0.670759623376     1.007825032070
           C          4.168201393586     0.213024648980     0.328099623376    12.000000000000
           H          3.985322393586    -1.903381351020     0.598408623376     1.007825032070
           H          3.408148393586    -0.976602351020     1.951943623376     1.007825032070
           H          4.185928393586     0.213582648980    -0.758617376624     1.007825032070
           H          3.709967393586     1.141493648980     0.652045623376     1.007825032070
           H          5.197212393586     0.220462648980     0.674619623376     1.007825032070

  Charge       = 0
  Multiplicity = 1
  Basis Set: 6-31G*
  Basis Set:

    Orbital Energies (a.u.)
    -----------------------

    Doubly Occupied:

       1A    -20.562498     2A    -11.326302     3A    -11.235082
       4A    -11.233570     5A    -11.222001     6A    -11.219847
       7A    -11.217582     8A    -11.216240     9A    -11.210188
      10A     -1.402360    11A     -1.103896    12A     -1.069270
      13A     -1.012732    14A     -0.942219    15A     -0.875038
      16A     -0.821240    17A     -0.786751    18A     -0.782048
      19A     -0.664939    20A     -0.657599    21A     -0.637488
      22A     -0.623118    23A     -0.605189    24A     -0.589978
      25A     -0.578168    26A     -0.546794    27A     -0.537235
      28A     -0.523276    29A     -0.510487    30A     -0.497678
      31A     -0.489068    32A     -0.475067    33A     -0.463130
      34A     -0.458750    35A     -0.440510    36A     -0.409666

  @DF-RHF Final Energy:  -387.11716256697542

   => Energetics <=

    Nuclear Repulsion Energy =            440.3410384861689977
    One-Electron Energy =               -1397.0226089143018271
    Two-Electron Energy =                 569.5644078611560417
    DFT Exchange-Correlation Energy =       0.0000000000000000
    Empirical Dispersion Energy =           0.0000000000000000
    PCM Polarization Energy =               0.0000000000000000
    EFP Energy =                            0.0000000000000000
    Total Energy =                       -387.1171625669767309

  Mulliken Charges: (a.u.)
   Center  Symbol    Alpha    Beta     Spin     Total
       1     H     0.43234  0.43234  0.00000  0.13532
       2     C     2.82991  2.82991  0.00000  0.34019
       3     C     3.21011  3.21011  0.00000 -0.42021
       4     O     4.23790  4.23790  0.00000 -0.47580
       5     C     3.16786  3.16786  0.00000 -0.33572
       6     H     0.39978  0.39978  0.00000  0.20044
       7     H     0.40763  0.40763  0.00000  0.18474
       8     C     3.15933  3.15933  0.00000 -0.31866
       9     H     0.41064  0.41064  0.00000  0.17873
      10     H     0.41736  0.41736  0.00000  0.16527
      11     C     3.15630  3.15630  0.00000 -0.31261
      12     H     0.41279  0.41279  0.00000  0.17441
      13     H     0.41842  0.41842  0.00000  0.16316
      14     C     3.15363  3.15363  0.00000 -0.30726
      15     H     0.42050  0.42050  0.00000  0.15900
      16     H     0.42311  0.42311  0.00000  0.15377
      17     C     3.15270  3.15270  0.00000 -0.30539
      18     H     0.42204  0.42204  0.00000  0.15593
      19     H     0.42160  0.42160  0.00000  0.15679
      20     C     3.24132  3.24132  0.00000 -0.48264
      21     H     0.42012  0.42012  0.00000  0.15975
      22     H     0.42350  0.42350  0.00000  0.15300
      23     H     0.42149  0.42149  0.00000  0.15703
      24     H     0.42085  0.42085  0.00000  0.15830
      25     H     0.41877  0.41877  0.00000  0.16246

   Total alpha = 36.00000, Total beta = 36.00000, Total charge =  0.00000
