                              Psi4 1.0.54 Driver

  ==> Input File <==

--------------------------------------------------------------------------
set {
	reference rhf
	basis cc-pvtz
}

set_num_threads( 4 )
memory 2 gb

molecule MOL {
0 1

H	 -3.848764	 1.472389	 -1.000475
O	 -3.139182	 0.903207	 -1.234398
C	 -2.106911	 1.005035	 -0.289694
C	 -0.983711	 0.074593	 -0.700575
H	 -1.739796	 2.027819	 -0.235722
H	 -2.468656	 0.734374	 0.700111
C	 0.196029	 0.106276	 0.266738
H	 -0.655436	 0.351423	 -1.697481
H	 -1.380747	 -0.932965	 -0.772034
C	 1.330220	 -0.826136	 -0.155230
H	 0.564623	 1.124431	 0.345558
H	 -0.143221	 -0.174631	 1.261516
C	 2.719700	 -0.407669	 0.328325
H	 1.339388	 -0.911200	 -1.239363
H	 1.119001	 -1.821953	 0.224128
C	 3.241564	 0.893452	 -0.276737
H	 3.418299	 -1.204729	 0.093035
H	 2.711776	 -0.323368	 1.411960
H	 3.254204	 0.841071	 -1.360784
H	 2.634460	 1.745075	 0.005842
H	 4.254264	 1.092401	 0.054971

	symmetry c1
}
set optking {
	frozen_dihedral = ("
		4 7 10 14
	")
}

ee,wfn = optimize('scf', return_wfn=True)
oeprop( wfn, 'DIPOLE', 'QUADRUPOLE', 'MULLIKEN_CHARGES')
f=open( 'psi4out.xyz', 'w' )
f.write( "21  " )
f.write( str(ee) + "\n" )
f.write( MOL.save_string_xyz() )
f.close()
--------------------------------------------------------------------------

    Molecular point group: c1
  Charge       = 0
  Multiplicity = 1
  Basis Set: CC-PVTZ
  Basis Set:
  @DF-RHF Final Energy:  -310.33027781743402
    Total Energy =                       -310.3302778174341370
    Molecular point group: c1
  Basis Set: CC-PVTZ
  Basis Set:
  Basis Set: CC-PVTZ
  Basis Set:
  @DF-RHF Final Energy:  -310.33013910222024
    Total Energy =                       -310.3301391022204712
  Basis Set: CC-PVTZ
  Basis Set:
  Basis Set: CC-PVTZ
  Basis Set:
  @DF-RHF Final Energy:  -310.33066346451369
    Total Energy =                       -310.3306634645138615
  Basis Set: CC-PVTZ
  Basis Set:
  Basis Set: CC-PVTZ
  Basis Set:
  @DF-RHF Final Energy:  -310.33068809898140
    Total Energy =                       -310.3306880989812839
  Basis Set: CC-PVTZ
  Basis Set:
  Basis Set: CC-PVTZ
  Basis Set:
  @DF-RHF Final Energy:  -310.33072354896922
    Total Energy =                       -310.3307235489691607
  Basis Set: CC-PVTZ
  Basis Set:
  Basis Set: CC-PVTZ
  Basis Set:
  @DF-RHF Final Energy:  -310.33072464300352
    Total Energy =                       -310.3307246430035207
  Basis Set: CC-PVTZ
  Basis Set:
  Charge       = 0
  Multiplicity = 1
  Basis Set: CC-PVTZ
  Basis Set:

    Orbital Energies (a.u.)
    -----------------------

    Doubly Occupied:

       1A    -20.545367     2A    -11.264894     3A    -11.213474
       4A    -11.213091     5A    -11.211057     6A    -11.209172
       7A    -11.205995     8A     -1.363212     9A     -1.086533
      10A     -1.034472    11A     -0.955438    12A     -0.875963
      13A     -0.806874    14A     -0.781490    15A     -0.696284
      16A     -0.662168    17A     -0.618738    18A     -0.613106
      19A     -0.588775    20A     -0.564383    21A     -0.545337
      22A     -0.521410    23A     -0.505371    24A     -0.489796
      25A     -0.481333    26A     -0.461469    27A     -0.453193
      28A     -0.443891    29A     -0.437472

  @DF-RHF Final Energy:  -310.33072487720472

   => Energetics <=

    Nuclear Repulsion Energy =            313.4355408198617852
    One-Electron Energy =               -1041.8330121228468670
    Two-Electron Energy =                 418.0667464257804795
    DFT Exchange-Correlation Energy =       0.0000000000000000
    Empirical Dispersion Energy =           0.0000000000000000
    PCM Polarization Energy =               0.0000000000000000
    EFP Energy =                            0.0000000000000000
    Total Energy =                       -310.3307248772046023
    Molecular point group: c1
  Basis Set: CC-PVTZ
  Basis Set:

  -Total Gradient:
     Atom            X                  Y                   Z
    ------   -----------------  -----------------  -----------------
       1       -0.000002361404     0.000001989134    -0.000001556254
       2       -0.000009491705     0.000000446387    -0.000007252726
       3        0.000001053244    -0.000004664049    -0.000005539193
       4        0.001162150071     0.002117204690    -0.001423006205
       5        0.000003546722    -0.000002673916    -0.000000185377
       6        0.000005580260    -0.000002172327     0.000003807306
       7       -0.002180083284    -0.003657121988     0.002030144595
       8       -0.000002857214     0.000001534235    -0.000001706595
       9        0.000000719042     0.000003987156     0.000005296345
      10        0.003392069120     0.004567729391    -0.000734874621
      11       -0.000010908263    -0.000008726593    -0.000003256921
      12       -0.000005874444     0.000004684958     0.000003621030
      13        0.000005531276    -0.000011850245    -0.000023577393
      14       -0.002368963095    -0.003012179098     0.000132707227
      15        0.000004386750     0.000000409500     0.000006034832
      16       -0.000004153006    -0.000001519242     0.000020259305
      17        0.000002931850    -0.000000421971     0.000003241061
      18        0.000007139696     0.000012291518    -0.000010397800
      19       -0.000003841023    -0.000007994574     0.000006978581
      20        0.000001840200     0.000001229963    -0.000002261644
      21        0.000001585203    -0.000002182928     0.000001524448

  **** Optimization is complete! (in 7 steps) ****
    Final optimized geometry and variables:
    Molecular point group: c1

    Geometry (in Angstrom), charge = 0, multiplicity = 1:

    H           -4.007900976834     1.160774601871    -0.640711295043
    O           -3.276567205618     0.635493560201    -0.907807724035
    C           -2.261157021655     0.694108556427     0.058580452851
    C           -1.101947081627    -0.163318887663    -0.406731183858
    H           -1.928918099625     1.720601267739     0.199945883440
    H           -2.626923512821     0.333521931434     1.017666620745
    C            0.073346030655    -0.152065539955     0.566273796606
    H           -0.776324511173     0.193749022782    -1.378137239241
    H           -1.461462089395    -1.177635422230    -0.552299546449
    C            1.219051494322    -1.076395785449     0.135291134735
    H            0.435248879297     0.867983562714     0.653440947231
    H           -0.260747077654    -0.437128238988     1.560045893992
    C            2.597188440948    -0.687423995507     0.671191379160
    H            1.245462866764    -1.146646972577    -0.948916677614
    H            0.987681718835    -2.082544702049     0.473900118437
    C            3.208963556691     0.542178845571     0.004250048325
    H            3.272954764331    -1.525897622554     0.534769721622
    H            2.531410118707    -0.524298650893     1.743962538487
    H            3.328538437219     0.383409878757    -1.062405057729
    H            2.597436656036     1.426508920579     0.138665208207
    H            4.187733460405     0.758324467229     0.417232543459

  Mulliken Charges: (a.u.)
   Center  Symbol    Alpha    Beta     Spin     Total
       1     H     0.39746  0.39746  0.00000  0.20507
       2     O     4.19457  4.19457  0.00000 -0.38915
       3     C     2.96343  2.96343  0.00000  0.07314
       4     C     3.08500  3.08500  0.00000 -0.17000
       5     H     0.47507  0.47507  0.00000  0.04985
       6     H     0.47465  0.47465  0.00000  0.05071
       7     C     3.10469  3.10469  0.00000 -0.20937
       8     H     0.45073  0.45073  0.00000  0.09854
       9     H     0.45062  0.45062  0.00000  0.09877
      10     C     3.09561  3.09561  0.00000 -0.19121
      11     H     0.45465  0.45465  0.00000  0.09071
      12     H     0.45161  0.45161  0.00000  0.09677
      13     C     3.09001  3.09001  0.00000 -0.18002
      14     H     0.45347  0.45347  0.00000  0.09305
      15     H     0.44869  0.44869  0.00000  0.10261
      16     C     3.14936  3.14936  0.00000 -0.29871
      17     H     0.44825  0.44825  0.00000  0.10349
      18     H     0.45498  0.45498  0.00000  0.09005
      19     H     0.45441  0.45441  0.00000  0.09118
      20     H     0.45519  0.45519  0.00000  0.08962
      21     H     0.44756  0.44756  0.00000  0.10489

   Total alpha = 29.00000, Total beta = 29.00000, Total charge = -0.00000

*** Psi4 exiting successfully. Buy a developer a beer!
