  ==> Input File <==

--------------------------------------------------------------------------
set {
	reference rhf
	basis 6-31G*
}

set_num_threads( 1 )
memory 2 gb

molecule MOL {
0 1

H	 3.276176	 0.174363	 -0.109463
N	 2.434251	 -0.367735	 -0.081097
C	 1.267428	 0.496480	 0.024474
H	 2.501951	 -0.965776	 0.720575
C	 -0.016086	 -0.325158	 -0.029487
H	 1.288818	 1.183521	 -0.816092
H	 1.267576	 1.109062	 0.929528
C	 -1.282277	 0.529072	 0.046735
H	 -0.012495	 -0.908639	 -0.945788
H	 -0.015903	 -1.041248	 0.791956
C	 -2.099067	 0.497772	 -1.244612
H	 -1.009872	 1.557600	 0.274581
H	 -1.902657	 0.187750	 0.872921
H	 -1.517456	 0.866688	 -2.084463
H	 -2.989397	 1.113454	 -1.162333
H	 -2.416871	 -0.513425	 -1.482732

	symmetry c1
}
set optking {
	frozen_dihedral = ("
		6 3 5 9,
		1 2 3 6
	")
}

ee = energy('scf')
oeprop('DIPOLE', 'QUADRUPOLE', 'MULLIKEN_CHARGES')
f=open( 'psi4out.xyz', 'w' )
f.write( "16  " )
f.write( str(ee) + "\n" )
f.write( MOL.save_string_xyz() )
f.close()
--------------------------------------------------------------------------

    Molecular point group: c1

    Geometry (in Angstrom), charge = 0, multiplicity = 1:

       Center              X                  Y                   Z               Mass
    ------------   -----------------  -----------------  -----------------  -----------------
           H          3.180609563063     0.009994622630     0.145091349769     1.007825032070
           N          2.338684563063    -0.532103377370     0.173457349769    14.003074004780
           C          1.171861563063     0.332111622630     0.279028349769    12.000000000000
           H          2.406384563063    -1.130144377370     0.975129349769     1.007825032070
           C         -0.111652436937    -0.489526377370     0.225067349769    12.000000000000
           H          1.193251563063     1.019152622630    -0.561537650231     1.007825032070
           H          1.172009563063     0.944693622630     1.184082349769     1.007825032070
           C         -1.377843436937     0.364703622630     0.301289349769    12.000000000000
           H         -0.108061436937    -1.073007377370    -0.691233650231     1.007825032070
           H         -0.111469436937    -1.205616377370     1.046510349769     1.007825032070
           C         -2.194633436937     0.333403622630    -0.990057650231    12.000000000000
           H         -1.105438436937     1.393231622630     0.529135349769     1.007825032070
           H         -1.998223436937     0.023381622630     1.127475349769     1.007825032070
           H         -1.613022436937     0.702319622630    -1.829908650231     1.007825032070
           H         -3.084963436937     0.949085622630    -0.907778650231     1.007825032070
           H         -2.512437436937    -0.677793377370    -1.228177650231     1.007825032070

  Charge       = 0
  Multiplicity = 1
  Basis Set: 6-31G*
  Basis Set:

    Orbital Energies (a.u.)
    -----------------------

    Doubly Occupied:

       1A    -15.532452     2A    -11.240480     3A    -11.213510
       4A    -11.208035     5A    -11.207300     6A     -1.176740
       7A     -1.059437     8A     -0.956791     9A     -0.847967
      10A     -0.789010    11A     -0.662765    12A     -0.623295
      13A     -0.620513    14A     -0.583727    15A     -0.552822
      16A     -0.526759    17A     -0.505164    18A     -0.471350
      19A     -0.461989    20A     -0.454166    21A     -0.381396

  @DF-RHF Final Energy:  -212.31159625968490

   => Energetics <=

    Nuclear Repulsion Energy =            187.3516983904004860
    One-Electron Energy =                -657.1753927395333221
    Two-Electron Energy =                 257.5120980894481590
    DFT Exchange-Correlation Energy =       0.0000000000000000
    Empirical Dispersion Energy =           0.0000000000000000
    PCM Polarization Energy =               0.0000000000000000
    EFP Energy =                            0.0000000000000000
    Total Energy =                       -212.3115962596846771

  Mulliken Charges: (a.u.)
   Center  Symbol    Alpha    Beta     Spin     Total
       1     H     0.33260  0.33260  0.00000  0.33480
       2     N     3.92190  3.92190  0.00000 -0.84380
       3     C     3.06322  3.06322  0.00000 -0.12645
       4     H     0.33528  0.33528  0.00000  0.32945
       5     C     3.15394  3.15394  0.00000 -0.30787
       6     H     0.42083  0.42083  0.00000  0.15833
       7     H     0.43401  0.43401  0.00000  0.13198
       8     C     3.15865  3.15865  0.00000 -0.31730
       9     H     0.41027  0.41027  0.00000  0.17945
      10     H     0.42536  0.42536  0.00000  0.14929
      11     C     3.23955  3.23955  0.00000 -0.47911
      12     H     0.42151  0.42151  0.00000  0.15699
      13     H     0.42017  0.42017  0.00000  0.15965
      14     H     0.42110  0.42110  0.00000  0.15780
      15     H     0.42110  0.42110  0.00000  0.15779
      16     H     0.42051  0.42051  0.00000  0.15898

   Total alpha = 21.00000, Total beta = 21.00000, Total charge =  0.00000
