                              Psi4 1.0.54 Driver

  ==> Input File <==

--------------------------------------------------------------------------
set {
	reference rhf
	basis cc-pvtz
}

set_num_threads( 4 )
memory 2 gb

molecule MOL {
0 1

O	 2.868453	 1.353349	 -0.000734
C	 2.841259	 0.166180	 -0.000295
C	 1.542794	 -0.614730	 -0.000853
C	 4.113372	 -0.651103	 0.000743
C	 0.288398	 0.247429	 0.000314
H	 1.557171	 -1.273139	 -0.866508
H	 1.557484	 -1.274998	 0.863344
C	 -0.993089	 -0.581367	 -0.000217
H	 0.305153	 0.900562	 -0.864701
H	 0.305567	 0.898805	 0.866656
C	 -2.258482	 0.271340	 0.000669
H	 -1.002280	 -1.233920	 -0.870484
H	 -1.002061	 -1.235367	 0.868958
C	 -2.568830	 0.896097	 1.357908
H	 -3.101740	 -0.338475	 -0.314222
H	 -2.160325	 1.059062	 -0.742289
C	 -3.834690	 1.746590	 1.350881
H	 -2.668289	 0.109369	 2.100946
H	 -1.726993	 1.506857	 1.672871
H	 -4.701295	 1.155931	 1.073108
H	 -4.026124	 2.174716	 2.328164
H	 -3.752948	 2.563880	 0.642079
H	 4.145311	 -1.294584	 -0.871587
H	 4.970080	 0.004978	 -0.000091
H	 4.145223	 -1.291980	 0.874988

	symmetry c1
}
set optking {
	frozen_dihedral = ("
		15 11 8 12
	")
}

ee,wfn = optimize('scf', return_wfn=True)
oeprop( wfn, 'DIPOLE', 'QUADRUPOLE', 'MULLIKEN_CHARGES')
f=open( 'psi4out.xyz', 'w' )
f.write( "25  " )
f.write( str(ee) + "\n" )
f.write( MOL.save_string_xyz() )
f.close()
--------------------------------------------------------------------------

    Molecular point group: c1
  Charge       = 0
  Multiplicity = 1
  Basis Set: CC-PVTZ
  Basis Set:
  @DF-RHF Final Energy:  -387.27248594388260
    Total Energy =                       -387.2724859438822023
    Molecular point group: c1
  Basis Set: CC-PVTZ
  Basis Set:
  Basis Set: CC-PVTZ
  Basis Set:
  @DF-RHF Final Energy:  -387.27267750354184
    Total Energy =                       -387.2726775035421269
  Basis Set: CC-PVTZ
  Basis Set:
  Basis Set: CC-PVTZ
  Basis Set:
  @DF-RHF Final Energy:  -387.27271605859153
    Total Energy =                       -387.2727160585910724
  Basis Set: CC-PVTZ
  Basis Set:
  Basis Set: CC-PVTZ
  Basis Set:
  @DF-RHF Final Energy:  -387.27271463455764
    Total Energy =                       -387.2727146345575875
  Basis Set: CC-PVTZ
  Basis Set:
  Basis Set: CC-PVTZ
  Basis Set:
  @DF-RHF Final Energy:  -387.27270112138632
    Total Energy =                       -387.2727011213866035
  Basis Set: CC-PVTZ
  Basis Set:
  Basis Set: CC-PVTZ
  Basis Set:
  @DF-RHF Final Energy:  -387.27271809310230
    Total Energy =                       -387.2727180931021849
  Basis Set: CC-PVTZ
  Basis Set:
  Charge       = 0
  Multiplicity = 1
  Basis Set: CC-PVTZ
  Basis Set:

    Orbital Energies (a.u.)
    -----------------------

    Doubly Occupied:

       1A    -20.538999     2A    -11.320621     3A    -11.230181
       4A    -11.226645     5A    -11.215339     6A    -11.214511
       7A    -11.212309     8A    -11.211608     9A    -11.205528
      10A     -1.399021    11A     -1.094857    12A     -1.056278
      13A     -1.014571    14A     -0.969966    15A     -0.890233
      16A     -0.827135    17A     -0.780435    18A     -0.731961
      19A     -0.655695    20A     -0.652247    21A     -0.638103
      22A     -0.621171    23A     -0.604625    24A     -0.581586
      25A     -0.568549    26A     -0.563180    27A     -0.547083
      28A     -0.523593    29A     -0.504663    30A     -0.497553
      31A     -0.490962    32A     -0.479077    33A     -0.462060
      34A     -0.458165    35A     -0.448458    36A     -0.401913

  @DF-RHF Final Energy:  -387.27271826900017

   => Energetics <=

    Nuclear Repulsion Energy =            444.6342142074157664
    One-Electron Energy =               -1406.1361107384923343
    Two-Electron Energy =                 574.2291782620766298
    DFT Exchange-Correlation Energy =       0.0000000000000000
    Empirical Dispersion Energy =           0.0000000000000000
    PCM Polarization Energy =               0.0000000000000000
    EFP Energy =                            0.0000000000000000
    Total Energy =                       -387.2727182689999381
    Molecular point group: c1
  Basis Set: CC-PVTZ
  Basis Set:

  -Total Gradient:
     Atom            X                  Y                   Z
    ------   -----------------  -----------------  -----------------
       1       -0.000000499129    -0.000004508025    -0.000003771514
       2       -0.000001541856     0.000004639096     0.000018251938
       3        0.000000244687     0.000000090755     0.000012414231
       4       -0.000002730270    -0.000001183091    -0.000031105883
       5        0.000001761528     0.000001759868    -0.000003243454
       6        0.000003150730     0.000003290811    -0.000008742211
       7       -0.000003107885    -0.000002195125    -0.000007223644
       8        0.000878128330     0.001343050172    -0.001257899727
       9        0.000002088487    -0.000002915225     0.000002385320
      10        0.000000914281     0.000003826430     0.000003990459
      11       -0.000454255709    -0.000692058762     0.001864684642
      12       -0.000675110545    -0.001023769342     0.000767960065
      13        0.000000945304    -0.000002077620     0.000000654560
      14        0.000002689201     0.000003840339     0.000002966900
      15        0.000243191991     0.000370856283    -0.001378144891
      16       -0.000000540300     0.000000912734    -0.000002301548
      17        0.000002406011    -0.000005818546    -0.000001472031
      18       -0.000000762293     0.000000118655     0.000001538793
      19        0.000001135912     0.000001747375     0.000001567255
      20       -0.000002053837    -0.000000951105    -0.000000808180
      21        0.000001507433    -0.000001457578    -0.000000132391
      22        0.000001519046     0.000001978715    -0.000000791286
      23        0.000002367384    -0.000007667888     0.000008055669
      24        0.000000775435     0.000000747393     0.000002206960
      25       -0.000002223925     0.000007743685     0.000008959971

  **** Optimization is complete! (in 7 steps) ****
    Final optimized geometry and variables:
    Molecular point group: c1

    Geometry (in Angstrom), charge = 0, multiplicity = 1:

    O            2.682633036906     1.007321836023    -0.283221333932
    C            2.639301556042    -0.179163087351    -0.305115712327
    C            1.330424782088    -0.942613504540    -0.306796436893
    C            3.900126495824    -1.013393525749    -0.332227996219
    C            0.088062824409    -0.063147931301    -0.290455339967
    H            1.331165566502    -1.593305091914    -1.178325188683
    H            1.340923364283    -1.610711464990     0.551475509006
    C           -1.202144526127    -0.880321399156    -0.295935827803
    H            0.107121989246     0.594369996666    -1.152307778759
    H            0.126510272118     0.581229541992     0.578634393279
    C           -2.481564512293    -0.039779714426    -0.293773596909
    H           -1.210919235523    -1.528775478974    -1.167960663267
    H           -1.213641738792    -1.546026039307     0.564851188238
    C           -2.823714563638     0.598078308541     1.050986036768
    H           -3.312174456308    -0.664954891690    -0.609288849646
    H           -2.396557958856     0.739101454361    -1.048220713619
    C           -4.112940319163     1.412029786431     1.008942587940
    H           -2.915953927629    -0.182688785842     1.801432154633
    H           -2.010377166616     1.238848475459     1.375094457788
    H           -4.957257883360     0.793940813293     0.721825516647
    H           -4.335010263968     1.846118905929     1.977035694625
    H           -4.039877874711     2.223145253474     0.292193163354
    H            3.916141343317    -1.637862296947    -1.218671352256
    H            4.765864982925    -0.369241287769    -0.325923222737
    H            3.930025297893    -1.673647627277     0.527552586120

  Mulliken Charges: (a.u.)
   Center  Symbol    Alpha    Beta     Spin     Total
       1     O     4.17082  4.17082  0.00000 -0.34164
       2     C     2.86185  2.86185  0.00000  0.27629
       3     C     3.11446  3.11446  0.00000 -0.22892
       4     C     3.15113  3.15113  0.00000 -0.30227
       5     C     3.08301  3.08301  0.00000 -0.16602
       6     H     0.44482  0.44482  0.00000  0.11036
       7     H     0.44510  0.44510  0.00000  0.10980
       8     C     3.10062  3.10062  0.00000 -0.20123
       9     H     0.44617  0.44617  0.00000  0.10766
      10     H     0.44471  0.44471  0.00000  0.11058
      11     C     3.09542  3.09542  0.00000 -0.19084
      12     H     0.44864  0.44864  0.00000  0.10272
      13     H     0.45595  0.45595  0.00000  0.08810
      14     C     3.08302  3.08302  0.00000 -0.16603
      15     H     0.44825  0.44825  0.00000  0.10350
      16     H     0.45414  0.45414  0.00000  0.09172
      17     C     3.15024  3.15024  0.00000 -0.30048
      18     H     0.45573  0.45573  0.00000  0.08854
      19     H     0.45205  0.45205  0.00000  0.09589
      20     H     0.45527  0.45527  0.00000  0.08946
      21     H     0.44835  0.44835  0.00000  0.10331
      22     H     0.45410  0.45410  0.00000  0.09181
      23     H     0.45032  0.45032  0.00000  0.09936
      24     H     0.43537  0.43537  0.00000  0.12926
      25     H     0.45047  0.45047  0.00000  0.09907

   Total alpha = 36.00000, Total beta = 36.00000, Total charge =  0.00000

*** Psi4 exiting successfully. Buy a developer a beer!
