  ==> Input File <==

--------------------------------------------------------------------------
set {
	reference rhf
	basis 6-31G*
}

set_num_threads( 4 )
memory 2 gb

molecule MOL {
0 1

O	 0.749854	 1.307668	 -0.000040
C	 0.576249	 0.131685	 -0.000108
C	 -0.766779	 -0.556801	 -0.000461
O	 1.568443	 -0.749345	 -0.000005
C	 -1.945214	 0.412366	 0.000161
H	 -0.796911	 -1.211249	 -0.867467
H	 -0.796854	 -1.212390	 0.865687
C	 -2.032038	 1.209013	 1.301077
H	 -2.864474	 -0.141681	 -0.156663
H	 -1.852656	 1.088956	 -0.842593
H	 -2.156984	 0.553884	 2.158777
H	 -2.875750	 1.891048	 1.281625
H	 -1.134477	 1.799008	 1.464676
C	 2.886820	 -0.232538	 0.000322
H	 3.059106	 0.369571	 -0.880203
H	 3.540187	 -1.091012	 0.000050
H	 3.059019	 0.368956	 0.881266

	symmetry c1
}
set optking {
	frozen_dihedral = ("
		9 5 3 6
	")
}

ee = optimize('scf')
oeprop('DIPOLE', 'QUADRUPOLE', 'MULLIKEN_CHARGES')
f=open( 'psi4out.xyz', 'w' )
f.write( "17  " )
f.write( str(ee) + "\n" )
f.write( MOL.save_string_xyz() )
f.close()
--------------------------------------------------------------------------

    Molecular point group: c1
  Charge       = 0
  Multiplicity = 1
  Basis Set: 6-31G*
  Basis Set:
  @DF-RHF Final Energy:  -344.90547649274777
    Total Energy =                       -344.9054764927478800
    Molecular point group: c1
  Basis Set: 6-31G*
  Basis Set:
  Basis Set: 6-31G*
  Basis Set:
  @DF-RHF Final Energy:  -344.90614988451784
    Total Energy =                       -344.9061498845180722
  Basis Set: 6-31G*
  Basis Set:
  Basis Set: 6-31G*
  Basis Set:
  @DF-RHF Final Energy:  -344.90459757365130
    Total Energy =                       -344.9045975736514720
  Basis Set: 6-31G*
  Basis Set:
  Basis Set: 6-31G*
  Basis Set:
  @DF-RHF Final Energy:  -344.90637340790101
    Total Energy =                       -344.9063734079010146
  Basis Set: 6-31G*
  Basis Set:
  Basis Set: 6-31G*
  Basis Set:
  @DF-RHF Final Energy:  -344.90643932603945
    Total Energy =                       -344.9064393260392194
  Basis Set: 6-31G*
  Basis Set:
  Basis Set: 6-31G*
  Basis Set:
  @DF-RHF Final Energy:  -344.90645605476806
    Total Energy =                       -344.9064560547683413
  Basis Set: 6-31G*
  Basis Set:
  Basis Set: 6-31G*
  Basis Set:
  @DF-RHF Final Energy:  -344.90645786875371
    Total Energy =                       -344.9064578687535914
  Basis Set: 6-31G*
  Basis Set:
  Charge       = 0
  Multiplicity = 1
  Basis Set: 6-31G*
  Basis Set:

    Orbital Energies (a.u.)
    -----------------------

    Doubly Occupied:

       1A    -20.604997     2A    -20.546238     3A    -11.373395
       4A    -11.281582     5A    -11.236141     6A    -11.222591
       7A    -11.207858     8A     -1.470563     9A     -1.363685
      10A     -1.079114    11A     -0.999559    12A     -0.938644
      13A     -0.829502    14A     -0.766061    15A     -0.700837
      16A     -0.681996    17A     -0.671790    18A     -0.620895
      19A     -0.614896    20A     -0.567192    21A     -0.564245
      22A     -0.534396    23A     -0.523772    24A     -0.488828
      25A     -0.483881    26A     -0.481602    27A     -0.456873
      28A     -0.436843

  @DF-RHF Final Energy:  -344.90645841404091

   => Energetics <=

    Nuclear Repulsion Energy =            318.0746111552998627
    One-Electron Energy =               -1100.4661830646721228
    Two-Electron Energy =                 437.4851134953316318
    DFT Exchange-Correlation Energy =       0.0000000000000000
    Empirical Dispersion Energy =           0.0000000000000000
    PCM Polarization Energy =               0.0000000000000000
    EFP Energy =                            0.0000000000000000
    Total Energy =                       -344.9064584140406282
    Molecular point group: c1
  Basis Set: 6-31G*
  Basis Set:

  -Total Gradient:
     Atom            X                  Y                   Z
    ------   -----------------  -----------------  -----------------
       1       -0.000028497172     0.000012203106    -0.000007944949
       2        0.000002878445     0.000052268201    -0.000001323085
       3       -0.000256147289    -0.000304277765     0.000313785397
       4        0.000049084956    -0.000064434301     0.000009340958
       5        0.000084523494     0.000131999034    -0.000478624403
       6        0.000195793804     0.000241621450    -0.000184290470
       7       -0.000000564994    -0.000000079591    -0.000003270775
       8        0.000007964624    -0.000006746976     0.000005524583
       9       -0.000027196319    -0.000061548656     0.000351122475
      10       -0.000000997109    -0.000001546693    -0.000004621328
      11       -0.000005887680     0.000000233580     0.000003397447
      12        0.000004499122    -0.000001548681    -0.000003541898
      13        0.000001027554     0.000000346334     0.000000154552
      14       -0.000020615771     0.000007818342    -0.000000620418
      15        0.000000539026    -0.000000298916     0.000000200001
      16       -0.000007962360    -0.000005747227     0.000000501329
      17        0.000001557668    -0.000000261240     0.000000210585

  **** Optimization is complete! (in 8 steps) ****
    Final optimized geometry and variables:
    Molecular point group: c1

    Geometry (in Angstrom), charge = 0, multiplicity = 1:

    O            0.590388760849     1.065196732013    -0.472095104647
    C            0.396746675616    -0.088043541925    -0.255440067774
    C           -0.956226718109    -0.759048161493    -0.212452688346
    O            1.373895541755    -0.961011001285    -0.050060318663
    C           -2.130146280205     0.216033078415    -0.137619359489
    H           -1.019605331497    -1.364389767800    -1.113788185412
    H           -0.964082213538    -1.456040155507     0.619017367598
    C           -2.229431340116     0.950745621912     1.199372682048
    H           -3.044298711926    -0.347145637836    -0.303998805566
    H           -2.048648622606     0.934458467708    -0.945250651633
    H           -2.334473861522     0.250015919529     2.023743587526
    H           -3.094402101206     1.606132727817     1.213079584746
    H           -1.350818977972     1.558701185303     1.379789039418
    C            2.700087280051    -0.467557814877    -0.108768800330
    H            2.907672387855    -0.050630456478    -1.083741852742
    H            3.339027286865    -1.316302722863     0.078955029127
    H            2.855913018963     0.292369784604     0.643275818794

  Mulliken Charges: (a.u.)
   Center  Symbol    Alpha    Beta     Spin     Total
       1     O     4.28706  4.28706  0.00000 -0.57412
       2     C     2.60683  2.60683  0.00000  0.78634
       3     C     3.20739  3.20739  0.00000 -0.41478
       4     O     4.30589  4.30589  0.00000 -0.61179
       5     C     3.15349  3.15349  0.00000 -0.30698
       6     H     0.39835  0.39835  0.00000  0.20331
       7     H     0.40115  0.40115  0.00000  0.19769
       8     C     3.24629  3.24629  0.00000 -0.49258
       9     H     0.41873  0.41873  0.00000  0.16255
      10     H     0.40699  0.40699  0.00000  0.18601
      11     H     0.42463  0.42463  0.00000  0.15074
      12     H     0.41763  0.41763  0.00000  0.16473
      13     H     0.40699  0.40699  0.00000  0.18603
      14     C     3.09253  3.09253  0.00000 -0.18505
      15     H     0.40904  0.40904  0.00000  0.18192
      16     H     0.40827  0.40827  0.00000  0.18346
      17     H     0.40874  0.40874  0.00000  0.18252

   Total alpha = 28.00000, Total beta = 28.00000, Total charge = -0.00000
