  ==> Input File <==

--------------------------------------------------------------------------
set {
	reference rhf
	basis 6-31G*
}

set_num_threads( 4 )
memory 2 gb

molecule MOL {
0 1

H	 3.287898	 -1.478349	 2.621900
C	 2.982555	 -1.365035	 1.586682
C	 1.682983	 -0.568294	 1.480476
H	 3.791248	 -0.869339	 1.057035
H	 2.872287	 -2.359958	 1.164524
C	 1.217350	 -0.386724	 0.039429
H	 1.806516	 0.412043	 1.929995
H	 0.903562	 -1.073665	 2.048362
N	 0.000003	 0.397874	 -0.023260
H	 1.984295	 0.140866	 -0.521291
H	 1.106200	 -1.367095	 -0.435855
C	 -1.217365	 -0.386708	 0.039277
H	 -0.000031	 1.072115	 0.718656
C	 -2.452633	 0.504241	 -0.042481
H	 -1.215291	 -1.074557	 -0.802042
H	 -1.269739	 -1.003477	 0.942735
C	 -3.758029	 -0.289423	 -0.010781
H	 -2.394220	 1.093569	 -0.952170
H	 -2.440793	 1.210787	 0.785871
H	 -3.816659	 -0.981993	 -0.845726
H	 -4.617837	 0.370165	 -0.069296
H	 -3.847478	 -0.867502	 0.904682

	symmetry c1
}
set optking {
	frozen_dihedral = ("
		10 6 9 12
	")
}

ee = optimize('scf')
oeprop('DIPOLE', 'QUADRUPOLE', 'MULLIKEN_CHARGES')
f=open( 'psi4out.xyz', 'w' )
f.write( "22  " )
f.write( str(ee) + "\n" )
f.write( MOL.save_string_xyz() )
f.close()
--------------------------------------------------------------------------

    Molecular point group: c1
  Charge       = 0
  Multiplicity = 1
  Basis Set: 6-31G*
  Basis Set:
  @DF-RHF Final Energy:  -290.37785147122656
    Total Energy =                       -290.3778514712264496
    Molecular point group: c1
  Basis Set: 6-31G*
  Basis Set:
  Basis Set: 6-31G*
  Basis Set:
  @DF-RHF Final Energy:  -290.37957529632769
    Total Energy =                       -290.3795752963276300
  Basis Set: 6-31G*
  Basis Set:
  Basis Set: 6-31G*
  Basis Set:
  @DF-RHF Final Energy:  -290.37983404047259
    Total Energy =                       -290.3798340404726446
  Basis Set: 6-31G*
  Basis Set:
  Basis Set: 6-31G*
  Basis Set:
  @DF-RHF Final Energy:  -290.37984950384271
    Total Energy =                       -290.3798495038429337
  Basis Set: 6-31G*
  Basis Set:
  Basis Set: 6-31G*
  Basis Set:
  @DF-RHF Final Energy:  -290.37985155780757
    Total Energy =                       -290.3798515578077968
  Basis Set: 6-31G*
  Basis Set:
  Charge       = 0
  Multiplicity = 1
  Basis Set: 6-31G*
  Basis Set:

    Orbital Energies (a.u.)
    -----------------------

    Doubly Occupied:

       1A    -15.530794     2A    -11.238047     3A    -11.237623
       4A    -11.215267     5A    -11.213021     6A    -11.211329
       7A    -11.209445     8A     -1.201742     9A     -1.058085
      10A     -1.026531    11A     -0.928837    12A     -0.870407
      13A     -0.806229    14A     -0.804059    15A     -0.657546
      16A     -0.639420    17A     -0.614658    18A     -0.602045
      19A     -0.577618    20A     -0.553020    21A     -0.546665
      22A     -0.519491    23A     -0.512481    24A     -0.489986
      25A     -0.485131    26A     -0.474375    27A     -0.470083
      28A     -0.457809    29A     -0.348862

  @DF-RHF Final Energy:  -290.37985235813585

   => Energetics <=

    Nuclear Repulsion Energy =            315.7750370211754216
    One-Electron Energy =               -1017.3085646584376036
    Two-Electron Energy =                 411.1536752791267304
    DFT Exchange-Correlation Energy =       0.0000000000000000
    Empirical Dispersion Energy =           0.0000000000000000
    PCM Polarization Energy =               0.0000000000000000
    EFP Energy =                            0.0000000000000000
    Total Energy =                       -290.3798523581354516
    Molecular point group: c1
  Basis Set: 6-31G*
  Basis Set:

  -Total Gradient:
     Atom            X                  Y                   Z
    ------   -----------------  -----------------  -----------------
       1        0.000008776414    -0.000008377151    -0.000006636201
       2        0.000019698947    -0.000000706894     0.000022002481
       3       -0.000056026989     0.000018436855    -0.000046370190
       4        0.000000475105     0.000007057442    -0.000001638617
       5       -0.000011927679     0.000001698522     0.000003571199
       6        0.000823908609     0.001716255178     0.001849159253
       7        0.000008997107    -0.000022540482    -0.000001120687
       8        0.000001100894     0.000000606975     0.000025427946
       9       -0.000192115040     0.000026772701     0.002579101898
      10       -0.000687644431    -0.001429931754    -0.002242313947
      11        0.000001292980    -0.000020358629    -0.000012970173
      12        0.000017647696    -0.000291178724    -0.002148801446
      13        0.000011765536    -0.000016262932    -0.000011193143
      14        0.000013387360     0.000024016307    -0.000003966523
      15       -0.000005680275    -0.000002813558    -0.000006644548
      16        0.000003879634     0.000004828845     0.000002593599
      17        0.000027706218    -0.000016222011     0.000004772930
      18       -0.000001877576     0.000000948076    -0.000007754846
      19       -0.000001816467     0.000001685874     0.000002829302
      20       -0.000002192183    -0.000000453355    -0.000004355506
      21        0.000019376428     0.000009802319     0.000002563289
      22        0.000001267714    -0.000003263604     0.000001743929

  **** Optimization is complete! (in 6 steps) ****
    Final optimized geometry and variables:
    Molecular point group: c1

    Geometry (in Angstrom), charge = 0, multiplicity = 1:

    H            3.601201128741    -1.226979294280     2.113765721738
    C            3.254913192556    -1.076816993803     1.096247568358
    C            1.946977102538    -0.286614733989     1.066204815910
    H            4.039597724347    -0.557319341129     0.553460923626
    H            3.132286874652    -2.055843952336     0.641478103022
    C            1.441499750597    -0.036818053733    -0.357245212383
    H            2.092675525699     0.671021997932     1.563455020961
    H            1.186919996833    -0.816650985607     1.635019914316
    N            0.196244150363     0.703969351399    -0.457102744595
    H            2.204162158966     0.483910911713    -0.931672069695
    H            1.299844612193    -0.989564407155    -0.859952859354
    C           -1.021543787828    -0.078231234570    -0.374124143971
    H            0.179260157369     1.455543086822     0.204324047768
    C           -2.250480527770     0.810930289255    -0.534990517097
    H           -1.002659383810    -0.807960393586    -1.178483859985
    H           -1.108269991299    -0.645404837698     0.557951151871
    C           -3.559476548577     0.023548448514    -0.498291445842
    H           -2.164215379741     1.352463022457    -1.471850421430
    H           -2.258382482178     1.558861796446     0.256263798485
    H           -3.598235692804    -0.711101262530    -1.297656180649
    H           -4.414411201413     0.681836202325    -0.614565567394
    H           -3.676655721593    -0.505984489961     0.443058787903

  Mulliken Charges: (a.u.)
   Center  Symbol    Alpha    Beta     Spin     Total
       1     H     0.41782  0.41782  0.00000  0.16436
       2     C     3.24349  3.24349  0.00000 -0.48699
       3     C     3.16116  3.16116  0.00000 -0.32232
       4     H     0.42036  0.42036  0.00000  0.15927
       5     H     0.42086  0.42086  0.00000  0.15829
       6     C     3.04915  3.04915  0.00000 -0.09831
       7     H     0.42576  0.42576  0.00000  0.14849
       8     H     0.42080  0.42080  0.00000  0.15840
       9     N     3.86069  3.86069  0.00000 -0.72139
      10     H     0.41868  0.41868  0.00000  0.16263
      11     H     0.42297  0.42297  0.00000  0.15405
      12     C     3.04658  3.04658  0.00000 -0.09315
      13     H     0.33425  0.33425  0.00000  0.33150
      14     C     3.15589  3.15589  0.00000 -0.31178
      15     H     0.42161  0.42161  0.00000  0.15678
      16     H     0.43661  0.43661  0.00000  0.12678
      17     C     3.24319  3.24319  0.00000 -0.48637
      18     H     0.41300  0.41300  0.00000  0.17400
      19     H     0.42680  0.42680  0.00000  0.14641
      20     H     0.42076  0.42076  0.00000  0.15848
      21     H     0.41779  0.41779  0.00000  0.16442
      22     H     0.42179  0.42179  0.00000  0.15642

   Total alpha = 29.00000, Total beta = 29.00000, Total charge = -0.00000
