                              Psi4 1.0.54 Driver

  ==> Input File <==

--------------------------------------------------------------------------
set {
	reference rhf
	basis cc-pvtz
}

set_num_threads( 4 )
memory 2 gb

molecule MOL {
0 1

H	 -1.082680	 -2.272529	 -0.826626
N	 -0.369925	 -1.580413	 -0.918973
C	 -0.561396	 -0.500007	 0.035200
H	 -0.410215	 -1.239185	 -1.856670
C	 0.575129	 0.507849	 -0.048832
H	 -0.580003	 -0.934223	 1.029347
H	 -1.511222	 0.020471	 -0.096511
C	 1.951750	 -0.141983	 0.035101
H	 0.478254	 1.061643	 -0.975981
H	 0.467676	 1.231891	 0.755499
H	 2.101550	 -0.848142	 -0.774949
H	 2.738260	 0.600794	 -0.026526
H	 2.078939	 -0.679792	 0.968824

	symmetry c1
}
set optking {
	frozen_dihedral = ("
		6 3 5 9
	")
}

ee,wfn = optimize('scf', return_wfn=True)
oeprop( wfn, 'DIPOLE', 'QUADRUPOLE', 'MULLIKEN_CHARGES')
f=open( 'psi4out.xyz', 'w' )
f.write( "13  " )
f.write( str(ee) + "\n" )
f.write( MOL.save_string_xyz() )
f.close()
--------------------------------------------------------------------------

    Molecular point group: c1
  Charge       = 0
  Multiplicity = 1
  Basis Set: CC-PVTZ
  Basis Set:
  @DF-RHF Final Energy:  -173.35089144327574
    Total Energy =                       -173.3508914432756569
    Molecular point group: c1
  Basis Set: CC-PVTZ
  Basis Set:
  Basis Set: CC-PVTZ
  Basis Set:
  @DF-RHF Final Energy:  -173.35127387481862
    Total Energy =                       -173.3512738748185598
  Basis Set: CC-PVTZ
  Basis Set:
  Basis Set: CC-PVTZ
  Basis Set:
  @DF-RHF Final Energy:  -173.35149276188341
    Total Energy =                       -173.3514927618833497
  Basis Set: CC-PVTZ
  Basis Set:
  Basis Set: CC-PVTZ
  Basis Set:
  @DF-RHF Final Energy:  -173.35149936464910
    Total Energy =                       -173.3514993646491575
  Basis Set: CC-PVTZ
  Basis Set:
  Charge       = 0
  Multiplicity = 1
  Basis Set: CC-PVTZ
  Basis Set:

    Orbital Energies (a.u.)
    -----------------------

    Doubly Occupied:

       1A    -15.527417     2A    -11.239022     3A    -11.211138
       4A    -11.197608     5A     -1.179221     6A     -1.030002
       7A     -0.904119     8A     -0.790663     9A     -0.666232
      10A     -0.625085    11A     -0.605793    12A     -0.559823
      13A     -0.531006    14A     -0.492228    15A     -0.472276
      16A     -0.466038    17A     -0.383463

  @DF-RHF Final Energy:  -173.35149985526769

   => Energetics <=

    Nuclear Repulsion Energy =            133.8876206230885089
    One-Electron Energy =                -498.7159743507179428
    Two-Electron Energy =                 191.4768538723616587
    DFT Exchange-Correlation Energy =       0.0000000000000000
    Empirical Dispersion Energy =           0.0000000000000000
    PCM Polarization Energy =               0.0000000000000000
    EFP Energy =                            0.0000000000000000
    Total Energy =                       -173.3514998552677469
    Molecular point group: c1
  Basis Set: CC-PVTZ
  Basis Set:

  -Total Gradient:
     Atom            X                  Y                   Z
    ------   -----------------  -----------------  -----------------
       1       -0.000018019792    -0.000005301238    -0.000007837830
       2        0.000030432525    -0.000009446145     0.000030567529
       3        0.001700613875    -0.001968383866    -0.000745322801
       4        0.000002920328     0.000011941932    -0.000017240128
       5        0.001497988123    -0.001870865347    -0.001421298315
       6       -0.001680722668     0.001981074430     0.000863667043
       7       -0.000003711445    -0.000019667120    -0.000005376230
       8        0.000008916040     0.000021793466     0.000023062433
       9       -0.001547413173     0.001880945446     0.001284089220
      10        0.000008914287     0.000001867038     0.000001305221
      11       -0.000007001276    -0.000002796143    -0.000007448169
      12       -0.000004813356    -0.000011258178     0.000000074867
      13        0.000011896532    -0.000009904274     0.000001757159

  **** Optimization is complete! (in 5 steps) ****
    Final optimized geometry and variables:
    Molecular point group: c1

    Geometry (in Angstrom), charge = 0, multiplicity = 1:

    H           -1.526260327487    -1.810687906526    -0.576682575879
    N           -0.806971237203    -1.129770774148    -0.695901179011
    C           -0.935303928461    -0.058756253325     0.278850679152
    H           -0.888246719944    -0.775114012509    -1.626309441933
    C            0.208396391994     0.946075802207     0.188681989963
    H           -0.947726821413    -0.496843704237     1.271574245200
    H           -1.874597735043     0.486662012283     0.180411811447
    C            1.600530230391     0.335930481770     0.301941251983
    H            0.115738287607     1.511875058651    -0.735876289982
    H            0.067489558441     1.672854270183     0.984117435071
    H            1.792209574513    -0.363325672769    -0.499835686088
    H            2.360783896057     1.108452727987     0.271433325257
    H            1.710875562693    -0.201470466421     1.238267755154

  Mulliken Charges: (a.u.)
   Center  Symbol    Alpha    Beta     Spin     Total
       1     H     0.42891  0.42891  0.00000  0.14219
       2     N     3.68958  3.68958  0.00000 -0.37915
       3     C     3.03393  3.03393  0.00000 -0.06786
       4     H     0.43047  0.43047  0.00000  0.13906
       5     C     3.08866  3.08866  0.00000 -0.17732
       6     H     0.45675  0.45675  0.00000  0.08649
       7     H     0.46178  0.46178  0.00000  0.07644
       8     C     3.14040  3.14040  0.00000 -0.28080
       9     H     0.45662  0.45662  0.00000  0.08675
      10     H     0.45305  0.45305  0.00000  0.09389
      11     H     0.44908  0.44908  0.00000  0.10183
      12     H     0.45259  0.45259  0.00000  0.09482
      13     H     0.45817  0.45817  0.00000  0.08366

   Total alpha = 17.00000, Total beta = 17.00000, Total charge = -0.00000

*** Psi4 exiting successfully. Buy a developer a beer!
