  ==> Input File <==

--------------------------------------------------------------------------
set {
	reference rhf
	basis 6-31G*
}

set_num_threads( 4 )
memory 2 gb

molecule MOL {
0 1

H	 -3.531075	 0.153676	 0.694648
O	 -3.109513	 -0.239161	 -0.057402
C	 -1.776244	 -0.071954	 -0.007364
C	 -1.152044	 0.600258	 1.039300
C	 -1.026943	 -0.600189	 -1.051194
H	 -1.740172	 1.006652	 1.844446
C	 0.219759	 0.741584	 1.037870
H	 -1.531461	 -1.114396	 -1.847011
C	 0.344161	 -0.450697	 -1.038431
H	 0.714528	 1.257851	 1.838976
C	 0.984182	 0.218375	 0.000000
H	 0.925288	 -0.859860	 -1.847096
C	 2.452467	 0.370529	 0.000000
O	 3.228994	 -0.533774	 0.000000
H	 2.809473	 1.405765	 0.000000

	symmetry c1
}
set optking {
	frozen_dihedral = ("
		7 11 13 14
	")
}

ee = optimize('scf')
oeprop('DIPOLE', 'QUADRUPOLE', 'MULLIKEN_CHARGES')
f=open( 'psi4out.xyz', 'w' )
f.write( "15  " )
f.write( str(ee) + "\n" )
f.write( MOL.save_string_xyz() )
f.close()
--------------------------------------------------------------------------

    Molecular point group: c1
  Charge       = 0
  Multiplicity = 1
  Basis Set: 6-31G*
  Basis Set:
  @DF-RHF Final Energy:  -418.27733047508394
    Total Energy =                       -418.2773304750839998
    Molecular point group: c1
  Basis Set: 6-31G*
  Basis Set:
  Basis Set: 6-31G*
  Basis Set:
  @DF-RHF Final Energy:  -418.27718494583121
    Total Energy =                       -418.2771849458316638
  Basis Set: 6-31G*
  Basis Set:
  Basis Set: 6-31G*
  Basis Set:
  @DF-RHF Final Energy:  -418.27806742921530
    Total Energy =                       -418.2780674292156391
  Basis Set: 6-31G*
  Basis Set:
  Basis Set: 6-31G*
  Basis Set:
  @DF-RHF Final Energy:  -418.27858983414262
    Total Energy =                       -418.2785898341422808
  Basis Set: 6-31G*
  Basis Set:
  Basis Set: 6-31G*
  Basis Set:
  @DF-RHF Final Energy:  -418.27859588637671
    Total Energy =                       -418.2785958863768201
  Basis Set: 6-31G*
  Basis Set:
  Basis Set: 6-31G*
  Basis Set:
  @DF-RHF Final Energy:  -418.27859741074258
    Total Energy =                       -418.2785974107429183
  Basis Set: 6-31G*
  Basis Set:
  Charge       = 0
  Multiplicity = 1
  Basis Set: 6-31G*
  Basis Set:

    Orbital Energies (a.u.)
    -----------------------

    Doubly Occupied:

       1A    -20.605655     2A    -20.566152     3A    -11.332514
       4A    -11.316695     5A    -11.259091     6A    -11.252887
       7A    -11.243773     8A    -11.242202     9A    -11.236413
      10A     -1.425853    11A     -1.405561    12A     -1.168669
      13A     -1.039638    14A     -1.035319    15A     -0.889788
      16A     -0.857829    17A     -0.802553    18A     -0.753547
      19A     -0.699798    20A     -0.682027    21A     -0.646064
      22A     -0.627873    23A     -0.606269    24A     -0.603098
      25A     -0.588598    26A     -0.559310    27A     -0.533588
      28A     -0.503920    29A     -0.488655    30A     -0.421146
      31A     -0.354591    32A     -0.324385

  @DF-RHF Final Energy:  -418.27859757536902

   => Energetics <=

    Nuclear Repulsion Energy =            400.9473089527871821
    One-Electron Energy =               -1364.3048891079338318
    Two-Electron Energy =                 545.0789825797774029
    DFT Exchange-Correlation Energy =       0.0000000000000000
    Empirical Dispersion Energy =           0.0000000000000000
    PCM Polarization Energy =               0.0000000000000000
    EFP Energy =                            0.0000000000000000
    Total Energy =                       -418.2785975753693037
    Molecular point group: c1
  Basis Set: 6-31G*
  Basis Set:

  -Total Gradient:
     Atom            X                  Y                   Z
    ------   -----------------  -----------------  -----------------
       1        0.000016907130    -0.000000631772    -0.000004631376
       2       -0.000001068561    -0.000027844647     0.000008760957
       3       -0.000006028428     0.000061110309    -0.000046118678
       4        0.000034282951     0.000022335256     0.000013873050
       5       -0.000011933748    -0.000049949031     0.000045249373
       6       -0.000001356847    -0.000001905666     0.000000166674
       7        0.000195074913    -0.006412985991     0.003244127521
       8        0.000006599678     0.000000175560    -0.000005892555
       9       -0.000010135010     0.000078980438    -0.000046224219
      10       -0.000003305446     0.000037723362     0.000000043414
      11       -0.000460572421     0.008992968643    -0.000849828570
      12       -0.000002653076     0.000000974421    -0.000006031436
      13        0.000468366053    -0.002172628358    -0.011041560106
      14       -0.000247939754    -0.000521812647     0.008680135258
      15        0.000023762574    -0.000006509875     0.000007930692

  **** Optimization is complete! (in 7 steps) ****
    Final optimized geometry and variables:
    Molecular point group: c1

    Geometry (in Angstrom), charge = 0, multiplicity = 1:

    H           -3.523672156137     0.112574751299     0.740608052459
    O           -3.105755011153    -0.266297166821    -0.020246208785
    C           -1.772516529504    -0.071110848466     0.014152815384
    C           -1.146158652133     0.612633866369     1.043998379396
    C           -1.024024081439    -0.592163447432    -1.035816274283
    H           -1.722537360266     1.001298117443     1.866104862552
    C            0.227313395610     0.790364560393     1.011791818966
    H           -1.528021353072    -1.128492667033    -1.817638975098
    C            0.343929383939    -0.429383566332    -1.042560693060
    H            0.704453209933     1.326453619429     1.814287258678
    C            0.982816698824     0.291424963484    -0.036120491779
    H            0.927580142237    -0.859751927651    -1.835882799810
    C            2.471216535223     0.371546644113     0.016462998980
    O            3.185534559117    -0.578721118401    -0.017721249685
    H            2.892810974826     1.369910218367     0.169572759171

  Mulliken Charges: (a.u.)
   Center  Symbol    Alpha    Beta     Spin     Total
       1     H     0.26977  0.26977  0.00000  0.46047
       2     O     4.37480  4.37480  0.00000 -0.74960
       3     C     2.78960  2.78960  0.00000  0.42080
       4     C     3.14438  3.14438  0.00000 -0.28875
       5     C     3.12411  3.12411  0.00000 -0.24821
       6     H     0.39966  0.39966  0.00000  0.20068
       7     C     3.09442  3.09442  0.00000 -0.18883
       8     H     0.38641  0.38641  0.00000  0.22719
       9     C     3.08497  3.08497  0.00000 -0.16995
      10     H     0.39173  0.39173  0.00000  0.21655
      11     C     3.04878  3.04878  0.00000 -0.09755
      12     H     0.38471  0.38471  0.00000  0.23059
      13     C     2.85165  2.85165  0.00000  0.29670
      14     O     4.22922  4.22922  0.00000 -0.45843
      15     H     0.42582  0.42582  0.00000  0.14836

   Total alpha = 32.00000, Total beta = 32.00000, Total charge = -0.00000
