  ==> Input File <==

--------------------------------------------------------------------------
set {
	reference rhf
	basis cc-pvtz
}

set_num_threads( 4 )
memory 2 gb

molecule MOL {
0 1

H	 2.646708	 0.758099	 0.000000
O	 2.258158	 -0.097743	 0.000000
C	 0.911162	 -0.015915	 0.000000
C	 0.341860	 1.174977	 -0.420087
C	 0.105662	 -1.065788	 0.399197
H	 0.982153	 1.978614	 -0.726180
C	 -1.030010	 1.304459	 -0.436851
H	 0.547335	 -1.990058	 0.725237
C	 -1.270267	 -0.921592	 0.377177
H	 -1.465646	 2.229667	 -0.763365
C	 -1.847647	 0.259590	 -0.039204
H	 -1.888502	 -1.741939	 0.688854
H	 -2.914386	 0.367825	 -0.054983

	symmetry c1
}
set optking {
	frozen_dihedral = ("
		4 3 2 1
	")
}

ee = optimize('scf')
oeprop('DIPOLE', 'QUADRUPOLE', 'MULLIKEN_CHARGES')
f=open( 'psi4out.xyz', 'w' )
f.write( "13  " )
f.write( str(ee) + "\n" )
f.write( MOL.save_string_xyz() )
f.close()
--------------------------------------------------------------------------

    Molecular point group: c1
  Charge       = 0
  Multiplicity = 1
  Basis Set: CC-PVTZ
  Basis Set:
  @DF-RHF Final Energy:  -305.66812741938520
    Total Energy =                       -305.6681274193853142
    Molecular point group: c1
  Basis Set: CC-PVTZ
  Basis Set:
  Basis Set: CC-PVTZ
  Basis Set:
  @DF-RHF Final Energy:  -305.66987220522833
    Total Energy =                       -305.6698722052285575
  Basis Set: CC-PVTZ
  Basis Set:
  Basis Set: CC-PVTZ
  Basis Set:
  @DF-RHF Final Energy:  -305.67001593151383
    Total Energy =                       -305.6700159315137171
  Basis Set: CC-PVTZ
  Basis Set:
  Basis Set: CC-PVTZ
  Basis Set:
  @DF-RHF Final Energy:  -305.67003482631014
    Total Energy =                       -305.6700348263098022
  Basis Set: CC-PVTZ
  Basis Set:
  Basis Set: CC-PVTZ
  Basis Set:
  @DF-RHF Final Energy:  -305.67003874744057
    Total Energy =                       -305.6700387474404579
  Basis Set: CC-PVTZ
  Basis Set:
  Charge       = 0
  Multiplicity = 1
  Basis Set: CC-PVTZ
  Basis Set:

    Orbital Energies (a.u.)
    -----------------------

    Doubly Occupied:

       1A    -20.583523     2A    -11.296744     3A    -11.235107
       4A    -11.233369     5A    -11.226187     6A    -11.220866
       7A    -11.220045     8A     -1.413788     9A     -1.152713
      10A     -1.022736    11A     -1.008392    12A     -0.850192
      13A     -0.826829    14A     -0.741316    15A     -0.687963
      16A     -0.654449    17A     -0.615126    18A     -0.598022
      19A     -0.591842    20A     -0.561277    21A     -0.517502
      22A     -0.493821    23A     -0.484163    24A     -0.343073
      25A     -0.316031

  @DF-RHF Final Energy:  -305.67003922317537

   => Energetics <=

    Nuclear Repulsion Energy =            273.7824055572504562
    One-Electron Energy =                -957.1147362255387634
    Two-Electron Energy =                 377.6622914451129986
    DFT Exchange-Correlation Energy =       0.0000000000000000
    Empirical Dispersion Energy =           0.0000000000000000
    PCM Polarization Energy =               0.0000000000000000
    EFP Energy =                            0.0000000000000000
    Total Energy =                       -305.6700392231752517
    Molecular point group: c1
  Basis Set: CC-PVTZ
  Basis Set:

  -Total Gradient:
     Atom            X                  Y                   Z
    ------   -----------------  -----------------  -----------------
       1        0.000002222438     0.000017928639     0.001708278765
       2        0.000057707023    -0.000258179721    -0.002816149361
       3        0.000056118251     0.000696730992     0.002361957380
       4       -0.000026147312    -0.000427530264    -0.001222489001
       5       -0.000079959825    -0.000016445295    -0.000025663990
       6       -0.000004799659    -0.000004466202     0.000000412260
       7       -0.000007809854     0.000004374169    -0.000028675626
       8        0.000010142846     0.000008915528    -0.000000470720
       9       -0.000000026011    -0.000007383326    -0.000013961837
      10       -0.000013877451    -0.000001871421     0.000006214766
      11        0.000007349099    -0.000021809674     0.000026861948
      12       -0.000001901027     0.000000392548     0.000006532135
      13        0.000000981477     0.000009344027    -0.000002846719

  **** Optimization is complete! (in 6 steps) ****
    Final optimized geometry and variables:
    Molecular point group: c1

    Geometry (in Angstrom), charge = 0, multiplicity = 1:

    H            2.695036870627     0.570809807756     0.024471287657
    O            2.246857067747    -0.255429446060     0.035109326817
    C            0.907250046348    -0.077951682409     0.019456236497
    C            0.325086754514     1.101312057434    -0.407317817482
    C            0.112938035080    -1.140733371238     0.414106838107
    H            0.942843775591     1.920422252382    -0.727739991403
    C           -1.052835948062     1.219298314375    -0.423194263990
    H            0.581690860325    -2.049299525047     0.737126422857
    C           -1.259704917002    -1.012580848904     0.385521493032
    H           -1.497285286631     2.139527549361    -0.751811775828
    C           -1.853725821068     0.166920749229    -0.029432592402
    H           -1.870601131123    -1.839831386374     0.693533888985
    H           -2.921870579621     0.260915917367    -0.046276042101

  Mulliken Charges: (a.u.)
   Center  Symbol    Alpha    Beta     Spin     Total
       1     H     0.38682  0.38682  0.00000  0.22636
       2     O     4.17711  4.17711  0.00000 -0.35423
       3     C     2.85332  2.85332  0.00000  0.29336
       4     C     3.13159  3.13159  0.00000 -0.26318
       5     C     3.11061  3.11061  0.00000 -0.22122
       6     H     0.43293  0.43293  0.00000  0.13415
       7     C     3.06518  3.06518  0.00000 -0.13036
       8     H     0.41902  0.41902  0.00000  0.16196
       9     C     3.05742  3.05742  0.00000 -0.11484
      10     H     0.42236  0.42236  0.00000  0.15528
      11     C     3.09741  3.09741  0.00000 -0.19483
      12     H     0.42237  0.42237  0.00000  0.15525
      13     H     0.42386  0.42386  0.00000  0.15229

   Total alpha = 25.00000, Total beta = 25.00000, Total charge = -0.00000
