  ==> Input File <==

--------------------------------------------------------------------------
set {
	reference rhf
	basis 6-31G*
}

set_num_threads( 4 )
memory 2 gb

molecule MOL {
0 1

H	 -0.311682	 0.016649	 -2.349799
C	 0.099024	 0.906151	 -1.856025
C	 0.065331	 0.871482	 -0.349150
O	 0.531254	 1.802965	 -2.504578
C	 -1.339775	 0.583656	 0.198860
H	 0.450809	 1.813609	 0.023296
H	 0.743782	 0.081615	 -0.029813
C	 -1.808407	 -0.848507	 -0.061364
H	 -2.036183	 1.280685	 -0.256307
H	 -1.360094	 0.788874	 1.267089
H	 -1.828843	 -1.063152	 -1.125336
H	 -2.808409	 -1.004529	 0.329750
H	 -1.153967	 -1.577789	 0.406873

	symmetry c1
}
set optking {
	frozen_dihedral = ("
		6 3 5 9
	")
}

ee = optimize('scf')
oeprop('DIPOLE', 'QUADRUPOLE', 'MULLIKEN_CHARGES')
f=open( 'psi4out.xyz', 'w' )
f.write( "13  " )
f.write( str(ee) + "\n" )
f.write( MOL.save_string_xyz() )
f.close()
--------------------------------------------------------------------------

    Molecular point group: c1
  Charge       = 0
  Multiplicity = 1
  Basis Set: 6-31G*
  Basis Set:
  @DF-RHF Final Energy:  -230.98237440191366
    Total Energy =                       -230.9823744019135745
    Molecular point group: c1
  Basis Set: 6-31G*
  Basis Set:
  Basis Set: 6-31G*
  Basis Set:
  @DF-RHF Final Energy:  -230.98273095217795
    Total Energy =                       -230.9827309521780592
  Basis Set: 6-31G*
  Basis Set:
  Basis Set: 6-31G*
  Basis Set:
  @DF-RHF Final Energy:  -230.98111258698611
    Total Energy =                       -230.9811125869860575
  Basis Set: 6-31G*
  Basis Set:
  Basis Set: 6-31G*
  Basis Set:
  @DF-RHF Final Energy:  -230.98286835072520
    Total Energy =                       -230.9828683507252549
  Basis Set: 6-31G*
  Basis Set:
  Basis Set: 6-31G*
  Basis Set:
  @DF-RHF Final Energy:  -230.98292054910840
    Total Energy =                       -230.9829205491082007
  Basis Set: 6-31G*
  Basis Set:
  Basis Set: 6-31G*
  Basis Set:
  @DF-RHF Final Energy:  -230.98292426402116
    Total Energy =                       -230.9829242640211078
  Basis Set: 6-31G*
  Basis Set:
  Charge       = 0
  Multiplicity = 1
  Basis Set: 6-31G*
  Basis Set:

    Orbital Energies (a.u.)
    -----------------------

    Doubly Occupied:

       1A    -20.562417     2A    -11.326228     3A    -11.239381
       4A    -11.235615     5A    -11.225969     6A     -1.401963
       7A     -1.086052     8A     -0.974043     9A     -0.853051
      10A     -0.784747    11A     -0.676786    12A     -0.648247
      13A     -0.603229    14A     -0.599739    15A     -0.578125
      16A     -0.529712    17A     -0.506238    18A     -0.495237
      19A     -0.483187    20A     -0.408951

  @DF-RHF Final Energy:  -230.98292473338719

   => Energetics <=

    Nuclear Repulsion Energy =            172.2989688198642000
    One-Electron Energy =                -654.1259510359525393
    Two-Electron Energy =                 250.8440574827010892
    DFT Exchange-Correlation Energy =       0.0000000000000000
    Empirical Dispersion Energy =           0.0000000000000000
    PCM Polarization Energy =               0.0000000000000000
    EFP Energy =                            0.0000000000000000
    Total Energy =                       -230.9829247333872786
    Molecular point group: c1
  Basis Set: 6-31G*
  Basis Set:

  -Total Gradient:
     Atom            X                  Y                   Z
    ------   -----------------  -----------------  -----------------
       1       -0.000036103789     0.000011496285    -0.000006246429
       2        0.000058619400    -0.000026655177     0.000038698920
       3       -0.000396977803     0.000245301860    -0.000617329627
       4        0.000009631680     0.000010092429    -0.000027663881
       5        0.000188834285     0.000358120303     0.000587308080
       6        0.000215821202    -0.000258226001     0.000419348279
       7        0.000021932102    -0.000004923644    -0.000012099033
       8        0.000021140052     0.000003833480     0.000025282645
       9       -0.000067025358    -0.000341715103    -0.000407444457
      10       -0.000024589430     0.000001165443     0.000016444106
      11        0.000011082552     0.000009395345    -0.000009331975
      12       -0.000002619931     0.000001838507     0.000012503581
      13        0.000000255037    -0.000009723727    -0.000019470209

  **** Optimization is complete! (in 7 steps) ****
    Final optimized geometry and variables:
    Molecular point group: c1

    Geometry (in Angstrom), charge = 0, multiplicity = 1:

    H            0.262566912422    -0.624449364105    -1.482985102862
    C            0.623200365864     0.258350738326    -0.945314114843
    C            0.558373712259     0.192286722953     0.559668104703
    O            1.035333451344     1.193525258391    -1.553158100951
    C           -0.854906150731    -0.091061732194     1.099273312263
    H            0.935284847538     1.132808751427     0.943124002588
    H            1.234334879921    -0.595184092439     0.891006775155
    C           -1.338731948185    -1.526511497011     0.881428217225
    H           -1.558592919129     0.604676652934     0.649302568332
    H           -0.854695432985     0.122284005214     2.163394044901
    H           -1.420375465648    -1.777875612423    -0.171222718917
    H           -2.318744314681    -1.669682880027     1.324463082044
    H           -0.660798790736    -2.240185157611     1.340610700044

  Mulliken Charges: (a.u.)
   Center  Symbol    Alpha    Beta     Spin     Total
       1     H     0.43037  0.43037  0.00000  0.13926
       2     C     2.83099  2.83099  0.00000  0.33802
       3     C     3.20957  3.20957  0.00000 -0.41914
       4     O     4.23775  4.23775  0.00000 -0.47550
       5     C     3.16504  3.16504  0.00000 -0.33009
       6     H     0.39769  0.39769  0.00000  0.20462
       7     H     0.40989  0.40989  0.00000  0.18021
       8     C     3.24428  3.24428  0.00000 -0.48856
       9     H     0.41259  0.41259  0.00000  0.17482
      10     H     0.41086  0.41086  0.00000  0.17828
      11     H     0.41915  0.41915  0.00000  0.16170
      12     H     0.41327  0.41327  0.00000  0.17346
      13     H     0.41854  0.41854  0.00000  0.16292

   Total alpha = 20.00000, Total beta = 20.00000, Total charge =  0.00000
