  ==> Input File <==

--------------------------------------------------------------------------
set {
	reference rhf
	basis 6-31G*
}

set_num_threads( 1 )
memory 2 gb

molecule MOL {
0 1

O	 0.749854	 1.307668	 -0.000040
C	 0.576249	 0.131685	 -0.000108
C	 -0.766779	 -0.556801	 -0.000461
O	 1.568443	 -0.749345	 -0.000005
C	 -1.945214	 0.412366	 0.000161
H	 -0.796911	 -1.211249	 -0.867467
H	 -0.796854	 -1.212390	 0.865687
C	 -3.287791	 -0.317055	 0.000105
H	 -1.876087	 1.060580	 -0.866812
H	 -1.875822	 1.059691	 0.867761
H	 -3.394745	 -0.949193	 -0.877058
H	 -4.111778	 0.388953	 0.000015
H	 -3.394954	 -0.949187	 0.877259
C	 2.690920	 -0.453251	 -0.810919
H	 2.399641	 -0.373215	 -1.848365
H	 3.376464	 -1.275472	 -0.677324
H	 3.151536	 0.472985	 -0.498782

	symmetry c1
}
set optking {
	frozen_dihedral = ("
		1 2 3 6,
		9 5 3 6
	")
}

ee = energy('scf')
oeprop('DIPOLE', 'QUADRUPOLE', 'MULLIKEN_CHARGES')
f=open( 'psi4out.xyz', 'w' )
f.write( "17  " )
f.write( str(ee) + "\n" )
f.write( MOL.save_string_xyz() )
f.close()
--------------------------------------------------------------------------

    Molecular point group: c1

    Geometry (in Angstrom), charge = 0, multiplicity = 1:

       Center              X                  Y                   Z               Mass
    ------------   -----------------  -----------------  -----------------  -----------------
           O          0.780100506410     1.341745503807     0.125211118873    15.994914619560
           C          0.606495506410     0.165762503807     0.125143118873    12.000000000000
           C         -0.736532493590    -0.522723496193     0.124790118873    12.000000000000
           O          1.598689506410    -0.715267496193     0.125246118873    15.994914619560
           C         -1.914967493590     0.446443503807     0.125412118873    12.000000000000
           H         -0.766664493590    -1.177171496193    -0.742215881127     1.007825032070
           H         -0.766607493590    -1.178312496193     0.990938118873     1.007825032070
           C         -3.257544493590    -0.282977496193     0.125356118873    12.000000000000
           H         -1.845840493590     1.094657503807    -0.741560881127     1.007825032070
           H         -1.845575493590     1.093768503807     0.993012118873     1.007825032070
           H         -3.364498493590    -0.915115496193    -0.751806881127     1.007825032070
           H         -4.081531493590     0.423030503807     0.125266118873     1.007825032070
           H         -3.364707493590    -0.915109496193     1.002510118873     1.007825032070
           C          2.721166506410    -0.419173496193    -0.685667881127    12.000000000000
           H          2.429887506410    -0.339137496193    -1.723113881127     1.007825032070
           H          3.406710506410    -1.241394496193    -0.552072881127     1.007825032070
           H          3.181782506410     0.507062503807    -0.373530881127     1.007825032070

  Charge       = 0
  Multiplicity = 1
  Basis Set: 6-31G*
  Basis Set:

    Orbital Energies (a.u.)
    -----------------------

    Doubly Occupied:

       1A    -20.596465     2A    -20.548989     3A    -11.373343
       4A    -11.285330     5A    -11.236301     6A    -11.221909
       7A    -11.214781     8A     -1.467472     9A     -1.364085
      10A     -1.080288    11A     -1.000044    12A     -0.943167
      13A     -0.828762    14A     -0.767641    15A     -0.700126
      16A     -0.681549    17A     -0.672700    18A     -0.636105
      19A     -0.603060    20A     -0.575783    21A     -0.567629
      22A     -0.532680    23A     -0.519603    24A     -0.497246
      25A     -0.488238    26A     -0.479140    27A     -0.454355
      28A     -0.435500

  @DF-RHF Final Energy:  -344.89833002118286

   => Energetics <=

    Nuclear Repulsion Energy =            312.5786955194712959
    One-Electron Energy =               -1089.4092597926764938
    Two-Electron Energy =                 431.9322342520222264
    DFT Exchange-Correlation Energy =       0.0000000000000000
    Empirical Dispersion Energy =           0.0000000000000000
    PCM Polarization Energy =               0.0000000000000000
    EFP Energy =                            0.0000000000000000
    Total Energy =                       -344.8983300211830283

  Mulliken Charges: (a.u.)
   Center  Symbol    Alpha    Beta     Spin     Total
       1     O     4.27713  4.27713  0.00000 -0.55427
       2     C     2.60622  2.60622  0.00000  0.78756
       3     C     3.20774  3.20774  0.00000 -0.41549
       4     O     4.30922  4.30922  0.00000 -0.61843
       5     C     3.15257  3.15257  0.00000 -0.30514
       6     H     0.40392  0.40392  0.00000  0.19216
       7     H     0.39973  0.39973  0.00000  0.20054
       8     C     3.24263  3.24263  0.00000 -0.48525
       9     H     0.41174  0.41174  0.00000  0.17651
      10     H     0.41025  0.41025  0.00000  0.17950
      11     H     0.42189  0.42189  0.00000  0.15621
      12     H     0.41515  0.41515  0.00000  0.16969
      13     H     0.42106  0.42106  0.00000  0.15788
      14     C     3.09506  3.09506  0.00000 -0.19013
      15     H     0.41687  0.41687  0.00000  0.16626
      16     H     0.40639  0.40639  0.00000  0.18722
      17     H     0.40242  0.40242  0.00000  0.19516

   Total alpha = 28.00000, Total beta = 28.00000, Total charge =  0.00000
