  ==> Input File <==

--------------------------------------------------------------------------
set {
	reference rhf
	basis 6-31G*
}

set_num_threads( 4 )
memory 2 gb

molecule MOL {
0 1

O	 3.225979	 0.970355	 -0.599647
C	 2.701189	 0.057885	 -0.047330
C	 1.245376	 -0.013843	 0.345420
O	 3.347903	 -1.046386	 0.304773
C	 0.455112	 1.231400	 -0.050772
H	 0.838542	 -0.913825	 -0.103701
H	 1.208210	 -0.175333	 1.419774
C	 -0.998893	 1.219485	 0.433193
H	 0.482531	 1.345121	 -1.130325
H	 0.957290	 2.103070	 0.354729
C	 -1.252322	 1.986401	 1.734240
H	 -1.297589	 0.183676	 0.576741
H	 -1.644918	 1.613604	 -0.349962
C	 -2.692704	 1.852815	 2.232690
H	 -0.571040	 1.623050	 2.502127
H	 -1.024432	 3.041131	 1.597916
C	 -2.958895	 2.619409	 3.529459
H	 -2.924659	 0.800022	 2.384535
H	 -3.374999	 2.206019	 1.461056
C	 -4.398528	 2.477708	 4.022487
H	 -2.277254	 2.268403	 4.301341
H	 -2.731762	 3.672677	 3.378399
H	 -4.555976	 3.031904	 4.942641
H	 -4.645926	 1.437805	 4.216373
H	 -5.103872	 2.852352	 3.286005
C	 4.728119	 -1.109107	 -0.004993
H	 4.882018	 -1.033965	 -1.071845
H	 5.068212	 -2.067527	 0.355250
H	 5.265056	 -0.311663	 0.488280

	symmetry c1
}
set optking {
	frozen_dihedral = ("
		11 8 5 9
	")
}

ee = optimize('scf')
oeprop('DIPOLE', 'QUADRUPOLE', 'MULLIKEN_CHARGES')
f=open( 'psi4out.xyz', 'w' )
f.write( "29  " )
f.write( str(ee) + "\n" )
f.write( MOL.save_string_xyz() )
f.close()
--------------------------------------------------------------------------

    Molecular point group: c1
  Charge       = 0
  Multiplicity = 1
  Basis Set: 6-31G*
  Basis Set:
  @DF-RHF Final Energy:  -501.04112382001131
    Total Energy =                       -501.0411238200108528
    Molecular point group: c1
  Basis Set: 6-31G*
  Basis Set:
  Basis Set: 6-31G*
  Basis Set:
  @DF-RHF Final Energy:  -501.04160303569256
    Total Energy =                       -501.0416030356916508
  Basis Set: 6-31G*
  Basis Set:
  Basis Set: 6-31G*
  Basis Set:
  @DF-RHF Final Energy:  -501.04150039425531
    Total Energy =                       -501.0415003942556496
  Basis Set: 6-31G*
  Basis Set:
  Basis Set: 6-31G*
  Basis Set:
  @DF-RHF Final Energy:  -501.04167948486531
    Total Energy =                       -501.0416794848647442
  Basis Set: 6-31G*
  Basis Set:
  Basis Set: 6-31G*
  Basis Set:
  @DF-RHF Final Energy:  -501.04168136565499
    Total Energy =                       -501.0416813656556769
  Basis Set: 6-31G*
  Basis Set:
  Basis Set: 6-31G*
  Basis Set:
  @DF-RHF Final Energy:  -501.04169107070470
    Total Energy =                       -501.0416910707045872
  Basis Set: 6-31G*
  Basis Set:
  Charge       = 0
  Multiplicity = 1
  Basis Set: 6-31G*
  Basis Set:

    Orbital Energies (a.u.)
    -----------------------

    Doubly Occupied:

       1A    -20.603508     2A    -20.545371     3A    -11.372018
       4A    -11.280758     5A    -11.235610     6A    -11.218576
       7A    -11.217225     8A    -11.215510     9A    -11.215314
      10A    -11.213769    11A    -11.208671    12A     -1.469175
      13A     -1.362638    14A     -1.096887    15A     -1.066748
      16A     -1.019677    17A     -0.977137    18A     -0.927323
      19A     -0.858360    20A     -0.800759    21A     -0.790440
      22A     -0.766592    23A     -0.700697    24A     -0.682166
      25A     -0.672513    26A     -0.649386    27A     -0.627627
      28A     -0.603456    29A     -0.595968    30A     -0.581455
      31A     -0.565634    32A     -0.547357    33A     -0.533326
      34A     -0.529701    35A     -0.514948    36A     -0.504664
      37A     -0.501714    38A     -0.477668    39A     -0.469920
      40A     -0.462879    41A     -0.459150    42A     -0.456172
      43A     -0.441405    44A     -0.432811

  @DF-RHF Final Energy:  -501.04169137508654

   => Energetics <=

    Nuclear Repulsion Energy =            607.5563504704015259
    One-Electron Energy =               -1886.2507079899480686
    Two-Electron Energy =                 777.6526661444602269
    DFT Exchange-Correlation Energy =       0.0000000000000000
    Empirical Dispersion Energy =           0.0000000000000000
    PCM Polarization Energy =               0.0000000000000000
    EFP Energy =                            0.0000000000000000
    Total Energy =                       -501.0416913750862022
    Molecular point group: c1
  Basis Set: 6-31G*
  Basis Set:

  -Total Gradient:
     Atom            X                  Y                   Z
    ------   -----------------  -----------------  -----------------
       1       -0.000003417165     0.000004524417     0.000010593313
       2       -0.000003561229    -0.000006625787    -0.000024334925
       3        0.000000258563    -0.000001142552     0.000012854427
       4        0.000004464954    -0.000009866376    -0.000000070650
       5       -0.000202234480    -0.003375545149    -0.001005847948
       6       -0.000001603056     0.000000612941     0.000007310012
       7        0.000008024135    -0.000001370155     0.000008622565
       8        0.000667445525    -0.002047433133     0.001843213484
       9        0.000008615532     0.003406554838     0.000406791170
      10       -0.000000428673    -0.000004908750    -0.000011265480
      11       -0.000484307666     0.002059123319    -0.001270290127
      12       -0.000011345948     0.000000390477     0.000002800532
      13        0.000001027635    -0.000008216226    -0.000003635342
      14        0.000007123293    -0.000009297914     0.000005910198
      15       -0.000010457151     0.000002882369     0.000014355416
      16        0.000012382122    -0.000003332377    -0.000006621273
      17        0.000003623235    -0.000005386451     0.000003413687
      18        0.000002363538    -0.000001599621     0.000004853582
      19        0.000004279996    -0.000005975319    -0.000002145104
      20       -0.000003726589     0.000009709267    -0.000004005027
      21       -0.000003177487    -0.000002339847     0.000001695210
      22        0.000004389969    -0.000002406998     0.000001766989
      23       -0.000001996489     0.000002622612    -0.000001335762
      24        0.000003040129     0.000001224085     0.000000630734
      25       -0.000003137168    -0.000001395034    -0.000000399594
      26        0.000000292497     0.000001569098     0.000007554557
      27       -0.000001122951     0.000000013926    -0.000000211052
      28        0.000000758420    -0.000000755510    -0.000000599008
      29        0.000002426493    -0.000001630148    -0.000001604580

  **** Optimization is complete! (in 7 steps) ****
    Final optimized geometry and variables:
    Molecular point group: c1

    Geometry (in Angstrom), charge = 0, multiplicity = 1:

    O            2.871069636514     0.065610680249    -1.688982877156
    C            2.352587022774    -0.843116403376    -1.124579670030
    C            0.899305619096    -0.913976480319    -0.723567141390
    O            3.004472405883    -1.941907991622    -0.765339086097
    C            0.096435506533     0.318399571157    -1.129247548742
    H            0.484049944261    -1.815777366226    -1.164529108574
    H            0.867283517247    -1.069145951354     0.351613932973
    C           -1.366790299356     0.265517062930    -0.650292808335
    H            0.140275858049     0.447961379959    -2.204820634017
    H            0.580067828562     1.200707474030    -0.722268416910
    C           -1.606969856147     1.017350049271     0.661895727062
    H           -1.689489362512    -0.768352917696    -0.544640603917
    H           -2.008351552232     0.699555575338    -1.412854443559
    C           -3.051364140844     0.924578779108     1.155556304571
    H           -0.939676558562     0.633881434684     1.432967005655
    H           -1.339024519212     2.062561734441     0.522017464876
    C           -3.299087733919     1.695486712780     2.453513015887
    H           -3.315499082262    -0.121333430692     1.303829077498
    H           -3.720228726694     1.299913850288     0.382585639133
    C           -4.745067695876     1.599551304317     2.938930902443
    H           -2.633216365838     1.320265567509     3.227825063115
    H           -3.036716755208     2.741000485553     2.306613671739
    H           -4.889061037150     2.156188978419     3.859824577689
    H           -5.027407017653     0.567756249920     3.128646393241
    H           -5.433972157816     1.999027414253     2.199969024400
    C            4.382871756405    -2.004281416760    -1.083299971297
    H            4.529707977255    -1.939568878008    -2.151835641109
    H            4.727715322836    -2.958141376151    -0.715588186096
    H            4.920857314490    -1.200523265496    -0.601563300606

  Mulliken Charges: (a.u.)
   Center  Symbol    Alpha    Beta     Spin     Total
       1     O     4.28593  4.28593  0.00000 -0.57186
       2     C     2.60559  2.60559  0.00000  0.78882
       3     C     3.20853  3.20853  0.00000 -0.41707
       4     O     4.30737  4.30737  0.00000 -0.61474
       5     C     3.15661  3.15661  0.00000 -0.31322
       6     H     0.40028  0.40028  0.00000  0.19944
       7     H     0.40040  0.40040  0.00000  0.19920
       8     C     3.15825  3.15825  0.00000 -0.31650
       9     H     0.40963  0.40963  0.00000  0.18075
      10     H     0.40945  0.40945  0.00000  0.18110
      11     C     3.15326  3.15326  0.00000 -0.30651
      12     H     0.42287  0.42287  0.00000  0.15425
      13     H     0.41819  0.41819  0.00000  0.16362
      14     C     3.15113  3.15113  0.00000 -0.30225
      15     H     0.42520  0.42520  0.00000  0.14960
      16     H     0.42084  0.42084  0.00000  0.15833
      17     C     3.15143  3.15143  0.00000 -0.30287
      18     H     0.42426  0.42426  0.00000  0.15148
      19     H     0.42363  0.42363  0.00000  0.15274
      20     C     3.23930  3.23930  0.00000 -0.47860
      21     H     0.42329  0.42329  0.00000  0.15341
      22     H     0.42259  0.42259  0.00000  0.15482
      23     H     0.41923  0.41923  0.00000  0.16153
      24     H     0.42199  0.42199  0.00000  0.15603
      25     H     0.42167  0.42167  0.00000  0.15666
      26     C     3.09244  3.09244  0.00000 -0.18488
      27     H     0.40906  0.40906  0.00000  0.18188
      28     H     0.40848  0.40848  0.00000  0.18304
      29     H     0.40910  0.40910  0.00000  0.18179

   Total alpha = 44.00000, Total beta = 44.00000, Total charge = -0.00000
