                              Psi4 1.0.54 Driver

  ==> Input File <==

--------------------------------------------------------------------------
set {
	reference rhf
	basis cc-pvtz
}

set_num_threads( 4 )
memory 2 gb

molecule MOL {
0 1

H	 2.570020	 0.635149	 0.227212
O	 2.063861	 -0.083405	 -0.105244
C	 0.743090	 0.005673	 0.350743
H	 0.731546	 0.039217	 1.440073
C	 -0.063910	 -1.193497	 -0.124432
C	 -0.047666	 1.190566	 -0.194469
H	 0.194895	 -1.376167	 -1.161315
H	 0.163179	 -2.094510	 0.429926
C	 -1.532946	 -0.752004	 0.006095
H	 0.148169	 1.266543	 -1.259282
H	 0.226401	 2.136491	 0.259715
C	 -1.506468	 0.799187	 0.067155
H	 -2.124194	 -1.110501	 -0.826096
H	 -1.982937	 -1.158032	 0.903396
H	 -2.183642	 1.252167	 -0.644684
H	 -1.813760	 1.138696	 1.049450

	symmetry c1
}
ee,wfn = energy('scf', return_wfn=True)
oeprop( wfn, 'DIPOLE', 'QUADRUPOLE', 'MULLIKEN_CHARGES')
oeprop( wfn, 'GRID_ESP')
f=open( 'psi4out.xyz', 'w' )
f.write( "16  " )
f.write( str(ee) + "\n" )
f.write( MOL.save_string_xyz() )
f.close()
--------------------------------------------------------------------------

    Molecular point group: c1

    Geometry (in Angstrom), charge = 0, multiplicity = 1:

       Center              X                  Y                   Z               Mass
    ------------   -----------------  -----------------  -----------------  -----------------
           H          2.569853780091     0.635151300261     0.227218922482     1.007825032070
           O          2.063694780091    -0.083402699739    -0.105237077518    15.994914619560
           C          0.742923780091     0.005675300261     0.350749922482    12.000000000000
           H          0.731379780091     0.039219300261     1.440079922482     1.007825032070
           C         -0.064076219909    -1.193494699739    -0.124425077518    12.000000000000
           C         -0.047832219909     1.190568300261    -0.194462077518    12.000000000000
           H          0.194728780091    -1.376164699739    -1.161308077518     1.007825032070
           H          0.163012780091    -2.094507699739     0.429932922482     1.007825032070
           C         -1.533112219909    -0.752001699739     0.006101922482    12.000000000000
           H          0.148002780091     1.266545300261    -1.259275077518     1.007825032070
           H          0.226234780091     2.136493300261     0.259721922482     1.007825032070
           C         -1.506634219909     0.799189300261     0.067161922482    12.000000000000
           H         -2.124360219909    -1.110498699739    -0.826089077518     1.007825032070
           H         -1.983103219909    -1.158029699739     0.903402922482     1.007825032070
           H         -2.183808219909     1.252169300261    -0.644677077518     1.007825032070
           H         -1.813926219909     1.138698300261     1.049456922482     1.007825032070

  Charge       = 0
  Multiplicity = 1
  Basis Set: CC-PVTZ
  Basis Set:

    Orbital Energies (a.u.)
    -----------------------

    Doubly Occupied:

       1A    -20.545907     2A    -11.267313     3A    -11.214887
       4A    -11.213190     5A    -11.210128     6A    -11.206990
       7A     -1.365886     8A     -1.114868     9A     -0.966589
      10A     -0.949269    11A     -0.789688    12A     -0.777137
      13A     -0.707190    14A     -0.658087    15A     -0.619062
      16A     -0.589716    17A     -0.567675    18A     -0.526225
      19A     -0.508048    20A     -0.481634    21A     -0.470913
      22A     -0.456757    23A     -0.449795    24A     -0.421764

  @DF-RHF Final Energy:  -270.11692262697250

   => Energetics <=

    Nuclear Repulsion Energy =            255.5981900802531754
    One-Electron Energy =                -873.2726385119877932
    Two-Electron Energy =                 347.5575258047617808
    DFT Exchange-Correlation Energy =       0.0000000000000000
    Empirical Dispersion Energy =           0.0000000000000000
    PCM Polarization Energy =               0.0000000000000000
    EFP Energy =                            0.0000000000000000
    Total Energy =                       -270.1169226269728370

  Mulliken Charges: (a.u.)
   Center  Symbol    Alpha    Beta     Spin     Total
       1     H     0.39549  0.39549  0.00000  0.20903
       2     O     4.20009  4.20009  0.00000 -0.40018
       3     C     2.92233  2.92233  0.00000  0.15535
       4     H     0.46678  0.46678  0.00000  0.06644
       5     C     3.10225  3.10225  0.00000 -0.20450
       6     C     3.10253  3.10253  0.00000 -0.20507
       7     H     0.45118  0.45118  0.00000  0.09763
       8     H     0.44377  0.44377  0.00000  0.11246
       9     C     3.10953  3.10953  0.00000 -0.21907
      10     H     0.45334  0.45334  0.00000  0.09333
      11     H     0.45007  0.45007  0.00000  0.09986
      12     C     3.11470  3.11470  0.00000 -0.22940
      13     H     0.44547  0.44547  0.00000  0.10907
      14     H     0.44867  0.44867  0.00000  0.10266
      15     H     0.44336  0.44336  0.00000  0.11329
      16     H     0.45045  0.45045  0.00000  0.09910

   Total alpha = 24.00000, Total beta = 24.00000, Total charge = -0.00000

*** Psi4 exiting successfully. Buy a developer a beer!
