  ==> Input File <==

--------------------------------------------------------------------------
set {
	reference rhf
	basis 6-31G*
}

set_num_threads( 1 )
memory 2 gb

molecule MOL {
0 1

H	 3.276176	 0.174363	 -0.109463
N	 2.434251	 -0.367735	 -0.081097
C	 1.267428	 0.496480	 0.024474
H	 2.501951	 -0.965776	 0.720575
C	 -0.016086	 -0.325158	 -0.029487
H	 1.288818	 1.183521	 -0.816092
H	 1.267576	 1.109062	 0.929528
C	 -1.282277	 0.529072	 0.046735
H	 -0.012495	 -0.908639	 -0.945788
H	 -0.015903	 -1.041248	 0.791956
C	 -1.063093	 1.852848	 0.778363
H	 -2.066680	 -0.033359	 0.549098
H	 -1.647103	 0.729963	 -0.958502
H	 -0.731254	 1.685530	 1.798955
H	 -1.977602	 2.436418	 0.818847
H	 -0.308035	 2.455050	 0.280908

	symmetry c1
}
set optking {
	frozen_dihedral = ("
		6 3 5 9,
		1 2 3 6
	")
}

ee = energy('scf')
oeprop('DIPOLE', 'QUADRUPOLE', 'MULLIKEN_CHARGES')
f=open( 'psi4out.xyz', 'w' )
f.write( "16  " )
f.write( str(ee) + "\n" )
f.write( MOL.save_string_xyz() )
f.close()
--------------------------------------------------------------------------

    Molecular point group: c1

    Geometry (in Angstrom), charge = 0, multiplicity = 1:

       Center              X                  Y                   Z               Mass
    ------------   -----------------  -----------------  -----------------  -----------------
           H          2.967697408631    -0.268490334720    -0.270764363901     1.007825032070
           N          2.125772408631    -0.810588334720    -0.242398363901    14.003074004780
           C          0.958949408631     0.053626665280    -0.136827363901    12.000000000000
           H          2.193472408631    -1.408629334720     0.559273636099     1.007825032070
           C         -0.324564591369    -0.768011334720    -0.190788363901    12.000000000000
           H          0.980339408631     0.740667665280    -0.977393363901     1.007825032070
           H          0.959097408631     0.666208665280     0.768226636099     1.007825032070
           C         -1.590755591369     0.086218665280    -0.114566363901    12.000000000000
           H         -0.320973591369    -1.351492334720    -1.107089363901     1.007825032070
           H         -0.324381591369    -1.484101334720     0.630654636099     1.007825032070
           C         -1.371571591369     1.409994665280     0.617061636099    12.000000000000
           H         -2.375158591369    -0.476212334720     0.387796636099     1.007825032070
           H         -1.955581591369     0.287109665280    -1.119803363901     1.007825032070
           H         -1.039732591369     1.242676665280     1.637653636099     1.007825032070
           H         -2.286080591369     1.993564665280     0.657545636099     1.007825032070
           H         -0.616513591369     2.012196665280     0.119606636099     1.007825032070

  Charge       = 0
  Multiplicity = 1
  Basis Set: 6-31G*
  Basis Set:

    Orbital Energies (a.u.)
    -----------------------

    Doubly Occupied:

       1A    -15.531328     2A    -11.238318     3A    -11.214312
       4A    -11.208723     5A    -11.208325     6A     -1.176037
       7A     -1.062230     8A     -0.950192     9A     -0.867086
      10A     -0.772118    11A     -0.658336    12A     -0.640893
      13A     -0.624623    14A     -0.568122    15A     -0.547940
      16A     -0.536671    17A     -0.513150    18A     -0.468644
      19A     -0.464509    20A     -0.451178    21A     -0.378594

  @DF-RHF Final Energy:  -212.30746910194122

   => Energetics <=

    Nuclear Repulsion Energy =            191.0777729336384425
    One-Electron Energy =                -664.6076681402026907
    Two-Electron Energy =                 261.2224261046227411
    DFT Exchange-Correlation Energy =       0.0000000000000000
    Empirical Dispersion Energy =           0.0000000000000000
    PCM Polarization Energy =               0.0000000000000000
    EFP Energy =                            0.0000000000000000
    Total Energy =                       -212.3074691019414786

  Mulliken Charges: (a.u.)
   Center  Symbol    Alpha    Beta     Spin     Total
       1     H     0.33285  0.33285  0.00000  0.33430
       2     N     3.92237  3.92237  0.00000 -0.84473
       3     C     3.06597  3.06597  0.00000 -0.13194
       4     H     0.33570  0.33570  0.00000  0.32859
       5     C     3.15324  3.15324  0.00000 -0.30647
       6     H     0.42099  0.42099  0.00000  0.15803
       7     H     0.42931  0.42931  0.00000  0.14138
       8     C     3.15515  3.15515  0.00000 -0.31030
       9     H     0.41068  0.41068  0.00000  0.17865
      10     H     0.42688  0.42688  0.00000  0.14625
      11     C     3.24859  3.24859  0.00000 -0.49718
      12     H     0.41984  0.41984  0.00000  0.16032
      13     H     0.42029  0.42029  0.00000  0.15942
      14     H     0.42149  0.42149  0.00000  0.15702
      15     H     0.41802  0.41802  0.00000  0.16396
      16     H     0.41864  0.41864  0.00000  0.16272

   Total alpha = 21.00000, Total beta = 21.00000, Total charge =  0.00000
