  ==> Input File <==

--------------------------------------------------------------------------
set {
	reference rhf
	basis cc-pvtz
}

set_num_threads( 4 )
memory 2 gb

molecule MOL {
0 1

O	 -0.987265	 -1.409051	 -0.020940
C	 -0.675735	 -0.252776	 -0.047328
C	 -1.745516	 0.819791	 -0.048071
N	 0.622280	 0.144970	 -0.099307
H	 -1.676957	 1.444790	 -0.929560
H	 -2.700828	 0.322034	 -0.037605
H	 -1.665606	 1.457366	 0.823759
C	 1.664396	 -0.854993	 0.000772
C	 1.055950	 1.509037	 0.087789
H	 2.462727	 -0.615153	 -0.690869
H	 1.261798	 -1.821849	 -0.240651
H	 2.081615	 -0.891605	 1.003877
H	 1.939895	 1.686651	 -0.511152
H	 0.303967	 2.212776	 -0.225529
H	 1.309709	 1.715740	 1.125057

	symmetry c1
}
set optking {
	frozen_dihedral = ("
		2 4 8 10
	")
}

ee = optimize('scf')
oeprop('DIPOLE', 'QUADRUPOLE', 'MULLIKEN_CHARGES')
f=open( 'psi4out.xyz', 'w' )
f.write( "15  " )
f.write( str(ee) + "\n" )
f.write( MOL.save_string_xyz() )
f.close()
--------------------------------------------------------------------------

    Molecular point group: c1
  Charge       = 0
  Multiplicity = 1
  Basis Set: CC-PVTZ
  Basis Set:
  @DF-RHF Final Energy:  -286.13563461944455
    Total Energy =                       -286.1356346194442040
    Molecular point group: c1
  Basis Set: CC-PVTZ
  Basis Set:
  Basis Set: CC-PVTZ
  Basis Set:
  @DF-RHF Final Energy:  -286.13563745090698
    Total Energy =                       -286.1356374509069838
  Basis Set: CC-PVTZ
  Basis Set:
  Basis Set: CC-PVTZ
  Basis Set:
  @DF-RHF Final Energy:  -286.13563637543882
    Total Energy =                       -286.1356363754389349
  Basis Set: CC-PVTZ
  Basis Set:
  Basis Set: CC-PVTZ
  Basis Set:
  @DF-RHF Final Energy:  -286.13563944139662
    Total Energy =                       -286.1356394413967337
  Basis Set: CC-PVTZ
  Basis Set:
  Charge       = 0
  Multiplicity = 1
  Basis Set: CC-PVTZ
  Basis Set:

    Orbital Energies (a.u.)
    -----------------------

    Doubly Occupied:

       1A    -20.503562     2A    -15.578485     3A    -11.335128
       4A    -11.263992     5A    -11.246442     6A    -11.226470
       7A     -1.387330     8A     -1.246355     9A     -1.015113
      10A     -0.973222    11A     -0.920895    12A     -0.739060
      13A     -0.683301    14A     -0.661970    15A     -0.653847
      16A     -0.590274    17A     -0.578180    18A     -0.567491
      19A     -0.561744    20A     -0.548418    21A     -0.530392
      22A     -0.507321    23A     -0.413680    24A     -0.370469

  @DF-RHF Final Energy:  -286.13564008012634

   => Energetics <=

    Nuclear Repulsion Energy =            252.8988293423908260
    One-Electron Energy =                -889.8626599485205588
    Two-Electron Energy =                 350.8281905260029134
    DFT Exchange-Correlation Energy =       0.0000000000000000
    Empirical Dispersion Energy =           0.0000000000000000
    PCM Polarization Energy =               0.0000000000000000
    EFP Energy =                            0.0000000000000000
    Total Energy =                       -286.1356400801267910
    Molecular point group: c1
  Basis Set: CC-PVTZ
  Basis Set:

  -Total Gradient:
     Atom            X                  Y                   Z
    ------   -----------------  -----------------  -----------------
       1        0.000028756994     0.000033192855    -0.000026485539
       2        0.000034673475    -0.000048636552     0.000039287377
       3        0.000025278725     0.000021357896    -0.000018255736
       4       -0.000049542101    -0.000031218167    -0.000038983357
       5        0.000000453807    -0.000006391835     0.000010490627
       6       -0.000003748210    -0.000001163942     0.000002289537
       7        0.000012497036     0.000004122317     0.000005558528
       8       -0.000043981873     0.000000266999     0.000036525190
       9        0.000007611992     0.000012546450     0.000013551088
      10       -0.000015186168     0.000009524121     0.000002783974
      11        0.000003498760    -0.000021231125    -0.000009883684
      12        0.000022608933    -0.000008281221    -0.000012534751
      13       -0.000009374333    -0.000004412815     0.000014411337
      14       -0.000007695074     0.000017271308    -0.000022663447
      15       -0.000005851965     0.000023053712     0.000003908855

  **** Optimization is complete! (in 5 steps) ****
    Final optimized geometry and variables:
    Molecular point group: c1

    Geometry (in Angstrom), charge = 0, multiplicity = 1:

    O           -0.986721251350    -1.405570947531    -0.011809263849
    C           -0.674446854400    -0.249340390295    -0.031416773919
    C           -1.744160897642     0.823356616334    -0.030621593403
    N            0.623578701309     0.147931836345    -0.074618569010
    H           -1.676608870339     1.448137744218    -0.912330129703
    H           -2.699419600034     0.325504973383    -0.019477799166
    H           -1.663436278757     1.460929558814     0.841070491831
    C            1.666594473714    -0.851173409343     0.021709155386
    C            1.059133253151     1.512398356878     0.103530486069
    H            2.468121055546    -0.605577892183    -0.664477494149
    H            1.266153125022    -1.816592507453    -0.228678716399
    H            2.079384351058    -0.893792838893     1.026316586014
    H            1.936015740170     1.689128539858    -0.506224083313
    H            0.303490635715     2.215542054804    -0.201779183786
    H            1.325236325101     1.720929515659     1.137251706392

  Mulliken Charges: (a.u.)
   Center  Symbol    Alpha    Beta     Spin     Total
       1     O     4.22082  4.22082  0.00000 -0.44164
       2     C     2.84551  2.84551  0.00000  0.30897
       3     C     3.16077  3.16077  0.00000 -0.32155
       4     N     3.56156  3.56156  0.00000 -0.12313
       5     H     0.44890  0.44890  0.00000  0.10219
       6     H     0.42863  0.42863  0.00000  0.14275
       7     H     0.44925  0.44925  0.00000  0.10150
       8     C     3.09897  3.09897  0.00000 -0.19794
       9     C     3.09559  3.09559  0.00000 -0.19118
      10     H     0.45671  0.45671  0.00000  0.08659
      11     H     0.42625  0.42625  0.00000  0.14749
      12     H     0.45786  0.45786  0.00000  0.08428
      13     H     0.44952  0.44952  0.00000  0.10095
      14     H     0.44507  0.44507  0.00000  0.10987
      15     H     0.45458  0.45458  0.00000  0.09084

   Total alpha = 24.00000, Total beta = 24.00000, Total charge = -0.00000
