  ==> Input File <==

--------------------------------------------------------------------------
set {
	reference rhf
	basis 6-31G*
}

set_num_threads( 4 )
memory 2 gb

molecule MOL {
0 1

H	 -2.499100	 -0.730091	 -0.745082
O	 -2.347518	 -0.290803	 0.079804
C	 -1.184022	 0.487508	 -0.006784
C	 0.062599	 -0.378592	 0.031606
H	 -1.176523	 1.099369	 -0.904519
H	 -1.187323	 1.153111	 0.844927
O	 1.171513	 0.459272	 -0.058250
H	 0.050699	 -1.089204	 -0.797170
H	 0.078739	 -0.954914	 0.954740
C	 1.058511	 1.645745	 0.661927
H	 0.931278	 1.454799	 1.725873
H	 1.970963	 2.206317	 0.513289
H	 0.217145	 2.242163	 0.315258

	symmetry c1
}
set optking {
	frozen_dihedral = ("
		10 7 4 8
	")
}

ee = optimize('scf')
oeprop('DIPOLE', 'QUADRUPOLE', 'MULLIKEN_CHARGES')
f=open( 'psi4out.xyz', 'w' )
f.write( "13  " )
f.write( str(ee) + "\n" )
f.write( MOL.save_string_xyz() )
f.close()
--------------------------------------------------------------------------

    Molecular point group: c1
  Charge       = 0
  Multiplicity = 1
  Basis Set: 6-31G*
  Basis Set:
  @DF-RHF Final Energy:  -267.93371391696405
    Total Energy =                       -267.9337139169638249
    Molecular point group: c1
  Basis Set: 6-31G*
  Basis Set:
  Basis Set: 6-31G*
  Basis Set:
  @DF-RHF Final Energy:  -267.93400062986075
    Total Energy =                       -267.9340006298605772
  Basis Set: 6-31G*
  Basis Set:
  Basis Set: 6-31G*
  Basis Set:
  @DF-RHF Final Energy:  -267.94067714188316
    Total Energy =                       -267.9406771418831568
  Basis Set: 6-31G*
  Basis Set:
  Basis Set: 6-31G*
  Basis Set:
  @DF-RHF Final Energy:  -267.94313575964281
    Total Energy =                       -267.9431357596426437
  Basis Set: 6-31G*
  Basis Set:
  @DF-RHF Final Energy:  -267.94354503893948
    Total Energy =                       -267.9435450389395896
  Basis Set: 6-31G*
  Basis Set:
  @DF-RHF Final Energy:  -267.94367990161459
    Total Energy =                       -267.9436799016145869
  Basis Set: 6-31G*
  Basis Set:
  Basis Set: 6-31G*
  Basis Set:
  @DF-RHF Final Energy:  -267.94369647729462
    Total Energy =                       -267.9436964772946226
  Basis Set: 6-31G*
  Basis Set:
  Basis Set: 6-31G*
  Basis Set:
  @DF-RHF Final Energy:  -267.94369915997584
    Total Energy =                       -267.9436991599759494
  Basis Set: 6-31G*
  Basis Set:
  Charge       = 0
  Multiplicity = 1
  Basis Set: 6-31G*
  Basis Set:

    Orbital Energies (a.u.)
    -----------------------

    Doubly Occupied:

       1A    -20.565365     2A    -20.559578     3A    -11.275597
       4A    -11.271998     5A    -11.270617     6A     -1.384178
       7A     -1.369022     8A     -1.013125     9A     -0.937443
      10A     -0.829807    11A     -0.714228    12A     -0.675380
      13A     -0.659296    14A     -0.639247    15A     -0.597949
      16A     -0.562654    17A     -0.543829    18A     -0.519399
      19A     -0.479140    20A     -0.443874    21A     -0.408885

  @DF-RHF Final Energy:  -267.94369931813117

   => Energetics <=

    Nuclear Repulsion Energy =            192.8487995029258855
    One-Electron Energy =                -748.1437725590373020
    Two-Electron Energy =                 287.3512737379801365
    DFT Exchange-Correlation Energy =       0.0000000000000000
    Empirical Dispersion Energy =           0.0000000000000000
    PCM Polarization Energy =               0.0000000000000000
    EFP Energy =                            0.0000000000000000
    Total Energy =                       -267.9436993181312801
    Molecular point group: c1
  Basis Set: 6-31G*
  Basis Set:

  -Total Gradient:
     Atom            X                  Y                   Z
    ------   -----------------  -----------------  -----------------
       1        0.000004633465     0.000005674270     0.000001691185
       2        0.000007397929     0.000005776325     0.000008543730
       3        0.000002293598    -0.000007886574    -0.000024081605
       4        0.002577588311    -0.003498514463     0.001767591098
       5       -0.000007350654     0.000003245083    -0.000001071352
       6        0.000003440178    -0.000008550890    -0.000000239021
       7        0.002163049178    -0.002480655917     0.004733456781
       8       -0.002877010921     0.003750060877    -0.002861069511
       9        0.000001244660    -0.000010870361     0.000007632575
      10       -0.001870393409     0.002233485449    -0.003633362968
      11       -0.000001936500     0.000003687065    -0.000000242227
      12       -0.000000290615     0.000009875574     0.000004642811
      13       -0.000002665218    -0.000005326435    -0.000003491497

  **** Optimization is complete! (in 9 steps) ****
    Final optimized geometry and variables:
    Molecular point group: c1

    Geometry (in Angstrom), charge = 0, multiplicity = 1:

    H           -2.125845479278    -1.274237614051    -0.949291262465
    O           -2.089939408021    -0.821521780241    -0.118132434549
    C           -1.019936144621     0.085186622458    -0.118392329861
    C            0.306255063013    -0.673289479018    -0.076704853001
    H           -1.050984083167     0.735088071156    -0.990168210829
    H           -1.156439096229     0.701895775721     0.758750519476
    O            1.453542443880     0.119432016125    -0.187131460887
    H            0.318513652828    -1.325932098106    -0.942593754464
    H            0.339945102923    -1.281124499214     0.824104709265
    C            1.487808643490     1.315764538882     0.529839456441
    H            1.279436546162     1.162164767535     1.587096555324
    H            2.489223850913     1.711249063472     0.431192643561
    H            0.788826890022     2.049427592892     0.139949440563

  Mulliken Charges: (a.u.)
   Center  Symbol    Alpha    Beta     Spin     Total
       1     H     0.28050  0.28050  0.00000  0.43899
       2     O     4.37009  4.37009  0.00000 -0.74019
       3     C     3.01665  3.01665  0.00000 -0.03330
       4     C     2.99206  2.99206  0.00000  0.01588
       5     H     0.42368  0.42368  0.00000  0.15264
       6     H     0.41329  0.41329  0.00000  0.17341
       7     O     4.30964  4.30964  0.00000 -0.61929
       8     H     0.42349  0.42349  0.00000  0.15303
       9     H     0.42074  0.42074  0.00000  0.15851
      10     C     3.08498  3.08498  0.00000 -0.16996
      11     H     0.42823  0.42823  0.00000  0.14355
      12     H     0.40936  0.40936  0.00000  0.18127
      13     H     0.42728  0.42728  0.00000  0.14545

   Total alpha = 21.00000, Total beta = 21.00000, Total charge =  0.00000
