  ==> Input File <==

--------------------------------------------------------------------------
set {
	reference rhf
	basis cc-pvtz
}

set_num_threads( 4 )
memory 2 gb

molecule MOL {
0 1

H	 -3.954633	 -1.074621	 -0.882757
C	 -2.889959	 -0.942761	 -0.918209
C	 -2.291764	 -0.465448	 -2.070588
C	 -2.120648	 -1.250446	 0.187898
H	 -2.889530	 -0.226834	 -2.928749
C	 -0.923602	 -0.296271	 -2.115384
H	 -2.585514	 -1.620543	 1.081095
C	 -0.750572	 -1.081588	 0.144597
H	 -0.444124	 0.072177	 -2.999355
C	 -0.147989	 -0.603630	 -1.008209
H	 -0.151896	 -1.318925	 0.999459
C	 1.326122	 -0.403312	 -1.107156
O	 1.968286	 -0.725612	 -0.000027
O	 1.872704	 0.003287	 -2.077261
C	 3.373556	 -0.568203	 0.000011
H	 3.695416	 -0.031588	 -0.879663
H	 3.782700	 -1.565294	 -0.000152
H	 3.695405	 -0.031851	 0.879862

	symmetry c1
}
set optking {
	frozen_dihedral = ("
		12 13 15 16
	")
}

ee = optimize('scf')
oeprop('DIPOLE', 'QUADRUPOLE', 'MULLIKEN_CHARGES')
f=open( 'psi4out.xyz', 'w' )
f.write( "18  " )
f.write( str(ee) + "\n" )
f.write( MOL.save_string_xyz() )
f.close()
--------------------------------------------------------------------------

    Molecular point group: c1
  Charge       = 0
  Multiplicity = 1
  Basis Set: CC-PVTZ
  Basis Set:
  @DF-RHF Final Energy:  -457.50707203772379
    Total Energy =                       -457.5070720377241287
    Molecular point group: c1
  Basis Set: CC-PVTZ
  Basis Set:
  Basis Set: CC-PVTZ
  Basis Set:
  @DF-RHF Final Energy:  -457.50765335554257
    Total Energy =                       -457.5076533555422884
  Basis Set: CC-PVTZ
  Basis Set:
  Basis Set: CC-PVTZ
  Basis Set:
  @DF-RHF Final Energy:  -457.50784154928562
    Total Energy =                       -457.5078415492860131
  Basis Set: CC-PVTZ
  Basis Set:
  Basis Set: CC-PVTZ
  Basis Set:
  @DF-RHF Final Energy:  -457.50814982391773
    Total Energy =                       -457.5081498239170514
  Basis Set: CC-PVTZ
  Basis Set:
  Basis Set: CC-PVTZ
  Basis Set:
  @DF-RHF Final Energy:  -457.50819366592094
    Total Energy =                       -457.5081936659207713
  Basis Set: CC-PVTZ
  Basis Set:
  Charge       = 0
  Multiplicity = 1
  Basis Set: CC-PVTZ
  Basis Set:

    Orbital Energies (a.u.)
    -----------------------

    Doubly Occupied:

       1A    -20.599954     2A    -20.533665     3A    -11.373195
       4A    -11.279924     5A    -11.244558     6A    -11.243183
       7A    -11.242253     8A    -11.239628     9A    -11.235689
      10A    -11.234925    11A     -1.474510    12A     -1.369053
      13A     -1.170350    14A     -1.051557    15A     -1.028668
      16A     -0.981584    17A     -0.862756    18A     -0.838047
      19A     -0.780423    20A     -0.745067    21A     -0.688375
      22A     -0.679306    23A     -0.676064    24A     -0.634287
      25A     -0.629735    26A     -0.600892    27A     -0.587591
      28A     -0.571056    29A     -0.526546    30A     -0.520009
      31A     -0.510066    32A     -0.501524    33A     -0.460309
      34A     -0.449904    35A     -0.350003    36A     -0.345866

  @DF-RHF Final Energy:  -457.50821942851451

   => Energetics <=

    Nuclear Repulsion Energy =            493.6150162790457898
    One-Electron Energy =               -1601.7254271248459645
    Two-Electron Energy =                 650.6021914172861216
    DFT Exchange-Correlation Energy =       0.0000000000000000
    Empirical Dispersion Energy =           0.0000000000000000
    PCM Polarization Energy =               0.0000000000000000
    EFP Energy =                            0.0000000000000000
    Total Energy =                       -457.5082194285141668
    Molecular point group: c1
  Basis Set: CC-PVTZ
  Basis Set:

  -Total Gradient:
     Atom            X                  Y                   Z
    ------   -----------------  -----------------  -----------------
       1        0.000006556142     0.000000030172     0.000001644595
       2        0.000007145878     0.000004691800    -0.000012273878
       3       -0.000009831519    -0.000000299049     0.000011430975
       4        0.000018037287    -0.000000452553    -0.000005398923
       5        0.000004786396    -0.000000186284     0.000001834515
       6        0.000016590642     0.000001075898    -0.000001717135
       7        0.000003327233     0.000000761748    -0.000000884771
       8       -0.000006010017    -0.000001064486     0.000006299737
       9        0.000000418244    -0.000000934040    -0.000000764072
      10        0.000009384419     0.000005944866    -0.000010778317
      11       -0.000004010869     0.000002048497    -0.000003396042
      12       -0.000118753340     0.000562548016     0.000304928100
      13        0.000059795912    -0.001033044056    -0.000409331365
      14        0.000021199122     0.000031253144    -0.000058134188
      15       -0.000100506893     0.001052574076     0.000562229137
      16        0.000074909325    -0.000637152617    -0.000360336688
      17        0.000033472980     0.000016657345     0.000005463242
      18       -0.000016510938    -0.000004452477    -0.000030814925

  **** Optimization is complete! (in 6 steps) ****
    Final optimized geometry and variables:
    Molecular point group: c1

    Geometry (in Angstrom), charge = 0, multiplicity = 1:

    H           -4.022604205467    -0.448927316800     0.039544125611
    C           -2.958280086709    -0.317545979431    -0.007400174684
    C           -2.372210935414     0.159223192195    -1.166261030116
    C           -2.177030704593    -0.625309248254     1.090204392236
    H           -2.978979068884     0.397934672063    -2.018123352907
    C           -1.004527127768     0.327638731320    -1.225832519335
    H           -2.632112663262    -0.995083601749     1.988604532973
    C           -0.807296425289    -0.457039409146     1.032120483254
    H           -0.534743955141     0.695518120619    -2.115211556521
    C           -0.216792105816     0.020398412410    -0.127046731026
    H           -0.199931304248    -0.694692923403     1.880640602674
    C            1.257239475433     0.221142544499    -0.244022831773
    O            1.904097586224    -0.105902216074     0.859867699042
    O            1.784916525783     0.629027798408    -1.223501473052
    C            3.310626187453     0.043619625061     0.914407630050
    H            3.673605249203     0.587722443830     0.060279002109
    H            3.759699772070    -0.939060905698     0.939024219205
    H            3.544095422868     0.570172799805     1.827143016122

  Mulliken Charges: (a.u.)
   Center  Symbol    Alpha    Beta     Spin     Total
       1     H     0.42035  0.42035  0.00000  0.15931
       2     C     3.06972  3.06972  0.00000 -0.13945
       3     C     3.07553  3.07553  0.00000 -0.15107
       4     C     3.07481  3.07481  0.00000 -0.14961
       5     H     0.42049  0.42049  0.00000  0.15902
       6     C     3.07597  3.07597  0.00000 -0.15195
       7     H     0.42199  0.42199  0.00000  0.15602
       8     C     3.08187  3.08187  0.00000 -0.16374
       9     H     0.40635  0.40635  0.00000  0.18730
      10     C     3.01857  3.01857  0.00000 -0.03715
      11     H     0.41124  0.41124  0.00000  0.17751
      12     C     2.77448  2.77448  0.00000  0.45104
      13     O     4.15019  4.15019  0.00000 -0.30039
      14     O     4.21152  4.21152  0.00000 -0.42304
      15     C     3.04245  3.04245  0.00000 -0.08491
      16     H     0.43986  0.43986  0.00000  0.12028
      17     H     0.45385  0.45385  0.00000  0.09229
      18     H     0.45074  0.45074  0.00000  0.09851

   Total alpha = 36.00000, Total beta = 36.00000, Total charge = -0.00000
