  ==> Input File <==

--------------------------------------------------------------------------
set {
	reference rhf
	basis 6-31G*
}

set_num_threads( 1 )
memory 2 gb

molecule MOL {
0 1

H	 -2.714249	 -1.277223	 -0.338011
N	 -1.793370	 -1.149343	 0.034285
C	 -1.410736	 0.250969	 -0.008425
H	 -1.165005	 -1.684899	 -0.532677
C	 -0.002532	 0.418568	 0.522618
H	 -1.455972	 0.688112	 -1.006854
H	 -2.088229	 0.815237	 0.625125
O	 0.874168	 -0.245412	 -0.342030
H	 0.255665	 1.475870	 0.578164
H	 0.063455	 -0.002580	 1.523375
C	 2.202317	 -0.244239	 0.074611
H	 2.711377	 -1.041390	 -0.449894
H	 2.692099	 0.699270	 -0.159667
H	 2.283185	 -0.418429	 1.145558

	symmetry c1
}
set optking {
	frozen_dihedral = ("
		8 5 3 6,
		6 3 2 4,
		11 8 5 3
	")
}

ee = energy('scf')
oeprop('DIPOLE', 'QUADRUPOLE', 'MULLIKEN_CHARGES')
f=open( 'psi4out.xyz', 'w' )
f.write( "14  " )
f.write( str(ee) + "\n" )
f.write( MOL.save_string_xyz() )
f.close()
--------------------------------------------------------------------------

    Molecular point group: c1

    Geometry (in Angstrom), charge = 0, multiplicity = 1:

       Center              X                  Y                   Z               Mass
    ------------   -----------------  -----------------  -----------------  -----------------
           H         -2.699929001360    -1.068507083676    -0.384248294284     1.007825032070
           N         -1.779050001360    -0.940627083676    -0.011952294284    14.003074004780
           C         -1.396416001360     0.459684916324    -0.054662294284    12.000000000000
           H         -1.150685001360    -1.476183083676    -0.578914294284     1.007825032070
           C          0.011787998640     0.627283916324     0.476380705716    12.000000000000
           H         -1.441652001360     0.896827916324    -1.053091294284     1.007825032070
           H         -2.073909001360     1.023952916324     0.578887705716     1.007825032070
           O          0.888487998640    -0.036696083676    -0.388267294284    15.994914619560
           H          0.269984998640     1.684585916324     0.531926705716     1.007825032070
           H          0.077774998640     0.206135916324     1.477137705716     1.007825032070
           C          2.216636998640    -0.035523083676     0.028373705716    12.000000000000
           H          2.725696998640    -0.832674083676    -0.496131294284     1.007825032070
           H          2.706418998640     0.907985916324    -0.205904294284     1.007825032070
           H          2.297504998640    -0.209713083676     1.099320705716     1.007825032070

  Charge       = 0
  Multiplicity = 1
  Basis Set: 6-31G*
  Basis Set:

    Orbital Energies (a.u.)
    -----------------------

    Doubly Occupied:

       1A    -20.556998     2A    -15.528460     3A    -11.265969
       4A    -11.265775     5A    -11.240729     6A     -1.381305
       7A     -1.173635     8A     -0.998931     9A     -0.907164
      10A     -0.815543    11A     -0.683238    12A     -0.673949
      13A     -0.645256    14A     -0.610060    15A     -0.605592
      16A     -0.540251    17A     -0.530736    18A     -0.496550
      19A     -0.473390    20A     -0.416582    21A     -0.380105

  @DF-RHF Final Energy:  -248.12432250048863

   => Energetics <=

    Nuclear Repulsion Energy =            194.6839435915159697
    One-Electron Energy =                -723.2360428591881600
    Two-Electron Energy =                 280.4277767671832180
    DFT Exchange-Correlation Energy =       0.0000000000000000
    Empirical Dispersion Energy =           0.0000000000000000
    PCM Polarization Energy =               0.0000000000000000
    EFP Energy =                            0.0000000000000000
    Total Energy =                       -248.1243225004890292

  Mulliken Charges: (a.u.)
   Center  Symbol    Alpha    Beta     Spin     Total
       1     H     0.33281  0.33281  0.00000  0.33438
       2     N     3.92529  3.92529  0.00000 -0.85059
       3     C     3.06905  3.06905  0.00000 -0.13809
       4     H     0.32374  0.32374  0.00000  0.35253
       5     C     2.99059  2.99059  0.00000  0.01881
       6     H     0.42656  0.42656  0.00000  0.14688
       7     H     0.42046  0.42046  0.00000  0.15908
       8     O     4.31014  4.31014  0.00000 -0.62029
       9     H     0.43128  0.43128  0.00000  0.13743
      10     H     0.42187  0.42187  0.00000  0.15627
      11     C     3.07805  3.07805  0.00000 -0.15611
      12     H     0.41349  0.41349  0.00000  0.17302
      13     H     0.42789  0.42789  0.00000  0.14421
      14     H     0.42877  0.42877  0.00000  0.14245

   Total alpha = 21.00000, Total beta = 21.00000, Total charge =  0.00000
