  ==> Input File <==

--------------------------------------------------------------------------
set {
	reference rhf
	basis 6-31G*
}

set_num_threads( 4 )
memory 2 gb

molecule MOL {
0 1

H	 -3.892951	 0.981613	 -0.358725
C	 -3.196921	 0.361773	 0.172313
C	 -2.076860	 -0.007332	 -0.404944
H	 -3.439953	 0.057760	 1.173024
O	 -1.652367	 0.544320	 -1.572140
H	 -1.422297	 -0.749110	 0.017558
C	 -0.555925	 -0.020551	 -2.205058
C	 -0.959629	 -1.161693	 -3.111210
H	 0.180051	 -0.392596	 -1.501058
H	 -0.099530	 0.743056	 -2.817507
F	 0.114756	 -1.642853	 -3.719476
F	 -1.515456	 -2.152924	 -2.434197
F	 -1.813791	 -0.779499	 -4.037885

	symmetry c1
}
set optking {
	frozen_dihedral = ("
		6 3 2 1
	")
}

ee = optimize('scf')
oeprop('DIPOLE', 'QUADRUPOLE', 'MULLIKEN_CHARGES')
f=open( 'psi4out.xyz', 'w' )
f.write( "13  " )
f.write( str(ee) + "\n" )
f.write( MOL.save_string_xyz() )
f.close()
--------------------------------------------------------------------------

    Molecular point group: c1
  Charge       = 0
  Multiplicity = 1
  Basis Set: 6-31G*
  Basis Set:
  @DF-RHF Final Energy:  -527.53376572327807
    Total Energy =                       -527.5337657232782931
    Molecular point group: c1
  Basis Set: 6-31G*
  Basis Set:
  Basis Set: 6-31G*
  Basis Set:
  @DF-RHF Final Energy:  -527.53459080074094
    Total Energy =                       -527.5345908007412845
  Basis Set: 6-31G*
  Basis Set:
  Basis Set: 6-31G*
  Basis Set:
  @DF-RHF Final Energy:  -527.53508196347661
    Total Energy =                       -527.5350819634762729
  Basis Set: 6-31G*
  Basis Set:
  Basis Set: 6-31G*
  Basis Set:
  @DF-RHF Final Energy:  -527.53508881751077
    Total Energy =                       -527.5350888175114505
  Basis Set: 6-31G*
  Basis Set:
  Basis Set: 6-31G*
  Basis Set:
  @DF-RHF Final Energy:  -527.53509011544577
    Total Energy =                       -527.5350901154461098
  Basis Set: 6-31G*
  Basis Set:
  Charge       = 0
  Multiplicity = 1
  Basis Set: 6-31G*
  Basis Set:

    Orbital Energies (a.u.)
    -----------------------

    Doubly Occupied:

       1A    -26.344866     2A    -26.344031     3A    -26.340830
       4A    -20.608410     5A    -11.503366     6A    -11.318937
       7A    -11.299586     8A    -11.215766     9A     -1.742006
      10A     -1.640144    11A     -1.638528    12A     -1.438265
      13A     -1.084223    14A     -1.016609    15A     -0.925529
      16A     -0.836778    17A     -0.831246    18A     -0.821467
      19A     -0.791757    20A     -0.722075    21A     -0.711525
      22A     -0.696562    23A     -0.675945    24A     -0.660625
      25A     -0.654872    26A     -0.643396    27A     -0.634487
      28A     -0.584575    29A     -0.563413    30A     -0.523601
      31A     -0.513910    32A     -0.351205

  @DF-RHF Final Energy:  -527.53509087275620

   => Energetics <=

    Nuclear Repulsion Energy =            413.7521427393312479
    One-Electron Energy =               -1551.2173995211066995
    Two-Electron Energy =                 609.9301659090190242
    DFT Exchange-Correlation Energy =       0.0000000000000000
    Empirical Dispersion Energy =           0.0000000000000000
    PCM Polarization Energy =               0.0000000000000000
    EFP Energy =                            0.0000000000000000
    Total Energy =                       -527.5350908727564274
    Molecular point group: c1
  Basis Set: 6-31G*
  Basis Set:

  -Total Gradient:
     Atom            X                  Y                   Z
    ------   -----------------  -----------------  -----------------
       1       -0.002551467092    -0.004590941090    -0.002280817441
       2        0.002355307717     0.004741584351     0.001798156443
       3        0.002939941826     0.003793265552     0.003557417882
       4        0.000030647497     0.000006408233     0.000058596406
       5        0.000079674038     0.000062161060    -0.000000512680
       6       -0.002813515982    -0.003992297531    -0.003123282221
       7       -0.000057145903    -0.000023706993    -0.000009916998
       8        0.000008746829     0.000005646789    -0.000003623945
       9        0.000010033002    -0.000001199492     0.000002832363
      10       -0.000003838094    -0.000005988607    -0.000005318581
      11        0.000014206016    -0.000006406821    -0.000001787102
      12       -0.000004924097     0.000016021463     0.000001056517
      13       -0.000007665759    -0.000004546918     0.000007199355

  **** Optimization is complete! (in 6 steps) ****
    Final optimized geometry and variables:
    Molecular point group: c1

    Geometry (in Angstrom), charge = 0, multiplicity = 1:

    H           -2.475095448661     1.714140334934     1.948615358144
    C           -1.777210441035     1.068023487762     2.446984288908
    C           -0.642404313016     0.717322042145     1.886846488751
    H           -2.063340730597     0.635124528668     3.386023554913
    O           -0.225282791985     1.254331214387     0.709920618324
    H           -0.003654993049    -0.046320033005     2.294236622696
    C            0.861432590783     0.675790100581     0.072790028289
    C            0.443353948578    -0.475004373838    -0.814400097524
    H            1.602693411360     0.309063380493     0.774136522259
    H            1.315082192811     1.429135701771    -0.554139080315
    F            1.508754920602    -0.968306151155    -1.428486789715
    F           -0.108815196062    -1.455380224060    -0.118497751033
    F           -0.419944549715    -0.101223807319    -1.736031305526

  Mulliken Charges: (a.u.)
   Center  Symbol    Alpha    Beta     Spin     Total
       1     H     0.40158  0.40158  0.00000  0.19685
       2     C     3.23486  3.23486  0.00000 -0.46972
       3     C     2.89636  2.89636  0.00000  0.20728
       4     H     0.40743  0.40743  0.00000  0.18514
       5     O     4.30125  4.30125  0.00000 -0.60250
       6     H     0.40649  0.40649  0.00000  0.18703
       7     C     3.06399  3.06399  0.00000 -0.12798
       8     C     2.45579  2.45579  0.00000  1.08842
       9     H     0.40549  0.40549  0.00000  0.18902
      10     H     0.38980  0.38980  0.00000  0.22040
      11     F     4.68271  4.68271  0.00000 -0.36542
      12     F     4.67977  4.67977  0.00000 -0.35955
      13     F     4.67447  4.67447  0.00000 -0.34895

   Total alpha = 32.00000, Total beta = 32.00000, Total charge =  0.00000
