  ==> Input File <==

--------------------------------------------------------------------------
set {
	reference rhf
	basis 6-31G*
}

set_num_threads( 1 )
memory 2 gb

molecule MOL {
0 1

O	 -2.555380	 -0.933286	 0.076658
C	 -1.921153	 0.064240	 -0.045697
C	 -2.460661	 1.372632	 -0.556958
O	 -0.632575	 0.154573	 0.251549
H	 -1.912902	 1.673644	 -1.442565
H	 -3.509745	 1.266261	 -0.789215
H	 -2.322361	 2.143490	 0.192313
C	 0.160891	 -1.019931	 0.106212
C	 1.589627	 -0.672828	 0.480843
H	 0.089836	 -1.367806	 -0.916050
H	 -0.238459	 -1.792301	 0.749618
C	 2.246377	 0.346236	 -0.452210
H	 2.163194	 -1.597435	 0.473358
H	 1.604769	 -0.303424	 1.502885
C	 3.691736	 0.652107	 -0.061850
H	 2.219579	 -0.032311	 -1.472055
H	 1.666466	 1.263317	 -0.447249
H	 4.134505	 1.377213	 -0.737283
H	 4.305508	 -0.243868	 -0.089969
H	 3.748266	 1.059562	 0.943567

	symmetry c1
}
set optking {
	frozen_dihedral = ("
		16 12 9 8,
		2 4 8 10,
		12 9 8 10
	")
}

ee = energy('scf')
oeprop('DIPOLE', 'QUADRUPOLE', 'MULLIKEN_CHARGES')
f=open( 'psi4out.xyz', 'w' )
f.write( "20  " )
f.write( str(ee) + "\n" )
f.write( MOL.save_string_xyz() )
f.close()
--------------------------------------------------------------------------

    Molecular point group: c1

    Geometry (in Angstrom), charge = 0, multiplicity = 1:

       Center              X                  Y                   Z               Mass
    ------------   -----------------  -----------------  -----------------  -----------------
           O         -2.561693465141    -0.932660018980     0.103835172718    15.994914619560
           C         -1.927466465141     0.064865981020    -0.018519827282    12.000000000000
           C         -2.466974465141     1.373257981020    -0.529780827282    12.000000000000
           O         -0.638888465141     0.155198981020     0.278726172718    15.994914619560
           H         -1.919215465141     1.674269981020    -1.415387827282     1.007825032070
           H         -3.516058465141     1.266886981020    -0.762037827282     1.007825032070
           H         -2.328674465141     2.144115981020     0.219490172718     1.007825032070
           C          0.154577534859    -1.019305018980     0.133389172718    12.000000000000
           C          1.583313534859    -0.672202018980     0.508020172718    12.000000000000
           H          0.083522534859    -1.367180018980    -0.888872827282     1.007825032070
           H         -0.244772465141    -1.791675018980     0.776795172718     1.007825032070
           C          2.240063534859     0.346861981020    -0.425032827282    12.000000000000
           H          2.156880534859    -1.596809018980     0.500535172718     1.007825032070
           H          1.598455534859    -0.302798018980     1.530062172718     1.007825032070
           C          3.685422534859     0.652732981020    -0.034672827282    12.000000000000
           H          2.213265534859    -0.031685018980    -1.444877827282     1.007825032070
           H          1.660152534859     1.263942981020    -0.420071827282     1.007825032070
           H          4.128191534859     1.377838981020    -0.710105827282     1.007825032070
           H          4.299194534859    -0.243242018980    -0.062791827282     1.007825032070
           H          3.741952534859     1.060187981020     0.970744172718     1.007825032070

  Charge       = 0
  Multiplicity = 1
  Basis Set: 6-31G*
  Basis Set:

    Orbital Energies (a.u.)
    -----------------------

    Doubly Occupied:

       1A    -20.596998     2A    -20.546061     3A    -11.374941
       4A    -11.284760     5A    -11.233449     6A    -11.226377
       7A    -11.221537     8A    -11.214105     9A     -1.466588
      10A     -1.362737    11A     -1.086459    12A     -1.027690
      13A     -0.982712    14A     -0.881202    15A     -0.811895
      16A     -0.776480    17A     -0.692291    18A     -0.682767
      19A     -0.661749    20A     -0.633205    21A     -0.603808
      22A     -0.593515    23A     -0.571052    24A     -0.559372
      25A     -0.545057    26A     -0.522828    27A     -0.514593
      28A     -0.483700    29A     -0.476268    30A     -0.474058
      31A     -0.448183    32A     -0.436728

  @DF-RHF Final Energy:  -383.94052755847611

   => Energetics <=

    Nuclear Repulsion Energy =            385.3038642781527869
    One-Electron Energy =               -1286.5022683608920033
    Two-Electron Energy =                 517.2578765242629970
    DFT Exchange-Correlation Energy =       0.0000000000000000
    Empirical Dispersion Energy =           0.0000000000000000
    PCM Polarization Energy =               0.0000000000000000
    EFP Energy =                            0.0000000000000000
    Total Energy =                       -383.9405275584762194

  Mulliken Charges: (a.u.)
   Center  Symbol    Alpha    Beta     Spin     Total
       1     O     4.27836  4.27836  0.00000 -0.55673
       2     C     2.61883  2.61883  0.00000  0.76234
       3     C     3.28256  3.28256  0.00000 -0.56513
       4     O     4.31011  4.31011  0.00000 -0.62021
       5     H     0.40250  0.40250  0.00000  0.19501
       6     H     0.39758  0.39758  0.00000  0.20483
       7     H     0.39985  0.39985  0.00000  0.20030
       8     C     3.00425  3.00425  0.00000 -0.00851
       9     C     3.16494  3.16494  0.00000 -0.32988
      10     H     0.41701  0.41701  0.00000  0.16598
      11     H     0.40258  0.40258  0.00000  0.19485
      12     C     3.15515  3.15515  0.00000 -0.31030
      13     H     0.41827  0.41827  0.00000  0.16345
      14     H     0.41254  0.41254  0.00000  0.17492
      15     C     3.24042  3.24042  0.00000 -0.48084
      16     H     0.42409  0.42409  0.00000  0.15182
      17     H     0.41161  0.41161  0.00000  0.17678
      18     H     0.41765  0.41765  0.00000  0.16470
      19     H     0.42161  0.42161  0.00000  0.15677
      20     H     0.42008  0.42008  0.00000  0.15984

   Total alpha = 32.00000, Total beta = 32.00000, Total charge = -0.00000
