                              Psi4 1.0.54 Driver

  ==> Input File <==

--------------------------------------------------------------------------
set {
	reference rhf
	basis cc-pvtz
}

set_num_threads( 4 )
memory 2 gb

molecule MOL {
0 1

H	 2.427117	 -0.880065	 -0.932947
N	 2.433987	 -0.362316	 -0.080024
C	 1.263552	 0.494993	 0.021953
H	 3.273629	 0.178281	 -0.070337
C	 -0.016533	 -0.325589	 -0.026925
H	 1.280915	 1.180773	 -0.818522
H	 1.263064	 1.106893	 0.925038
C	 -1.280353	 0.525521	 0.047747
H	 -0.016686	 -0.912532	 -0.939714
H	 -0.014099	 -1.037598	 0.796369
C	 -2.560681	 -0.301323	 -0.007747
H	 -1.279957	 1.241025	 -0.770189
H	 -1.270445	 1.110526	 0.963468
H	 -2.617064	 -0.872870	 -0.928010
H	 -3.439525	 0.331102	 0.043462
H	 -2.609427	 -1.002736	 0.818585

	symmetry c1
}
set optking {
	frozen_dihedral = ("
		1 2 3 6
	")
}

ee,wfn = optimize('scf', return_wfn=True)
oeprop( wfn, 'DIPOLE', 'QUADRUPOLE', 'MULLIKEN_CHARGES')
f=open( 'psi4out.xyz', 'w' )
f.write( "16  " )
f.write( str(ee) + "\n" )
f.write( MOL.save_string_xyz() )
f.close()
--------------------------------------------------------------------------

    Molecular point group: c1
  Charge       = 0
  Multiplicity = 1
  Basis Set: CC-PVTZ
  Basis Set:
  @DF-RHF Final Energy:  -212.39836022845247
    Total Energy =                       -212.3983602284527024
    Molecular point group: c1
  Basis Set: CC-PVTZ
  Basis Set:
  Basis Set: CC-PVTZ
  Basis Set:
  @DF-RHF Final Energy:  -212.40006935463904
    Total Energy =                       -212.4000693546390153
  Basis Set: CC-PVTZ
  Basis Set:
  Basis Set: CC-PVTZ
  Basis Set:
  @DF-RHF Final Energy:  -212.40031988606114
    Total Energy =                       -212.4003198860611406
  Basis Set: CC-PVTZ
  Basis Set:
  Basis Set: CC-PVTZ
  Basis Set:
  @DF-RHF Final Energy:  -212.40032297714555
    Total Energy =                       -212.4003229771458336
  Basis Set: CC-PVTZ
  Basis Set:
  Charge       = 0
  Multiplicity = 1
  Basis Set: CC-PVTZ
  Basis Set:

    Orbital Energies (a.u.)
    -----------------------

    Doubly Occupied:

       1A    -15.526454     2A    -11.238024     3A    -11.213061
       4A    -11.208143     5A    -11.205959     6A     -1.178267
       7A     -1.060947     8A     -0.959838     9A     -0.844227
      10A     -0.792608    11A     -0.664960    12A     -0.639237
      13A     -0.606367    14A     -0.576599    15A     -0.565962
      16A     -0.525354    17A     -0.501109    18A     -0.470326
      19A     -0.465504    20A     -0.462652    21A     -0.383909

  @DF-RHF Final Energy:  -212.40032344619274

   => Energetics <=

    Nuclear Repulsion Energy =            186.5804354639689961
    One-Electron Energy =                -655.7824990538373413
    Two-Electron Energy =                 256.8017401436756018
    DFT Exchange-Correlation Energy =       0.0000000000000000
    Empirical Dispersion Energy =           0.0000000000000000
    PCM Polarization Energy =               0.0000000000000000
    EFP Energy =                            0.0000000000000000
    Total Energy =                       -212.4003234461927150
    Molecular point group: c1
  Basis Set: CC-PVTZ
  Basis Set:

  -Total Gradient:
     Atom            X                  Y                   Z
    ------   -----------------  -----------------  -----------------
       1       -0.000101587530    -0.000134465537     0.000088182123
       2        0.000166986855     0.000187197574    -0.000078500238
       3       -0.000219256560    -0.000181169667    -0.000132873401
       4        0.000015026762     0.000008107370    -0.000008486294
       5        0.000023931183     0.000019831155     0.000016855443
       6        0.000113420244     0.000103814740     0.000089661239
       7       -0.000012640991    -0.000022719371     0.000009552130
       8        0.000003189392    -0.000003169862     0.000009553916
       9        0.000021224791     0.000015212898     0.000003753201
      10        0.000002948361     0.000008429801     0.000005435756
      11       -0.000011106737     0.000006287379    -0.000002396005
      12        0.000006133478    -0.000002010515     0.000001888422
      13       -0.000001953947    -0.000003438028     0.000001922423
      14        0.000001762768    -0.000002980216    -0.000000830344
      15       -0.000008871136    -0.000002039794    -0.000003635121
      16        0.000000793063     0.000003112071    -0.000000083248

  **** Optimization is complete! (in 5 steps) ****
    Final optimized geometry and variables:
    Molecular point group: c1

    Geometry (in Angstrom), charge = 0, multiplicity = 1:

    H            2.367752300397    -0.891291287831    -1.113623772485
    N            2.418419472389    -0.385521348029    -0.254004421931
    C            1.264209820259     0.484907560377    -0.095198357999
    H            3.266464023327     0.139982680027    -0.270310414504
    C           -0.020659228689    -0.325686306050    -0.017941636346
    H            1.176165231692     1.223019534971    -0.893634328577
    H            1.392238966174     1.040031583792     0.828139950949
    C           -1.264522321339     0.535063081781     0.179650048091
    H           -0.128809529444    -0.908200989245    -0.931033857228
    H            0.069424354540    -1.040724619953     0.793405467619
    C           -2.549780268165    -0.282408555614     0.255600389660
    H           -1.342626369780     1.251597285428    -0.633542366650
    H           -1.156286567744     1.118493180442     1.090016998304
    H           -2.705518428062    -0.851776726881    -0.654758683795
    H           -3.414011992418     0.356263323217     0.397748105408
    H           -2.517655606163    -0.984959675837     1.081505442100

  Mulliken Charges: (a.u.)
   Center  Symbol    Alpha    Beta     Spin     Total
       1     H     0.43092  0.43092  0.00000  0.13817
       2     N     3.68938  3.68938  0.00000 -0.37876
       3     C     3.02548  3.02548  0.00000 -0.05096
       4     H     0.43023  0.43023  0.00000  0.13954
       5     C     3.08048  3.08048  0.00000 -0.16097
       6     H     0.46899  0.46899  0.00000  0.06202
       7     H     0.45729  0.45729  0.00000  0.08542
       8     C     3.08842  3.08842  0.00000 -0.17684
       9     H     0.46082  0.46082  0.00000  0.07836
      10     H     0.44929  0.44929  0.00000  0.10141
      11     C     3.14926  3.14926  0.00000 -0.29852
      12     H     0.45642  0.45642  0.00000  0.08716
      13     H     0.45461  0.45461  0.00000  0.09078
      14     H     0.45549  0.45549  0.00000  0.08903
      15     H     0.44877  0.44877  0.00000  0.10246
      16     H     0.45416  0.45416  0.00000  0.09169

   Total alpha = 21.00000, Total beta = 21.00000, Total charge = -0.00000

*** Psi4 exiting successfully. Buy a developer a beer!
