  ==> Input File <==

--------------------------------------------------------------------------
set {
	reference rhf
	basis 6-31G*
}

set_num_threads( 4 )
memory 2 gb

molecule MOL {
0 1

H	 -3.135461	 -1.215070	 0.001379
O	 -2.310168	 -0.871793	 -0.309793
C	 -2.026376	 0.340750	 0.341611
C	 -0.673256	 0.843270	 -0.132153
H	 -2.792215	 1.080697	 0.115987
H	 -2.013526	 0.200402	 1.421792
C	 0.486613	 -0.083066	 0.235839
H	 -0.715586	 0.970948	 -1.210718
H	 -0.508072	 1.829858	 0.297090
C	 1.840406	 0.433480	 -0.254303
H	 0.300215	 -1.068318	 -0.178947
H	 0.519509	 -0.203625	 1.318070
C	 1.876099	 1.953160	 -0.412324
H	 2.616378	 0.125907	 0.443540
H	 2.084421	 -0.033570	 -1.206545
H	 1.670045	 2.449339	 0.531731
H	 2.848185	 2.290896	 -0.758629
H	 1.133755	 2.290253	 -1.130520

	symmetry c1
}
set optking {
	frozen_dihedral = ("
		14 10 7 11
	")
}

ee = optimize('scf')
oeprop('DIPOLE', 'QUADRUPOLE', 'MULLIKEN_CHARGES')
f=open( 'psi4out.xyz', 'w' )
f.write( "18  " )
f.write( str(ee) + "\n" )
f.write( MOL.save_string_xyz() )
f.close()
--------------------------------------------------------------------------

    Molecular point group: c1
  Charge       = 0
  Multiplicity = 1
  Basis Set: 6-31G*
  Basis Set:
  @DF-RHF Final Energy:  -271.17055399754815
    Total Energy =                       -271.1705539975479269
    Molecular point group: c1
  Basis Set: 6-31G*
  Basis Set:
  Basis Set: 6-31G*
  Basis Set:
  @DF-RHF Final Energy:  -271.17115882596545
    Total Energy =                       -271.1711588259655059
  Basis Set: 6-31G*
  Basis Set:
  Basis Set: 6-31G*
  Basis Set:
  @DF-RHF Final Energy:  -271.17326249077837
    Total Energy =                       -271.1732624907781428
  Basis Set: 6-31G*
  Basis Set:
  Basis Set: 6-31G*
  Basis Set:
  @DF-RHF Final Energy:  -271.17347667936764
    Total Energy =                       -271.1734766793678659
  Basis Set: 6-31G*
  Basis Set:
  Basis Set: 6-31G*
  Basis Set:
  @DF-RHF Final Energy:  -271.17348778304836
    Total Energy =                       -271.1734877830485289
  Basis Set: 6-31G*
  Basis Set:
  Basis Set: 6-31G*
  Basis Set:
  @DF-RHF Final Energy:  -271.17349877743914
    Total Energy =                       -271.1734987774390788
  Basis Set: 6-31G*
  Basis Set:
  Basis Set: 6-31G*
  Basis Set:
  @DF-RHF Final Energy:  -271.17350266276662
    Total Energy =                       -271.1735026627667366
  Basis Set: 6-31G*
  Basis Set:
  Charge       = 0
  Multiplicity = 1
  Basis Set: 6-31G*
  Basis Set:

    Orbital Energies (a.u.)
    -----------------------

    Doubly Occupied:

       1A    -20.553118     2A    -11.267811     3A    -11.211203
       4A    -11.211090     5A    -11.206531     6A    -11.204769
       7A     -1.359795     8A     -1.072520     9A     -1.004680
      10A     -0.914463    11A     -0.832325    12A     -0.765517
      13A     -0.705670    14A     -0.635007    15A     -0.625542
      16A     -0.600365    17A     -0.563632    18A     -0.549337
      19A     -0.525669    20A     -0.505702    21A     -0.491688
      22A     -0.460514    23A     -0.451739    24A     -0.448562
      25A     -0.426635

  @DF-RHF Final Energy:  -271.17350247600223

   => Energetics <=

    Nuclear Repulsion Energy =            252.1363728343211505
    One-Electron Energy =                -867.4319859179551031
    Two-Electron Energy =                 344.1221106076316687
    DFT Exchange-Correlation Energy =       0.0000000000000000
    Empirical Dispersion Energy =           0.0000000000000000
    PCM Polarization Energy =               0.0000000000000000
    EFP Energy =                            0.0000000000000000
    Total Energy =                       -271.1735024760022839
    Molecular point group: c1
  Basis Set: 6-31G*
  Basis Set:

  -Total Gradient:
     Atom            X                  Y                   Z
    ------   -----------------  -----------------  -----------------
       1        0.000001892534     0.000007694944     0.000002365898
       2        0.000007727054    -0.000010608061     0.000010533459
       3       -0.000003182422    -0.000007817423    -0.000019731938
       4       -0.000030560437    -0.000031905173     0.000040542631
       5       -0.000005075203     0.000009702494     0.000002634659
       6        0.000003380651    -0.000005819025    -0.000010565750
       7        0.003381477333    -0.002032471887     0.006803818497
       8        0.000025328085     0.000004027956    -0.000003520519
       9       -0.000024676336    -0.000041774534     0.000006673730
      10        0.000054754505    -0.005959207985    -0.005091119348
      11       -0.002927004855     0.002670088702    -0.004970971342
      12       -0.000022319380     0.000003651511     0.000006091180
      13        0.000059976685    -0.000016228226     0.000016164188
      14       -0.000572410241     0.005419733180     0.003227206220
      15        0.000038023033     0.000018266257    -0.000005080460
      16        0.000039187711    -0.000006312770    -0.000004232937
      17        0.000000841137    -0.000008614029    -0.000017824469
      18       -0.000027359850    -0.000012405928     0.000007016302

  **** Optimization is complete! (in 8 steps) ****
    Final optimized geometry and variables:
    Molecular point group: c1

    Geometry (in Angstrom), charge = 0, multiplicity = 1:

    H           -2.906304007281    -1.731526589137     0.077825690861
    O           -2.100776181175    -1.342228366922    -0.230913739776
    C           -1.874735322179    -0.127673996005     0.439479034263
    C           -0.547211457793     0.449596660720    -0.023882219775
    H           -2.675359083215     0.577641703180     0.223944195916
    H           -1.856391529570    -0.283882608805     1.517504551824
    C            0.648165189351    -0.432976936467     0.355703873538
    H           -0.592462716436     0.573775599159    -1.102733444064
    H           -0.447261736802     1.442140510456     0.406566623335
    C            2.014997362363     0.035274616270    -0.190653543724
    H            0.433755892688    -1.416653547088    -0.045279249152
    H            0.691240222577    -0.516918620479     1.438948782950
    C            2.190781716598     1.551201508050    -0.335946010811
    H            2.786706635505    -0.295124620059     0.499476337449
    H            2.210691955856    -0.435747267428    -1.149131319654
    H            2.023436722207     2.062465832032     0.608276270836
    H            3.202434293364     1.781655857369    -0.656256611838
    H            1.512978389225     1.976716730287    -1.067987683431

  Mulliken Charges: (a.u.)
   Center  Symbol    Alpha    Beta     Spin     Total
       1     H     0.28049  0.28049  0.00000  0.43901
       2     O     4.37009  4.37009  0.00000 -0.74018
       3     C     2.99689  2.99689  0.00000  0.00622
       4     C     3.16380  3.16380  0.00000 -0.32760
       5     H     0.42904  0.42904  0.00000  0.14192
       6     H     0.43284  0.43284  0.00000  0.13432
       7     C     3.15808  3.15808  0.00000 -0.31616
       8     H     0.41518  0.41518  0.00000  0.16963
       9     H     0.42174  0.42174  0.00000  0.15652
      10     C     3.15322  3.15322  0.00000 -0.30643
      11     H     0.40419  0.40419  0.00000  0.19161
      12     H     0.42608  0.42608  0.00000  0.14785
      13     C     3.24315  3.24315  0.00000 -0.48629
      14     H     0.42165  0.42165  0.00000  0.15669
      15     H     0.41997  0.41997  0.00000  0.16007
      16     H     0.42354  0.42354  0.00000  0.15292
      17     H     0.41989  0.41989  0.00000  0.16022
      18     H     0.42016  0.42016  0.00000  0.15968

   Total alpha = 25.00000, Total beta = 25.00000, Total charge = -0.00000
