  ==> Input File <==

--------------------------------------------------------------------------
set {
	reference rhf
	basis 6-31G*
}

set_num_threads( 1 )
memory 2 gb

molecule MOL {
0 1

H	 -1.786327	 3.927309	 -0.918625
O	 -1.094491	 3.327810	 -1.159183
C	 -1.056159	 2.260414	 -0.247159
C	 0.061953	 1.320966	 -0.663105
H	 -0.879372	 2.626163	 0.763426
H	 -2.006595	 1.728478	 -0.239751
C	 0.198102	 0.111031	 0.262842
H	 0.991392	 1.883518	 -0.683251
H	 -0.127259	 0.994245	 -1.681893
C	 1.331804	 -0.827780	 -0.158768
H	 0.362740	 0.456578	 1.280519
H	 -0.738699	 -0.444640	 0.275133
C	 2.723619	 -0.410569	 0.329459
H	 1.342964	 -0.912588	 -1.244120
H	 1.116806	 -1.824343	 0.220779
C	 3.243875	 0.895854	 -0.272975
H	 3.424222	 -1.207124	 0.091250
H	 2.714788	 -0.329854	 1.414619
H	 3.251977	 0.848779	 -1.358681
H	 2.637085	 1.747371	 0.016682
H	 4.259473	 1.094070	 0.055697

	symmetry c1
}
set optking {
	frozen_dihedral = ("
		2 3 4 8,
		8 4 7 10,
		16 13 10 14,
		1 2 3 5
	")
}

ee = energy('scf')
oeprop('DIPOLE', 'QUADRUPOLE', 'MULLIKEN_CHARGES')
f=open( 'psi4out.xyz', 'w' )
f.write( "21  " )
f.write( str(ee) + "\n" )
f.write( MOL.save_string_xyz() )
f.close()
--------------------------------------------------------------------------

    Molecular point group: c1

    Geometry (in Angstrom), charge = 0, multiplicity = 1:

       Center              X                  Y                   Z               Mass
    ------------   -----------------  -----------------  -----------------  -----------------
           H         -2.522917611591     2.907786084010    -0.629103523655     1.007825032070
           O         -1.831081611591     2.308287084010    -0.869661523655    15.994914619560
           C         -1.792749611591     1.240891084010     0.042362476345    12.000000000000
           C         -0.674637611591     0.301443084010    -0.373583523655    12.000000000000
           H         -1.615962611591     1.606640084010     1.052947476345     1.007825032070
           H         -2.743185611591     0.708955084010     0.049770476345     1.007825032070
           C         -0.538488611591    -0.908491915990     0.552363476345    12.000000000000
           H          0.254801388409     0.863995084010    -0.393729523655     1.007825032070
           H         -0.863849611591    -0.025277915990    -1.392371523655     1.007825032070
           C          0.595213388409    -1.847302915990     0.130753476345    12.000000000000
           H         -0.373850611591    -0.562944915990     1.570040476345     1.007825032070
           H         -1.475289611591    -1.464162915990     0.564654476345     1.007825032070
           C          1.987028388409    -1.430091915990     0.618980476345    12.000000000000
           H          0.606373388409    -1.932110915990    -0.954598523655     1.007825032070
           H          0.380215388409    -2.843865915990     0.510300476345     1.007825032070
           C          2.507284388409    -0.123668915990     0.016546476345    12.000000000000
           H          2.687631388409    -2.226646915990     0.380771476345     1.007825032070
           H          1.978197388409    -1.349376915990     1.704140476345     1.007825032070
           H          2.515386388409    -0.170743915990    -1.069159523655     1.007825032070
           H          1.900494388409     0.727848084010     0.306203476345     1.007825032070
           H          3.522882388409     0.074547084010     0.345218476345     1.007825032070

  Charge       = 0
  Multiplicity = 1
  Basis Set: 6-31G*
  Basis Set:

    Orbital Energies (a.u.)
    -----------------------

    Doubly Occupied:

       1A    -20.551280     2A    -11.265834     3A    -11.215291
       4A    -11.214515     5A    -11.212980     6A    -11.207317
       7A    -11.205666     8A     -1.358008     9A     -1.088031
      10A     -1.028132    11A     -0.957202    12A     -0.876310
      13A     -0.805849    14A     -0.777963    15A     -0.691253
      16A     -0.662566    17A     -0.621346    18A     -0.609307
      19A     -0.586590    20A     -0.559435    21A     -0.544613
      22A     -0.525745    23A     -0.498731    24A     -0.497574
      25A     -0.478256    26A     -0.462333    27A     -0.448264
      28A     -0.438274    29A     -0.431357

  @DF-RHF Final Energy:  -310.20464512391777

   => Energetics <=

    Nuclear Repulsion Energy =            321.9206726179060070
    One-Electron Energy =               -1058.6105812724481439
    Two-Electron Energy =                 426.4852635306249908
    DFT Exchange-Correlation Energy =       0.0000000000000000
    Empirical Dispersion Energy =           0.0000000000000000
    PCM Polarization Energy =               0.0000000000000000
    EFP Energy =                            0.0000000000000000
    Total Energy =                       -310.2046451239171461

  Mulliken Charges: (a.u.)
   Center  Symbol    Alpha    Beta     Spin     Total
       1     H     0.28130  0.28130  0.00000  0.43739
       2     O     4.37191  4.37191  0.00000 -0.74383
       3     C     2.98958  2.98958  0.00000  0.02084
       4     C     3.16294  3.16294  0.00000 -0.32587
       5     H     0.43378  0.43378  0.00000  0.13243
       6     H     0.43316  0.43316  0.00000  0.13368
       7     C     3.16299  3.16299  0.00000 -0.32597
       8     H     0.41014  0.41014  0.00000  0.17972
       9     H     0.41513  0.41513  0.00000  0.16974
      10     C     3.15512  3.15512  0.00000 -0.31023
      11     H     0.42325  0.42325  0.00000  0.15349
      12     H     0.42091  0.42091  0.00000  0.15819
      13     C     3.15100  3.15100  0.00000 -0.30201
      14     H     0.42197  0.42197  0.00000  0.15605
      15     H     0.42025  0.42025  0.00000  0.15950
      16     C     3.24375  3.24375  0.00000 -0.48751
      17     H     0.42099  0.42099  0.00000  0.15801
      18     H     0.42361  0.42361  0.00000  0.15278
      19     H     0.42032  0.42032  0.00000  0.15937
      20     H     0.41854  0.41854  0.00000  0.16293
      21     H     0.41936  0.41936  0.00000  0.16128

   Total alpha = 29.00000, Total beta = 29.00000, Total charge = -0.00000
