  ==> Input File <==

--------------------------------------------------------------------------
set {
	reference rhf
	basis 6-31G*
}

set_num_threads( 4 )
memory 2 gb

molecule MOL {
0 1

H	 2.483649	 -0.845009	 0.270735
O	 2.064459	 -0.086912	 -0.111827
C	 0.745630	 0.005118	 0.354752
H	 0.739005	 0.037656	 1.444976
C	 -0.064159	 -1.194875	 -0.122754
C	 -0.046302	 1.193543	 -0.190431
H	 0.197384	 -1.376065	 -1.160690
H	 0.162855	 -2.097978	 0.431858
C	 -1.535782	 -0.752177	 0.006642
H	 0.154512	 1.271315	 -1.255561
H	 0.226209	 2.140461	 0.267302
C	 -1.509193	 0.801505	 0.065617
H	 -2.127797	 -1.112194	 -0.826847
H	 -1.986849	 -1.158408	 0.905561
H	 -2.183670	 1.254107	 -0.651985
H	 -1.821727	 1.144320	 1.047089

	symmetry c1
}
set optking {
	frozen_dihedral = ("
		1 2 3 6
	")
}

ee = optimize('scf')
oeprop('DIPOLE', 'QUADRUPOLE', 'MULLIKEN_CHARGES')
f=open( 'psi4out.xyz', 'w' )
f.write( "16  " )
f.write( str(ee) + "\n" )
f.write( MOL.save_string_xyz() )
f.close()
--------------------------------------------------------------------------

    Molecular point group: c1
  Charge       = 0
  Multiplicity = 1
  Basis Set: 6-31G*
  Basis Set:
  @DF-RHF Final Energy:  -270.01264315974470
    Total Energy =                       -270.0126431597448118
    Molecular point group: c1
  Basis Set: 6-31G*
  Basis Set:
  Basis Set: 6-31G*
  Basis Set:
  @DF-RHF Final Energy:  -270.01429076171075
    Total Energy =                       -270.0142907617106403
  Basis Set: 6-31G*
  Basis Set:
  Basis Set: 6-31G*
  Basis Set:
  @DF-RHF Final Energy:  -270.01446363523922
    Total Energy =                       -270.0144636352391672
  Basis Set: 6-31G*
  Basis Set:
  Basis Set: 6-31G*
  Basis Set:
  @DF-RHF Final Energy:  -270.01447063260554
    Total Energy =                       -270.0144706326053665
  Basis Set: 6-31G*
  Basis Set:
  @DF-RHF Final Energy:  -270.01447385341305
    Total Energy =                       -270.0144738534132216
  Basis Set: 6-31G*
  Basis Set:
  @DF-RHF Final Energy:  -270.01448666163350
    Total Energy =                       -270.0144866616335548
  Basis Set: 6-31G*
  Basis Set:
  Basis Set: 6-31G*
  Basis Set:
  @DF-RHF Final Energy:  -270.01449144780457
    Total Energy =                       -270.0144914478042892
  Basis Set: 6-31G*
  Basis Set:
  Basis Set: 6-31G*
  Basis Set:
  @DF-RHF Final Energy:  -270.01449290983578
    Total Energy =                       -270.0144929098358375
  Basis Set: 6-31G*
  Basis Set:
  Charge       = 0
  Multiplicity = 1
  Basis Set: 6-31G*
  Basis Set:

    Orbital Energies (a.u.)
    -----------------------

    Doubly Occupied:

       1A    -20.552233     2A    -11.268415     3A    -11.217015
       4A    -11.215177     5A    -11.211983     6A    -11.208212
       7A     -1.361192     8A     -1.113144     9A     -0.965804
      10A     -0.947917    11A     -0.787419    12A     -0.777895
      13A     -0.701069    14A     -0.656906    15A     -0.618943
      16A     -0.587084    17A     -0.566213    18A     -0.523221
      19A     -0.505384    20A     -0.481768    21A     -0.470449
      22A     -0.456223    23A     -0.448545    24A     -0.419005

  @DF-RHF Final Energy:  -270.01449362410386

   => Energetics <=

    Nuclear Repulsion Energy =            255.1635546903470981
    One-Electron Energy =                -872.2336625243067374
    Two-Electron Energy =                 347.0556142098559462
    DFT Exchange-Correlation Energy =       0.0000000000000000
    Empirical Dispersion Energy =           0.0000000000000000
    PCM Polarization Energy =               0.0000000000000000
    EFP Energy =                            0.0000000000000000
    Total Energy =                       -270.0144936241036362
    Molecular point group: c1
  Basis Set: 6-31G*
  Basis Set:

  -Total Gradient:
     Atom            X                  Y                   Z
    ------   -----------------  -----------------  -----------------
       1       -0.000046251828    -0.000101632628    -0.000155109576
       2        0.000052489436     0.000101997602     0.000160539820
       3        0.000035059860     0.000074660859     0.000078374298
       4       -0.000000957992    -0.000000147531    -0.000002535280
       5       -0.000003980035    -0.000002258796     0.000001003356
       6       -0.000037508986    -0.000055990144    -0.000086692996
       7        0.000000944474    -0.000012831544     0.000006152080
       8       -0.000000510788     0.000003821183     0.000010334380
       9       -0.000001657192    -0.000006806345     0.000010290823
      10        0.000000973119    -0.000016352774     0.000002867893
      11        0.000000749938     0.000009527671    -0.000013340280
      12       -0.000002263899     0.000005295731    -0.000010647699
      13        0.000016073779     0.000008482965    -0.000013135007
      14       -0.000018191376    -0.000010490223    -0.000016026280
      15       -0.000014198868     0.000012305962     0.000020241267
      16        0.000019230353    -0.000009581987     0.000007683204

  **** Optimization is complete! (in 9 steps) ****
    Final optimized geometry and variables:
    Molecular point group: c1

    Geometry (in Angstrom), charge = 0, multiplicity = 1:

    H            2.534127839829    -0.743036475423     0.236833425671
    O            2.067698084876     0.009108974829    -0.100220863098
    C            0.743183918256    -0.016092727084     0.358450187478
    H            0.727595093094    -0.000335778147     1.448975906308
    C           -0.084639512930    -1.199445335400    -0.145891504957
    C           -0.023441742510     1.187252459530    -0.174004368799
    H            0.151142055077    -1.346358993540    -1.196140396449
    H            0.133813654778    -2.128813306605     0.372654940693
    C           -1.544945352981    -0.743309605440     0.030094232912
    H            0.209942635160     1.288739769361    -1.229806718135
    H            0.257388891511     2.113502740502     0.314025192468
    C           -1.500867643185     0.811856953151     0.031399377259
    H           -2.180131686518    -1.132818159347    -0.757001902311
    H           -1.950788039891    -1.110451356322     0.966940879976
    H           -2.134163072207     1.239258247921    -0.737339355164
    H           -1.860881524135     1.196357573518     0.980182362844

  Mulliken Charges: (a.u.)
   Center  Symbol    Alpha    Beta     Spin     Total
       1     H     0.28201  0.28201  0.00000  0.43598
       2     O     4.37616  4.37616  0.00000 -0.75233
       3     C     2.90696  2.90696  0.00000  0.18609
       4     H     0.43100  0.43100  0.00000  0.13800
       5     C     3.17767  3.17767  0.00000 -0.35533
       6     C     3.16569  3.16569  0.00000 -0.33137
       7     H     0.41340  0.41340  0.00000  0.17319
       8     H     0.42075  0.42075  0.00000  0.15850
       9     C     3.16817  3.16817  0.00000 -0.33634
      10     H     0.41232  0.41232  0.00000  0.17537
      11     H     0.41271  0.41271  0.00000  0.17458
      12     C     3.16986  3.16986  0.00000 -0.33973
      13     H     0.41413  0.41413  0.00000  0.17175
      14     H     0.41749  0.41749  0.00000  0.16503
      15     H     0.41424  0.41424  0.00000  0.17153
      16     H     0.41746  0.41746  0.00000  0.16508

   Total alpha = 24.00000, Total beta = 24.00000, Total charge = -0.00000
