  ==> Input File <==

--------------------------------------------------------------------------
set {
	reference rhf
	basis 6-31G*
}

set_num_threads( 4 )
memory 2 gb

molecule MOL {
0 1

O	 -0.199936	 0.203687	 -2.063623
C	 0.048232	 -0.438909	 -1.094486
C	 1.230406	 -1.365958	 -0.941810
O	 -0.698257	 -0.426125	 0.001050
C	 2.117066	 -1.412404	 -2.179810
H	 0.842167	 -2.350010	 -0.696538
H	 1.787756	 -1.040875	 -0.068342
H	 1.561122	 -1.752969	 -3.044858
H	 2.948559	 -2.090332	 -2.019035
H	 2.515558	 -0.432018	 -2.410834
C	 -1.853104	 0.406779	 0.000512
C	 -3.066105	 -0.499277	 -0.000959
H	 -1.828410	 1.043074	 -0.873618
H	 -1.829857	 1.042383	 0.875188
H	 -3.071820	 -1.133106	 -0.880383
H	 -3.972708	 0.097145	 -0.001528
H	 -3.073405	 -1.133813	 0.877999

	symmetry c1
}
set optking {
	frozen_dihedral = ("
		2 4 11 13
	")
}

ee = optimize('scf')
oeprop('DIPOLE', 'QUADRUPOLE', 'MULLIKEN_CHARGES')
f=open( 'psi4out.xyz', 'w' )
f.write( "17  " )
f.write( str(ee) + "\n" )
f.write( MOL.save_string_xyz() )
f.close()
--------------------------------------------------------------------------

    Molecular point group: c1
  Charge       = 0
  Multiplicity = 1
  Basis Set: 6-31G*
  Basis Set:
  @DF-RHF Final Energy:  -344.90905494969087
    Total Energy =                       -344.9090549496908693
    Molecular point group: c1
  Basis Set: 6-31G*
  Basis Set:
  Basis Set: 6-31G*
  Basis Set:
  @DF-RHF Final Energy:  -344.90965590785703
    Total Energy =                       -344.9096559078572000
  Basis Set: 6-31G*
  Basis Set:
  Basis Set: 6-31G*
  Basis Set:
  @DF-RHF Final Energy:  -344.90992360887537
    Total Energy =                       -344.9099236088755447
  Basis Set: 6-31G*
  Basis Set:
  Basis Set: 6-31G*
  Basis Set:
  @DF-RHF Final Energy:  -344.91003823583429
    Total Energy =                       -344.9100382358344632
  Basis Set: 6-31G*
  Basis Set:
  Basis Set: 6-31G*
  Basis Set:
  @DF-RHF Final Energy:  -344.91014477595013
    Total Energy =                       -344.9101447759500161
  Basis Set: 6-31G*
  Basis Set:
  Basis Set: 6-31G*
  Basis Set:
  @DF-RHF Final Energy:  -344.91015711235809
    Total Energy =                       -344.9101571123580356
  Basis Set: 6-31G*
  Basis Set:
  Charge       = 0
  Multiplicity = 1
  Basis Set: 6-31G*
  Basis Set:

    Orbital Energies (a.u.)
    -----------------------

    Doubly Occupied:

       1A    -20.600008     2A    -20.544036     3A    -11.373037
       4A    -11.283314     5A    -11.237082     6A    -11.221114
       7A    -11.215403     8A     -1.465167     9A     -1.362535
      10A     -1.069291    11A     -1.029984    12A     -0.913820
      13A     -0.851115    14A     -0.765943    15A     -0.702083
      16A     -0.680753    17A     -0.659726    18A     -0.625314
      19A     -0.600827    20A     -0.568310    21A     -0.553176
      22A     -0.531203    23A     -0.520416    24A     -0.514517
      25A     -0.495328    26A     -0.494459    27A     -0.447244
      28A     -0.436979

  @DF-RHF Final Energy:  -344.91015749922292

   => Energetics <=

    Nuclear Repulsion Energy =            316.0384772394428410
    One-Electron Energy =               -1096.3729065231805180
    Two-Electron Energy =                 435.4242717845150423
    DFT Exchange-Correlation Energy =       0.0000000000000000
    Empirical Dispersion Energy =           0.0000000000000000
    PCM Polarization Energy =               0.0000000000000000
    EFP Energy =                            0.0000000000000000
    Total Energy =                       -344.9101574992226347
    Molecular point group: c1
  Basis Set: 6-31G*
  Basis Set:

  -Total Gradient:
     Atom            X                  Y                   Z
    ------   -----------------  -----------------  -----------------
       1        0.000026592161     0.000011098205    -0.000010665006
       2        0.000375897423     0.000580875654     0.000262910113
       3        0.000021813224     0.000033549961     0.000022200580
       4       -0.000793674857    -0.001031035776    -0.000489312831
       5       -0.000008527270     0.000000825392    -0.000003238041
       6       -0.000009682186    -0.000004517512    -0.000004976385
       7        0.000001831387    -0.000011403046    -0.000000260603
       8       -0.000000537185     0.000002579431     0.000005390761
       9       -0.000001560726     0.000001270875     0.000004216644
      10        0.000002822274     0.000002518691    -0.000001463628
      11        0.000743876339     0.001130989260     0.000672331146
      12        0.000026526339    -0.000039480163     0.000007211883
      13       -0.000447213367    -0.000635845383    -0.000474470427
      14        0.000053557114    -0.000028427007     0.000005952668
      15       -0.000006337318    -0.000004558544    -0.000003474760
      16        0.000028849016     0.000007322051     0.000000165766
      17       -0.000014232371    -0.000015762091     0.000007482122

  **** Optimization is complete! (in 7 steps) ****
    Final optimized geometry and variables:
    Molecular point group: c1

    Geometry (in Angstrom), charge = 0, multiplicity = 1:

    O            0.183888684818     0.687016926529    -1.201603497267
    C            0.414257554612     0.062368732051    -0.216736081505
    C            1.601072044665    -0.852810008826    -0.029622479576
    O           -0.345572528874     0.076328823116     0.871362797467
    C            2.507837983934    -0.914894465067    -1.252229669315
    H            1.216117538421    -1.835037047896     0.227609521081
    H            2.141710254685    -0.507635847516     0.846561838414
    H            1.968783252869    -1.276166065251    -2.119556799099
    H            3.341926822867    -1.582911373873    -1.065373382478
    H            2.902306349484     0.064217582081    -1.495179135678
    C           -1.511659824956     0.895645348126     0.909075369067
    C           -2.748844162679     0.018434645203     0.937949301509
    H           -1.516808056554     1.551070828554     0.054045827313
    H           -1.431396961749     1.485940335336     1.811805616552
    H           -2.827401071995    -0.562470188879     0.025497468196
    H           -3.638637544424     0.633892779349     1.027467184097
    H           -2.718051081326    -0.664405352598     1.779508416826

  Mulliken Charges: (a.u.)
   Center  Symbol    Alpha    Beta     Spin     Total
       1     O     4.28622  4.28622  0.00000 -0.57243
       2     C     2.60568  2.60568  0.00000  0.78864
       3     C     3.20561  3.20561  0.00000 -0.41122
       4     O     4.31455  4.31455  0.00000 -0.62909
       5     C     3.23876  3.23876  0.00000 -0.47751
       6     H     0.40082  0.40082  0.00000  0.19837
       7     H     0.40064  0.40064  0.00000  0.19873
       8     H     0.41022  0.41022  0.00000  0.17957
       9     H     0.41836  0.41836  0.00000  0.16328
      10     H     0.40998  0.40998  0.00000  0.18005
      11     C     3.01227  3.01227  0.00000 -0.02454
      12     C     3.24785  3.24785  0.00000 -0.49570
      13     H     0.39436  0.39436  0.00000  0.21128
      14     H     0.41275  0.41275  0.00000  0.17449
      15     H     0.41175  0.41175  0.00000  0.17649
      16     H     0.41766  0.41766  0.00000  0.16467
      17     H     0.41254  0.41254  0.00000  0.17493

   Total alpha = 28.00000, Total beta = 28.00000, Total charge = -0.00000
