  ==> Input File <==

--------------------------------------------------------------------------
set {
	reference rhf
	basis 6-31G*
}

set_num_threads( 1 )
memory 2 gb

molecule MOL {
0 1

O	 -0.682937	 1.318834	 -0.186099
C	 -0.860635	 0.152188	 -0.042321
C	 -2.173363	 -0.477127	 0.338347
O	 0.083258	 -0.765189	 -0.202595
H	 -2.477673	 -1.180929	 -0.427595
H	 -2.923125	 0.290956	 0.455536
H	 -2.058825	 -1.029004	 1.264191
C	 -0.314808	 -2.114970	 -0.431572
C	 -0.622179	 -2.363560	 -1.896622
H	 -1.165201	 -2.344837	 0.192234
H	 0.530155	 -2.705346	 -0.107545
H	 -0.847707	 -3.414242	 -2.051333
H	 -1.477794	 -1.781664	 -2.215506
H	 0.230323	 -2.103478	 -2.514695

	symmetry c1
}
set optking {
	frozen_dihedral = ("
		10 8 4 2
	")
}

ee = energy('scf')
oeprop('DIPOLE', 'QUADRUPOLE', 'MULLIKEN_CHARGES')
f=open( 'psi4out.xyz', 'w' )
f.write( "14  " )
f.write( str(ee) + "\n" )
f.write( MOL.save_string_xyz() )
f.close()
--------------------------------------------------------------------------

    Molecular point group: c1

    Geometry (in Angstrom), charge = 0, multiplicity = 1:

       Center              X                  Y                   Z               Mass
    ------------   -----------------  -----------------  -----------------  -----------------
           O          0.083801835832     2.036205680391     0.223317850871    15.994914619560
           C         -0.093896164168     0.869559680391     0.367095850871    12.000000000000
           C         -1.406624164168     0.240244680391     0.747763850871    12.000000000000
           O          0.849996835832    -0.047817319609     0.206821850871    15.994914619560
           H         -1.710934164168    -0.463557319609    -0.018178149129     1.007825032070
           H         -2.156386164168     1.008327680391     0.864952850871     1.007825032070
           H         -1.292086164168    -0.311632319609     1.673607850871     1.007825032070
           C          0.451930835832    -1.397598319609    -0.022155149129    12.000000000000
           C          0.144559835832    -1.646188319609    -1.487205149129    12.000000000000
           H         -0.398462164168    -1.627465319609     0.601650850871     1.007825032070
           H          1.296893835832    -1.987974319609     0.301871850871     1.007825032070
           H         -0.080968164168    -2.696870319609    -1.641916149129     1.007825032070
           H         -0.711055164168    -1.064292319609    -1.806089149129     1.007825032070
           H          0.997061835832    -1.386106319609    -2.105278149129     1.007825032070

  Charge       = 0
  Multiplicity = 1
  Basis Set: 6-31G*
  Basis Set:

    Orbital Energies (a.u.)
    -----------------------

    Doubly Occupied:

       1A    -20.603537     2A    -20.544306     3A    -11.377744
       4A    -11.300291     5A    -11.239562     6A    -11.235814
       7A     -1.466011     8A     -1.368612     9A     -1.053248
      10A     -1.025798    11A     -0.900725    12A     -0.773152
      13A     -0.705170    14A     -0.695864    15A     -0.668149
      16A     -0.622959    17A     -0.597066    18A     -0.580172
      19A     -0.558327    20A     -0.542632    21A     -0.528234
      22A     -0.508343    23A     -0.448085    24A     -0.433242

  @DF-RHF Final Energy:  -305.84706303029520

   => Energetics <=

    Nuclear Repulsion Energy =            251.4923004481222222
    One-Electron Energy =                -915.1245409017756174
    Two-Electron Energy =                 357.7851774233586184
    DFT Exchange-Correlation Energy =       0.0000000000000000
    Empirical Dispersion Energy =           0.0000000000000000
    PCM Polarization Energy =               0.0000000000000000
    EFP Energy =                            0.0000000000000000
    Total Energy =                       -305.8470630302947484

  Mulliken Charges: (a.u.)
   Center  Symbol    Alpha    Beta     Spin     Total
       1     O     4.27012  4.27012  0.00000 -0.54024
       2     C     2.60407  2.60407  0.00000  0.79186
       3     C     3.32521  3.32521  0.00000 -0.65042
       4     O     4.30028  4.30028  0.00000 -0.60055
       5     H     0.40203  0.40203  0.00000  0.19594
       6     H     0.38887  0.38887  0.00000  0.22225
       7     H     0.39753  0.39753  0.00000  0.20493
       8     C     3.01988  3.01988  0.00000 -0.03976
       9     C     3.25030  3.25030  0.00000 -0.50060
      10     H     0.40981  0.40981  0.00000  0.18038
      11     H     0.40073  0.40073  0.00000  0.19855
      12     H     0.41449  0.41449  0.00000  0.17102
      13     H     0.41500  0.41500  0.00000  0.17000
      14     H     0.40168  0.40168  0.00000  0.19664

   Total alpha = 24.00000, Total beta = 24.00000, Total charge = -0.00000
