                              Psi4 1.0.54 Driver

  ==> Input File <==

--------------------------------------------------------------------------
set {
	reference rhf
	basis cc-pvtz
}

set_num_threads( 4 )
memory 2 gb

molecule MOL {
0 1

H	 -3.034039	 -0.667848	 0.004703
O	 -2.240597	 -1.171748	 0.000934
C	 -1.159675	 -0.364500	 0.000370
C	 -0.330745	 -0.238197	 -1.095686
C	 -0.900080	 0.349527	 1.160038
H	 -0.528988	 -0.792286	 -1.994988
C	 0.761147	 0.609135	 -1.018061
H	 -1.562661	 0.227014	 1.994851
C	 0.187832	 1.195826	 1.234888
H	 1.410081	 0.707748	 -1.867727
C	 1.024793	 1.320705	 0.130402
C	 0.456700	 1.990468	 2.487844
H	 1.877403	 1.971510	 0.174786
H	 1.510239	 1.976828	 2.738227
H	 -0.096362	 1.597485	 3.330122
H	 0.165829	 3.026703	 2.352737

	symmetry c1
}
set optking {
	frozen_dihedral = ("
		5 3 2 1
	")
}

ee,wfn = optimize('scf', return_wfn=True)
oeprop( wfn, 'DIPOLE', 'QUADRUPOLE', 'MULLIKEN_CHARGES')
f=open( 'psi4out.xyz', 'w' )
f.write( "16  " )
f.write( str(ee) + "\n" )
f.write( MOL.save_string_xyz() )
f.close()
--------------------------------------------------------------------------

    Molecular point group: c1
  Charge       = 0
  Multiplicity = 1
  Basis Set: CC-PVTZ
  Basis Set:
  @DF-RHF Final Energy:  -344.71547960995554
    Total Energy =                       -344.7154796099549685
    Molecular point group: c1
  Basis Set: CC-PVTZ
  Basis Set:
  Basis Set: CC-PVTZ
  Basis Set:
  @DF-RHF Final Energy:  -344.71664358061730
    Total Energy =                       -344.7166435806171876
  Basis Set: CC-PVTZ
  Basis Set:
  Basis Set: CC-PVTZ
  Basis Set:
  @DF-RHF Final Energy:  -344.71671570838180
    Total Energy =                       -344.7167157083815709
  Basis Set: CC-PVTZ
  Basis Set:
  Basis Set: CC-PVTZ
  Basis Set:
  @DF-RHF Final Energy:  -344.71672245286453
    Total Energy =                       -344.7167224528641327
  Basis Set: CC-PVTZ
  Basis Set:
  Basis Set: CC-PVTZ
  Basis Set:
  @DF-RHF Final Energy:  -344.71672417958376
    Total Energy =                       -344.7167241795834798
  Basis Set: CC-PVTZ
  Basis Set:
  Charge       = 0
  Multiplicity = 1
  Basis Set: CC-PVTZ
  Basis Set:

    Orbital Energies (a.u.)
    -----------------------

    Doubly Occupied:

       1A    -20.570649     2A    -11.287357     3A    -11.240932
       4A    -11.230743     5A    -11.221400     6A    -11.219585
       7A    -11.218340     8A    -11.217885     9A     -1.397751
      10A     -1.154997    11A     -1.047152    12A     -1.007114
      13A     -0.939777    14A     -0.835116    15A     -0.806509
      16A     -0.724685    17A     -0.680411    18A     -0.656880
      19A     -0.621030    20A     -0.593870    21A     -0.578742
      22A     -0.570013    23A     -0.553986    24A     -0.518863
      25A     -0.505221    26A     -0.485103    27A     -0.467745
      28A     -0.334049    29A     -0.320982

  @DF-RHF Final Energy:  -344.71672473447666

   => Energetics <=

    Nuclear Repulsion Energy =            345.8860896385854176
    One-Electron Energy =               -1153.1918502164753590
    Two-Electron Energy =                 462.5890358434134555
    DFT Exchange-Correlation Energy =       0.0000000000000000
    Empirical Dispersion Energy =           0.0000000000000000
    PCM Polarization Energy =               0.0000000000000000
    EFP Energy =                            0.0000000000000000
    Total Energy =                       -344.7167247344764860
    Molecular point group: c1
  Basis Set: CC-PVTZ
  Basis Set:

  -Total Gradient:
     Atom            X                  Y                   Z
    ------   -----------------  -----------------  -----------------
       1        0.000020687335     0.000086227425    -0.001693235710
       2        0.000303316322    -0.000608295252     0.002312906719
       3       -0.001034598460     0.001436074747    -0.001049127663
       4        0.000038259005     0.000021493145    -0.000016171673
       5        0.000684942378    -0.000945791661     0.000438330334
       6       -0.000018054939    -0.000011974674     0.000004547120
       7       -0.000027407879    -0.000013753775     0.000001023989
       8        0.000018580609     0.000007258993    -0.000015824649
       9        0.000027522970    -0.000000665114     0.000010172092
      10       -0.000001965533     0.000002617391     0.000002041372
      11       -0.000013125034     0.000007013883    -0.000001278883
      12       -0.000004811400     0.000008815481    -0.000013804595
      13       -0.000006202546     0.000008112666     0.000011083126
      14        0.000008290154    -0.000014256601     0.000006119804
      15       -0.000009565648     0.000006491663     0.000006731729
      16        0.000014132670     0.000010631683    -0.000003513115

  **** Optimization is complete! (in 6 steps) ****
    Final optimized geometry and variables:
    Molecular point group: c1

    Geometry (in Angstrom), charge = 0, multiplicity = 1:

    H           -2.714638549490    -1.173201081289    -0.418168514714
    O           -1.901245703396    -1.645857576258    -0.431057886086
    C           -0.843686628564    -0.783148200327    -0.378335803113
    C           -0.012238485406    -0.673007494656    -1.471576202195
    C           -0.574356779238    -0.078490513020     0.782066189552
    H           -0.226615560244    -1.238985408726    -2.356535701129
    C            1.088926133936     0.160343856032    -1.395202957335
    H           -1.224104127997    -0.205762387283     1.627676437398
    C            0.520070412065     0.764716654263     0.859071131667
    H            1.744158342805     0.249928194171    -2.240887430267
    C            1.353244536206     0.875804058435    -0.246051639567
    C            0.799850994055     1.554772920501     2.112965303189
    H            2.213164791779     1.517727393386    -0.202984598890
    H            1.854524275279     1.535872116946     2.358004904699
    H            0.251037931644     1.160133090025     2.957573443663
    H            0.512157536608     2.593010967314     1.985788751339

  Mulliken Charges: (a.u.)
   Center  Symbol    Alpha    Beta     Spin     Total
       1     H     0.38758  0.38758  0.00000  0.22484
       2     O     4.19050  4.19050  0.00000 -0.38101
       3     C     2.85588  2.85588  0.00000  0.28824
       4     C     3.12200  3.12200  0.00000 -0.24401
       5     C     3.14944  3.14944  0.00000 -0.29888
       6     H     0.41677  0.41677  0.00000  0.16647
       7     C     3.05825  3.05825  0.00000 -0.11649
       8     H     0.42248  0.42248  0.00000  0.15504
       9     C     2.94599  2.94599  0.00000  0.10802
      10     H     0.42233  0.42233  0.00000  0.15535
      11     C     3.10933  3.10933  0.00000 -0.21866
      12     C     3.14625  3.14625  0.00000 -0.29250
      13     H     0.42707  0.42707  0.00000  0.14586
      14     H     0.44780  0.44780  0.00000  0.10439
      15     H     0.45100  0.45100  0.00000  0.09800
      16     H     0.44733  0.44733  0.00000  0.10535

   Total alpha = 29.00000, Total beta = 29.00000, Total charge = -0.00000

*** Psi4 exiting successfully. Buy a developer a beer!
