  ==> Input File <==

--------------------------------------------------------------------------
set {
	reference rhf
	basis 6-31G*
}

set_num_threads( 1 )
memory 2 gb

molecule MOL {
0 1

O	 -0.291628	 1.323815	 -0.000732
C	 -0.449655	 0.146360	 0.000961
C	 -1.783294	 -0.549321	 -0.000296
O	 0.550821	 -0.724572	 0.000672
H	 -1.863538	 -1.185371	 -0.874187
H	 -2.574672	 0.185258	 -0.002793
H	 -1.866414	 -1.182381	 0.875436
C	 1.851050	 -0.208304	 -0.221034
H	 1.909092	 0.271804	 -1.187203
H	 2.515527	 -1.057352	 -0.184472
H	 2.111930	 0.505333	 0.547085

	symmetry c1
}
set optking {
	frozen_dihedral = ("
		2 4 8 9
	")
}

ee = energy('scf')
oeprop('DIPOLE', 'QUADRUPOLE', 'MULLIKEN_CHARGES')
f=open( 'psi4out.xyz', 'w' )
f.write( "11  " )
f.write( str(ee) + "\n" )
f.write( MOL.save_string_xyz() )
f.close()
--------------------------------------------------------------------------

    Molecular point group: c1

    Geometry (in Angstrom), charge = 0, multiplicity = 1:

       Center              X                  Y                   Z               Mass
    ------------   -----------------  -----------------  -----------------  -----------------
           O         -0.288882360927     1.326952888457     0.046244465571    15.994914619560
           C         -0.446909360927     0.149497888457     0.047937465571    12.000000000000
           C         -1.780548360927    -0.546183111543     0.046680465571    12.000000000000
           O          0.553566639073    -0.721434111543     0.047648465571    15.994914619560
           H         -1.860792360927    -1.182233111543    -0.827210534429     1.007825032070
           H         -2.571926360927     0.188395888457     0.044183465571     1.007825032070
           H         -1.863668360927    -1.179243111543     0.922412465571     1.007825032070
           C          1.853795639073    -0.205166111543    -0.174057534429    12.000000000000
           H          1.911837639073     0.274941888457    -1.140226534429     1.007825032070
           H          2.518272639073    -1.054214111543    -0.137495534429     1.007825032070
           H          2.114675639073     0.508470888457     0.594061465571     1.007825032070

  Charge       = 0
  Multiplicity = 1
  Basis Set: 6-31G*
  Basis Set:

    Orbital Energies (a.u.)
    -----------------------

    Doubly Occupied:

       1A    -20.605328     2A    -20.546750     3A    -11.376528
       4A    -11.282416     5A    -11.234765     6A     -1.471114
       7A     -1.364602     8A     -1.035827     9A     -0.953226
      10A     -0.778306    11A     -0.695842    12A     -0.681048
      13A     -0.677117    14A     -0.595516    15A     -0.592084
      16A     -0.561138    17A     -0.527893    18A     -0.520640
      19A     -0.457868    20A     -0.442230

  @DF-RHF Final Energy:  -266.83576158178681

   => Energetics <=

    Nuclear Repulsion Energy =            183.3221123529397119
    One-Electron Energy =                -727.5153722806741143
    Two-Electron Energy =                 277.3574983459465670
    DFT Exchange-Correlation Energy =       0.0000000000000000
    Empirical Dispersion Energy =           0.0000000000000000
    PCM Polarization Energy =               0.0000000000000000
    EFP Energy =                            0.0000000000000000
    Total Energy =                       -266.8357615817878354

  Mulliken Charges: (a.u.)
   Center  Symbol    Alpha    Beta     Spin     Total
       1     O     4.28143  4.28143  0.00000 -0.56285
       2     C     2.62252  2.62252  0.00000  0.75496
       3     C     3.28187  3.28187  0.00000 -0.56373
       4     O     4.29948  4.29948  0.00000 -0.59897
       5     H     0.40039  0.40039  0.00000  0.19922
       6     H     0.39665  0.39665  0.00000  0.20670
       7     H     0.39952  0.39952  0.00000  0.20097
       8     C     3.09279  3.09279  0.00000 -0.18557
       9     H     0.41083  0.41083  0.00000  0.17833
      10     H     0.40821  0.40821  0.00000  0.18358
      11     H     0.40631  0.40631  0.00000  0.18737

   Total alpha = 20.00000, Total beta = 20.00000, Total charge =  0.00000
