  ==> Input File <==

--------------------------------------------------------------------------
set {
	reference rhf
	basis cc-pvtz
}

set_num_threads( 4 )
memory 2 gb

molecule MOL {
0 1

H	 -0.939693	 0.000281	 1.681345
O	 -0.046262	 -0.000157	 1.387678
C	 -0.000837	 0.000006	 -0.025491
C	 0.734218	 -1.246815	 -0.513631
C	 -1.422342	 0.043378	 -0.582795
C	 0.765161	 1.260015	 -0.404718
H	 0.816694	 -1.256555	 -1.594323
H	 0.206218	 -2.147011	 -0.213741
H	 1.730629	 -1.284261	 -0.091462
H	 -1.418802	 0.080930	 -1.666015
H	 -1.980021	 -0.839086	 -0.283926
H	 -1.945300	 0.914870	 -0.209322
H	 0.853216	 1.349570	 -1.481061
H	 1.759723	 1.236639	 0.022495
H	 0.255309	 2.136715	 -0.025689

	symmetry c1
}
set optking {
	frozen_dihedral = ("
		4 3 2 1
	")
}

ee = optimize('scf')
oeprop('DIPOLE', 'QUADRUPOLE', 'MULLIKEN_CHARGES')
f=open( 'psi4out.xyz', 'w' )
f.write( "15  " )
f.write( str(ee) + "\n" )
f.write( MOL.save_string_xyz() )
f.close()
--------------------------------------------------------------------------

    Molecular point group: c1
  Charge       = 0
  Multiplicity = 1
  Basis Set: CC-PVTZ
  Basis Set:
  @DF-RHF Final Energy:  -232.24412154266795
    Total Energy =                       -232.2441215426676422
    Molecular point group: c1
  Basis Set: CC-PVTZ
  Basis Set:
  Basis Set: CC-PVTZ
  Basis Set:
  @DF-RHF Final Energy:  -232.24460800940165
    Total Energy =                       -232.2446080094015883
  Basis Set: CC-PVTZ
  Basis Set:
  Basis Set: CC-PVTZ
  Basis Set:
  @DF-RHF Final Energy:  -232.24472072966734
    Total Energy =                       -232.2447207296672786
  Basis Set: CC-PVTZ
  Basis Set:
  Charge       = 0
  Multiplicity = 1
  Basis Set: CC-PVTZ
  Basis Set:

    Orbital Energies (a.u.)
    -----------------------

    Doubly Occupied:

       1A    -20.540202     2A    -11.281146     3A    -11.216362
       4A    -11.203376     5A    -11.203349     6A     -1.362696
       7A     -1.065823     8A     -0.946432     9A     -0.936537
      10A     -0.778623    11A     -0.671823    12A     -0.624577
      13A     -0.622795    14A     -0.576600    15A     -0.557425
      16A     -0.534801    17A     -0.517028    18A     -0.511319
      19A     -0.503104    20A     -0.458277    21A     -0.426447

  @DF-RHF Final Energy:  -232.24471981992770

   => Energetics <=

    Nuclear Repulsion Energy =            200.5714425710225441
    One-Electron Energy =                -712.5548375647507555
    Two-Electron Energy =                 279.7386751738004023
    DFT Exchange-Correlation Energy =       0.0000000000000000
    Empirical Dispersion Energy =           0.0000000000000000
    PCM Polarization Energy =               0.0000000000000000
    EFP Energy =                            0.0000000000000000
    Total Energy =                       -232.2447198199278091
    Molecular point group: c1
  Basis Set: CC-PVTZ
  Basis Set:

  -Total Gradient:
     Atom            X                  Y                   Z
    ------   -----------------  -----------------  -----------------
       1        0.000074946272     0.000045293730     0.000035882878
       2       -0.000178209161    -0.000168854019     0.000034697953
       3        0.000066828166     0.000031198120     0.000076080178
       4       -0.000068250607     0.000034193322    -0.000020427729
       5        0.000032201189    -0.000101163872    -0.000032850331
       6        0.000009914809     0.000031011425    -0.000105052103
       7       -0.000034223456    -0.000057693438    -0.000055013807
       8        0.000077923094    -0.000019923042     0.000050110680
       9       -0.000032896752     0.000108057843    -0.000019278916
      10        0.000004780483     0.000004362986    -0.000006071107
      11        0.000008382621     0.000029825595     0.000027808425
      12        0.000036224695     0.000058380776    -0.000047149153
      13       -0.000023117397     0.000014143612     0.000025342104
      14        0.000010141723    -0.000039179523     0.000014400628
      15        0.000015354321     0.000030346484     0.000021520300

  **** Optimization is complete! (in 4 steps) ****
    Final optimized geometry and variables:
    Molecular point group: c1

    Geometry (in Angstrom), charge = 0, multiplicity = 1:

    H           -0.915041184089    -0.056108370840     1.706311168278
    O           -0.031239354487    -0.049826396616     1.391917318663
    C            0.002805502839     0.000850177092    -0.024870310929
    C            0.734313706337    -1.247550749698    -0.508476859189
    C           -1.417416671421     0.042212092522    -0.580957831509
    C            0.771443477218     1.258984280533    -0.417276686841
    H            0.832648715425    -1.252834904340    -1.588355834765
    H            0.199508269108    -2.140192211222    -0.206784632903
    H            1.724970166482    -1.287563058146    -0.073340405737
    H           -1.409899293591     0.076605821970    -1.663227008655
    H           -1.973535207791    -0.839401191277    -0.279103362742
    H           -1.943940714281     0.921034835755    -0.223141127576
    H            0.878831294377     1.334407237893    -1.493559775704
    H            1.759165723916     1.242673166359     0.026107596973
    H            0.257823470503     2.143287586334    -0.059363774205

  Mulliken Charges: (a.u.)
   Center  Symbol    Alpha    Beta     Spin     Total
       1     H     0.39167  0.39167  0.00000  0.21667
       2     O     4.21551  4.21551  0.00000 -0.43102
       3     C     2.88055  2.88055  0.00000  0.23890
       4     C     3.13955  3.13955  0.00000 -0.27909
       5     C     3.16360  3.16360  0.00000 -0.32721
       6     C     3.13954  3.13954  0.00000 -0.27908
       7     H     0.45957  0.45957  0.00000  0.08085
       8     H     0.45355  0.45355  0.00000  0.09291
       9     H     0.44809  0.44809  0.00000  0.10381
      10     H     0.45024  0.45024  0.00000  0.09952
      11     H     0.44867  0.44867  0.00000  0.10266
      12     H     0.44836  0.44836  0.00000  0.10327
      13     H     0.45953  0.45953  0.00000  0.08093
      14     H     0.44798  0.44798  0.00000  0.10405
      15     H     0.45359  0.45359  0.00000  0.09282

   Total alpha = 21.00000, Total beta = 21.00000, Total charge =  0.00000
