  ==> Input File <==

--------------------------------------------------------------------------
set {
	reference rhf
	basis 6-31G*
}

set_num_threads( 1 )
memory 2 gb

molecule MOL {
0 1

O	 3.225979	 0.970355	 -0.599647
C	 2.701189	 0.057885	 -0.047330
C	 1.245376	 -0.013843	 0.345420
O	 3.347903	 -1.046386	 0.304773
C	 0.455112	 1.231400	 -0.050772
H	 0.838542	 -0.913825	 -0.103701
H	 1.208210	 -0.175333	 1.419774
C	 -0.998893	 1.219485	 0.433193
H	 0.482531	 1.345121	 -1.130325
H	 0.957290	 2.103070	 0.354729
C	 -1.883438	 0.145884	 -0.207175
H	 -1.431207	 2.195402	 0.224832
H	 -1.019646	 1.105716	 1.516076
C	 -3.347647	 0.245583	 0.225435
H	 -1.822183	 0.231698	 -1.291012
H	 -1.510341	 -0.844814	 0.042401
C	 -4.307006	 -0.496361	 -0.706918
H	 -3.636926	 1.293859	 0.277105
H	 -3.452481	 -0.148635	 1.235039
C	 -5.767558	 -0.388665	 -0.270007
H	 -4.202824	 -0.104353	 -1.716432
H	 -4.022108	 -1.545246	 -0.756455
H	 -6.422558	 -0.924351	 -0.950171
H	 -6.093630	 0.647291	 -0.244155
H	 -5.911293	 -0.804164	 0.723459
C	 4.728119	 -1.109107	 -0.004993
H	 4.882018	 -1.033965	 -1.071845
H	 5.068212	 -2.067527	 0.355250
H	 5.265056	 -0.311663	 0.488280

	symmetry c1
}
set optking {
	frozen_dihedral = ("
		21 17 14 11,
		15 11 8 5,
		6 3 5 9,
		11 8 5 9,
		2 4 26 27,
		1 2 4 26,
		6 3 2 1
	")
}

ee = energy('scf')
oeprop('DIPOLE', 'QUADRUPOLE', 'MULLIKEN_CHARGES')
f=open( 'psi4out.xyz', 'w' )
f.write( "29  " )
f.write( str(ee) + "\n" )
f.write( MOL.save_string_xyz() )
f.close()
--------------------------------------------------------------------------

    Molecular point group: c1

    Geometry (in Angstrom), charge = 0, multiplicity = 1:

       Center              X                  Y                   Z               Mass
    ------------   -----------------  -----------------  -----------------  -----------------
           O          3.238212881375     0.910027165718    -0.544336373749    15.994914619560
           C          2.713422881375    -0.002442834282     0.007980626251    12.000000000000
           C          1.257609881375    -0.074170834282     0.400730626251    12.000000000000
           O          3.360136881375    -1.106713834282     0.360083626251    15.994914619560
           C          0.467345881375     1.171072165718     0.004538626251    12.000000000000
           H          0.850775881375    -0.974152834282    -0.048390373749     1.007825032070
           H          1.220443881375    -0.235660834282     1.475084626251     1.007825032070
           C         -0.986659118625     1.159157165718     0.488503626251    12.000000000000
           H          0.494764881375     1.284793165718    -1.075014373749     1.007825032070
           H          0.969523881375     2.042742165718     0.410039626251     1.007825032070
           C         -1.871204118625     0.085556165718    -0.151864373749    12.000000000000
           H         -1.418973118625     2.135074165718     0.280142626251     1.007825032070
           H         -1.007412118625     1.045388165718     1.571386626251     1.007825032070
           C         -3.335413118625     0.185255165718     0.280745626251    12.000000000000
           H         -1.809949118625     0.171370165718    -1.235701373749     1.007825032070
           H         -1.498107118625    -0.905141834282     0.097711626251     1.007825032070
           C         -4.294772118625    -0.556688834282    -0.651607373749    12.000000000000
           H         -3.624692118625     1.233531165718     0.332415626251     1.007825032070
           H         -3.440247118625    -0.208962834282     1.290349626251     1.007825032070
           C         -5.755324118625    -0.448992834282    -0.214696373749    12.000000000000
           H         -4.190590118625    -0.164680834282    -1.661121373749     1.007825032070
           H         -4.009874118625    -1.605573834282    -0.701144373749     1.007825032070
           H         -6.410324118625    -0.984678834282    -0.894860373749     1.007825032070
           H         -6.081396118625     0.586963165718    -0.188844373749     1.007825032070
           H         -5.899059118625    -0.864491834282     0.778769626251     1.007825032070
           C          4.740352881375    -1.169434834282     0.050317626251    12.000000000000
           H          4.894251881375    -1.094292834282    -1.016534373749     1.007825032070
           H          5.080445881375    -2.127854834282     0.410560626251     1.007825032070
           H          5.277289881375    -0.371990834282     0.543590626251     1.007825032070

  Charge       = 0
  Multiplicity = 1
  Basis Set: 6-31G*
  Basis Set:

    Orbital Energies (a.u.)
    -----------------------

    Doubly Occupied:

       1A    -20.603361     2A    -20.545202     3A    -11.371972
       4A    -11.280655     5A    -11.234710     6A    -11.219027
       7A    -11.217688     8A    -11.215870     9A    -11.215612
      10A    -11.214063    11A    -11.208889    12A     -1.469054
      13A     -1.362499    14A     -1.098058    15A     -1.066738
      16A     -1.019401    17A     -0.977177    18A     -0.928505
      19A     -0.861554    20A     -0.799518    21A     -0.790365
      22A     -0.763781    23A     -0.700916    24A     -0.682301
      25A     -0.672051    26A     -0.650449    27A     -0.628167
      28A     -0.604186    29A     -0.596380    30A     -0.580546
      31A     -0.566228    32A     -0.549990    33A     -0.532306
      34A     -0.530084    35A     -0.515698    36A     -0.512798
      37A     -0.495928    38A     -0.477363    39A     -0.470422
      40A     -0.461527    41A     -0.458302    42A     -0.455748
      43A     -0.441191    44A     -0.435303

  @DF-RHF Final Energy:  -501.04289483080754

   => Energetics <=

    Nuclear Repulsion Energy =            609.9761561753670094
    One-Electron Energy =               -1891.0750890082076694
    Two-Electron Energy =                 780.0560380020305047
    DFT Exchange-Correlation Energy =       0.0000000000000000
    Empirical Dispersion Energy =           0.0000000000000000
    PCM Polarization Energy =               0.0000000000000000
    EFP Energy =                            0.0000000000000000
    Total Energy =                       -501.0428948308100416

  Mulliken Charges: (a.u.)
   Center  Symbol    Alpha    Beta     Spin     Total
       1     O     4.28597  4.28597  0.00000 -0.57194
       2     C     2.60485  2.60485  0.00000  0.79030
       3     C     3.20971  3.20971  0.00000 -0.41943
       4     O     4.30746  4.30746  0.00000 -0.61493
       5     C     3.15385  3.15385  0.00000 -0.30769
       6     H     0.39886  0.39886  0.00000  0.20228
       7     H     0.40124  0.40124  0.00000  0.19751
       8     C     3.15713  3.15713  0.00000 -0.31426
       9     H     0.41306  0.41306  0.00000  0.17388
      10     H     0.40878  0.40878  0.00000  0.18243
      11     C     3.15558  3.15558  0.00000 -0.31115
      12     H     0.41808  0.41808  0.00000  0.16384
      13     H     0.42382  0.42382  0.00000  0.15236
      14     C     3.15069  3.15069  0.00000 -0.30138
      15     H     0.42261  0.42261  0.00000  0.15477
      16     H     0.42264  0.42264  0.00000  0.15473
      17     C     3.15188  3.15188  0.00000 -0.30376
      18     H     0.42346  0.42346  0.00000  0.15309
      19     H     0.42315  0.42315  0.00000  0.15370
      20     C     3.23950  3.23950  0.00000 -0.47900
      21     H     0.42256  0.42256  0.00000  0.15489
      22     H     0.42334  0.42334  0.00000  0.15332
      23     H     0.41924  0.41924  0.00000  0.16153
      24     H     0.42153  0.42153  0.00000  0.15693
      25     H     0.42188  0.42188  0.00000  0.15623
      26     C     3.09241  3.09241  0.00000 -0.18483
      27     H     0.40908  0.40908  0.00000  0.18184
      28     H     0.40852  0.40852  0.00000  0.18296
      29     H     0.40912  0.40912  0.00000  0.18175

   Total alpha = 44.00000, Total beta = 44.00000, Total charge = -0.00000
