  ==> Input File <==

--------------------------------------------------------------------------
set {
	reference rhf
	basis 6-31G*
}

set_num_threads( 1 )
memory 2 gb

molecule MOL {
0 1

O	 -2.821601	 1.309235	 -0.001213
C	 -2.668563	 0.129746	 -0.000350
C	 -3.801572	 -0.864014	 -0.000442
O	 -1.481751	 -0.454642	 0.000584
H	 -4.417280	 -0.689587	 -0.874708
H	 -3.443784	 -1.883046	 -0.000565
H	 -4.417179	 -0.689832	 0.873954
C	 -0.334255	 0.388708	 0.000906
C	 0.891947	 -0.504646	 0.000751
H	 -0.365390	 1.025305	 -0.873475
H	 -0.365484	 1.024911	 0.875569
C	 2.191998	 0.301789	 0.000897
H	 0.855148	 -1.151283	 -0.871571
H	 0.855132	 -1.151660	 0.872805
C	 2.528751	 0.889162	 1.372727
H	 3.013436	 -0.332245	 -0.328234
H	 2.119450	 1.108998	 -0.725898
C	 3.827947	 1.693498	 1.373125
H	 2.601975	 0.083836	 2.100163
H	 1.709947	 1.524869	 1.702131
H	 4.671943	 1.075565	 1.080135
H	 4.039635	 2.096496	 2.358527
H	 3.773098	 2.527603	 0.679389

	symmetry c1
}
set optking {
	frozen_dihedral = ("
		13 9 8 10,
		2 4 8 10,
		19 15 12 16,
		1 2 4 8
	")
}

ee = energy('scf')
oeprop('DIPOLE', 'QUADRUPOLE', 'MULLIKEN_CHARGES')
f=open( 'psi4out.xyz', 'w' )
f.write( "23  " )
f.write( str(ee) + "\n" )
f.write( MOL.save_string_xyz() )
f.close()
--------------------------------------------------------------------------

    Molecular point group: c1

    Geometry (in Angstrom), charge = 0, multiplicity = 1:

       Center              X                  Y                   Z               Mass
    ------------   -----------------  -----------------  -----------------  -----------------
           O         -2.618042153465     0.981133912811    -0.307773057025    15.994914619560
           C         -2.465004153465    -0.198355087189    -0.306910057025    12.000000000000
           C         -3.598013153465    -1.192115087189    -0.307002057025    12.000000000000
           O         -1.278192153465    -0.782743087189    -0.305976057025    15.994914619560
           H         -4.213721153465    -1.017688087189    -1.181268057025     1.007825032070
           H         -3.240225153465    -2.211147087189    -0.307125057025     1.007825032070
           H         -4.213620153465    -1.017933087189     0.567393942975     1.007825032070
           C         -0.130696153465     0.060606912811    -0.305654057025    12.000000000000
           C          1.095505846535    -0.832747087189    -0.305809057025    12.000000000000
           H         -0.161831153465     0.697203912811    -1.180035057025     1.007825032070
           H         -0.161925153465     0.696809912811     0.569008942975     1.007825032070
           C          2.395556846535    -0.026312087189    -0.305663057025    12.000000000000
           H          1.058706846535    -1.479384087189    -1.178131057025     1.007825032070
           H          1.058690846535    -1.479761087189     0.566244942975     1.007825032070
           C          2.732309846535     0.561060912811     1.066166942975    12.000000000000
           H          3.216994846535    -0.660346087189    -0.634794057025     1.007825032070
           H          2.323008846535     0.780896912811    -1.032458057025     1.007825032070
           C          4.031505846535     1.365396912811     1.066564942975    12.000000000000
           H          2.805533846535    -0.244265087189     1.793602942975     1.007825032070
           H          1.913505846535     1.196767912811     1.395570942975     1.007825032070
           H          4.875501846535     0.747463912811     0.773574942975     1.007825032070
           H          4.243193846535     1.768394912811     2.051966942975     1.007825032070
           H          3.976656846535     2.199501912811     0.372828942975     1.007825032070

  Charge       = 0
  Multiplicity = 1
  Basis Set: 6-31G*
  Basis Set:

    Orbital Energies (a.u.)
    -----------------------

    Doubly Occupied:

       1A    -20.603020     2A    -20.540596     3A    -11.374144
       4A    -11.281225     5A    -11.232409     6A    -11.223987
       7A    -11.223366     8A    -11.221254     9A    -11.212747
      10A     -1.467989    11A     -1.360786    12A     -1.095814
      13A     -1.040393    14A     -1.002749    15A     -0.930976
      16A     -0.847833    17A     -0.794078    18A     -0.780113
      19A     -0.688297    20A     -0.684717    21A     -0.672844
      22A     -0.634001    23A     -0.615953    24A     -0.586796
      25A     -0.577913    26A     -0.573361    27A     -0.561934
      28A     -0.529766    29A     -0.527206    30A     -0.508336
      31A     -0.495102    32A     -0.477624    33A     -0.470043
      34A     -0.461535    35A     -0.448403    36A     -0.435805

  @DF-RHF Final Energy:  -422.97731117733707

   => Energetics <=

    Nuclear Repulsion Energy =            456.1221035777040811
    One-Electron Energy =               -1479.8325794064971888
    Two-Electron Energy =                 600.7331646514567183
    DFT Exchange-Correlation Energy =       0.0000000000000000
    Empirical Dispersion Energy =           0.0000000000000000
    PCM Polarization Energy =               0.0000000000000000
    EFP Energy =                            0.0000000000000000
    Total Energy =                       -422.9773111773363325

  Mulliken Charges: (a.u.)
   Center  Symbol    Alpha    Beta     Spin     Total
       1     O     4.28403  4.28403  0.00000 -0.56806
       2     C     2.61539  2.61539  0.00000  0.76922
       3     C     3.28781  3.28781  0.00000 -0.57562
       4     O     4.31258  4.31258  0.00000 -0.62515
       5     H     0.39749  0.39749  0.00000  0.20502
       6     H     0.39983  0.39983  0.00000  0.20034
       7     H     0.39752  0.39752  0.00000  0.20497
       8     C     2.99732  2.99732  0.00000  0.00536
       9     C     3.16629  3.16629  0.00000 -0.33258
      10     H     0.41053  0.41053  0.00000  0.17894
      11     H     0.40954  0.40954  0.00000  0.18093
      12     C     3.16279  3.16279  0.00000 -0.32559
      13     H     0.41201  0.41201  0.00000  0.17599
      14     H     0.41405  0.41405  0.00000  0.17189
      15     C     3.15453  3.15453  0.00000 -0.30907
      16     H     0.41659  0.41659  0.00000  0.16682
      17     H     0.42087  0.42087  0.00000  0.15825
      18     C     3.23933  3.23933  0.00000 -0.47865
      19     H     0.42096  0.42096  0.00000  0.15808
      20     H     0.42105  0.42105  0.00000  0.15790
      21     H     0.42115  0.42115  0.00000  0.15771
      22     H     0.41778  0.41778  0.00000  0.16444
      23     H     0.42056  0.42056  0.00000  0.15887

   Total alpha = 36.00000, Total beta = 36.00000, Total charge =  0.00000
