  ==> Input File <==

--------------------------------------------------------------------------
set {
	reference rhf
	basis 6-31G*
}

set_num_threads( 4 )
memory 2 gb

molecule MOL {
0 1

O	 1.167274	 1.437346	 0.089575
C	 -0.007803	 1.323301	 0.225433
C	 -0.971829	 2.466174	 0.395260
O	 -0.632575	 0.154573	 0.251549
H	 -1.496415	 2.365724	 1.338482
H	 -0.433284	 3.401658	 0.369293
H	 -1.711948	 2.441510	 -0.396176
C	 0.160891	 -1.019931	 0.106212
C	 1.589627	 -0.672828	 0.480843
H	 0.089836	 -1.367806	 -0.916050
H	 -0.238459	 -1.792301	 0.749618
C	 2.246377	 0.346236	 -0.452210
H	 2.163194	 -1.597435	 0.473358
H	 1.604769	 -0.303424	 1.502885
C	 3.691736	 0.652107	 -0.061850
H	 2.219579	 -0.032311	 -1.472055
H	 1.666466	 1.263317	 -0.447249
H	 4.134505	 1.377213	 -0.737283
H	 4.305508	 -0.243868	 -0.089969
H	 3.748266	 1.059562	 0.943567

	symmetry c1
}
set optking {
	frozen_dihedral = ("
		2 4 8 10
	")
}

ee = optimize('scf')
oeprop('DIPOLE', 'QUADRUPOLE', 'MULLIKEN_CHARGES')
f=open( 'psi4out.xyz', 'w' )
f.write( "20  " )
f.write( str(ee) + "\n" )
f.write( MOL.save_string_xyz() )
f.close()
--------------------------------------------------------------------------

    Molecular point group: c1
  Charge       = 0
  Multiplicity = 1
  Basis Set: 6-31G*
  Basis Set:
  @DF-RHF Final Energy:  -383.36221577377108
    Total Energy =                       -383.3622157737707994
    Molecular point group: c1
  Basis Set: 6-31G*
  Basis Set:
  Basis Set: 6-31G*
  Basis Set:
  @DF-RHF Final Energy:  -383.60486740007769
    Total Energy =                       -383.6048674000778647
  Basis Set: 6-31G*
  Basis Set:
  Basis Set: 6-31G*
  Basis Set:
  @DF-RHF Final Energy:  -383.74687775758906
    Total Energy =                       -383.7468777575890044
  Basis Set: 6-31G*
  Basis Set:
  Basis Set: 6-31G*
  Basis Set:
  @DF-RHF Final Energy:  -383.82885504002564
    Total Energy =                       -383.8288550400255872
  Basis Set: 6-31G*
  Basis Set:
  @DF-RHF Final Energy:  -383.88087413864508
    Total Energy =                       -383.8808741386449128
  @DF-RHF Final Energy:  -383.90382080923246
    Total Energy =                       -383.9038208092324567
  @DF-RHF Final Energy:  -383.91654888021696
    Total Energy =                       -383.9165488802171922
  @DF-RHF Final Energy:  -383.92364553255629
    Total Energy =                       -383.9236455325561792
  @DF-RHF Final Energy:  -383.92713201634905
    Total Energy =                       -383.9271320163488781
  @DF-RHF Final Energy:  -383.92856534616601
    Total Energy =                       -383.9285653461658967
  @DF-RHF Final Energy:  -383.93010707603088
    Total Energy =                       -383.9301070760308221
  @DF-RHF Final Energy:  -383.93117532202234
    Total Energy =                       -383.9311753220224546
  @DF-RHF Final Energy:  -383.93153384412568
    Total Energy =                       -383.9315338441257381
  @DF-RHF Final Energy:  -383.93175819555921
    Total Energy =                       -383.9317581955590413
  @DF-RHF Final Energy:  -383.93180859254232
    Total Energy =                       -383.9318085925423247
  @DF-RHF Final Energy:  -383.93182097809927
    Total Energy =                       -383.9318209780989264
  @DF-RHF Final Energy:  -383.93183028316258
    Total Energy =                       -383.9318302831622987
  @DF-RHF Final Energy:  -383.93184962204123
    Total Energy =                       -383.9318496220414545
  @DF-RHF Final Energy:  -383.93186483055956
    Total Energy =                       -383.9318648305597890
  @DF-RHF Final Energy:  -383.93187922183137
    Total Energy =                       -383.9318792218311955
  @DF-RHF Final Energy:  -383.93194504408063
    Total Energy =                       -383.9319450440808623
  @DF-RHF Final Energy:  -383.93194473744813
    Total Energy =                       -383.9319447374482479
  @DF-RHF Final Energy:  -383.93194475080406
    Total Energy =                       -383.9319447508041776
  @DF-RHF Final Energy:  -383.93194482836236
    Total Energy =                       -383.9319448283623615
  @DF-RHF Final Energy:  -383.93194470328416
    Total Energy =                       -383.9319447032842163
  @DF-RHF Final Energy:  -383.93194443263388
    Total Energy =                       -383.9319444326340545
  @DF-RHF Final Energy:  -383.93194477688974
    Total Energy =                       -383.9319447768895088
  @DF-RHF Final Energy:  -383.93194472466212
    Total Energy =                       -383.9319447246616619
  @DF-RHF Final Energy:  -383.93194476447241
    Total Energy =                       -383.9319447644721777
  @DF-RHF Final Energy:  -383.93194474161743
    Total Energy =                       -383.9319447416171442
  @DF-RHF Final Energy:  -383.93194444217312
    Total Energy =                       -383.9319444421729486
  @DF-RHF Final Energy:  -383.93194479425659
    Total Energy =                       -383.9319447942565375
  @DF-RHF Final Energy:  -383.93194480376241
    Total Energy =                       -383.9319448037625762
  @DF-RHF Final Energy:  -383.93194481678472
    Total Energy =                       -383.9319448167843802
  @DF-RHF Final Energy:  -383.93194483380711
    Total Energy =                       -383.9319448338072789
  @DF-RHF Final Energy:  -383.93194485191276
    Total Energy =                       -383.9319448519127036
  Basis Set: 6-31G*
  Basis Set:
  @DF-RHF Final Energy:  -383.93194484056045
    Total Energy =                       -383.9319448405603907
  Basis Set: 6-31G*
  Basis Set:
  Basis Set: 6-31G*
  Basis Set:
  @DF-RHF Final Energy:  -383.93194480576977
    Total Energy =                       -383.9319448057694899
  Basis Set: 6-31G*
  Basis Set:
  Basis Set: 6-31G*
  Basis Set:
  @DF-RHF Final Energy:  -383.93194459032270
    Total Energy =                       -383.9319445903227006
  Basis Set: 6-31G*
  Basis Set:
  Charge       = 0
  Multiplicity = 1
  Basis Set: 6-31G*
  Basis Set:

    Orbital Energies (a.u.)
    -----------------------

    Doubly Occupied:

       1A    -20.599765     2A    -20.541846     3A    -11.376593
       4A    -11.289633     5A    -11.231090     6A    -11.221576
       7A    -11.208010     8A    -11.203814     9A     -1.461906
      10A     -1.362521    11A     -1.078782    12A     -1.025244
      13A     -0.976734    14A     -0.893950    15A     -0.808405
      16A     -0.747687    17A     -0.690664    18A     -0.677917
      19A     -0.666931    20A     -0.624490    21A     -0.603838
      22A     -0.588574    23A     -0.564405    24A     -0.559129
      25A     -0.538287    26A     -0.523413    27A     -0.517497
      28A     -0.476435    29A     -0.467013    30A     -0.460486
      31A     -0.442453    32A     -0.430220

  @DF-RHF Final Energy:  -383.93194477610098

   => Energetics <=

    Nuclear Repulsion Energy =            393.5825102664342694
    One-Electron Energy =               -1303.3102900892470188
    Two-Electron Energy =                 525.7958350467117725
    DFT Exchange-Correlation Energy =       0.0000000000000000
    Empirical Dispersion Energy =           0.0000000000000000
    PCM Polarization Energy =               0.0000000000000000
    EFP Energy =                            0.0000000000000000
    Total Energy =                       -383.9319447761009769
    Molecular point group: c1
  Basis Set: 6-31G*
  Basis Set:

  -Total Gradient:
     Atom            X                  Y                   Z
    ------   -----------------  -----------------  -----------------
       1        0.000006359086    -0.000047110036    -0.000395842175
       2        0.000348797271    -0.000668610453     0.003719741233
       3        0.000018520230    -0.000017085270     0.000016590995
       4       -0.001094156289     0.000654670754    -0.005391214623
       5       -0.000008357256    -0.000008137436    -0.000015905244
       6        0.000000583807     0.000001082164    -0.000018107830
       7        0.000005699207     0.000009231366    -0.000015770987
       8        0.002613146837     0.001519491172     0.001444285558
       9        0.000173413160    -0.000258882741    -0.000417911177
      10       -0.002098379740    -0.001704678269     0.000380414292
      11        0.000124362606     0.000174458893     0.000412234099
      12       -0.000152954524     0.000175316499     0.000006137484
      13       -0.000001446001     0.000053534952     0.000134817102
      14        0.000002762011     0.000045254128    -0.000039326815
      15        0.000003101042    -0.000047418155     0.000001028954
      16       -0.000008741998     0.000033084879    -0.000029074562
      17        0.000074226441     0.000088212589     0.000202763445
      18       -0.000014172223     0.000000967223    -0.000001993490
      19        0.000008250283    -0.000002346343     0.000006137979
      20       -0.000001013948    -0.000001035919     0.000000995759

    Molecular point group: c1

    Geometry (in Angstrom), charge = 0, multiplicity = 1:

    O           -0.190478713244     1.458363085720     0.041318550102
    C           -1.253484743996     0.947436769956     0.188537586914
    C           -2.505946700670     1.698275538059     0.561587479311
    O           -1.516410003607    -0.338025678340     0.036341613573
    H           -2.905326227030     1.307346335665     1.490231723111
    H           -2.279398311101     2.748628055909     0.668442718227
    H           -3.259397948334     1.556749942544    -0.204513233625
    C           -0.557659390578    -1.376405825889    -0.210366796130
    C            0.880216783613    -1.203161069716     0.289249992964
    H           -0.587945912310    -1.583363299487    -1.273227120338
    H           -1.007776798131    -2.221788589412     0.289765880010
    C            1.878060612723    -0.684800752523    -0.748587156083
    H            1.206311308618    -2.190233532992     0.611760077594
    H            0.892215491768    -0.577202704755     1.172965951974
    C            3.291163046767    -0.567744662044    -0.179149573929
    H            1.889270812262    -1.367102446920    -1.597258952337
    H            1.553640726909     0.278809231870    -1.115090810941
    H            3.989267859042    -0.223429146738    -0.935722993380
    H            3.651675967871    -1.523601265615     0.192413216307
    H            3.320235624432     0.140881332020     0.643253331513

  Mulliken Charges: (a.u.)
   Center  Symbol    Alpha    Beta     Spin     Total
       1     O     4.28381  4.28381  0.00000 -0.56761
       2     C     2.61927  2.61927  0.00000  0.76146
       3     C     3.28059  3.28059  0.00000 -0.56118
       4     O     4.31683  4.31683  0.00000 -0.63366
       5     H     0.40187  0.40187  0.00000  0.19626
       6     H     0.39810  0.39810  0.00000  0.20381
       7     H     0.40078  0.40078  0.00000  0.19844
       8     C     2.99046  2.99046  0.00000  0.01907
       9     C     3.17462  3.17462  0.00000 -0.34924
      10     H     0.41304  0.41304  0.00000  0.17392
      11     H     0.40949  0.40949  0.00000  0.18103
      12     C     3.15487  3.15487  0.00000 -0.30973
      13     H     0.42060  0.42060  0.00000  0.15880
      14     H     0.40536  0.40536  0.00000  0.18929
      15     C     3.24199  3.24199  0.00000 -0.48398
      16     H     0.42937  0.42937  0.00000  0.14125
      17     H     0.39714  0.39714  0.00000  0.20571
      18     H     0.41880  0.41880  0.00000  0.16241
      19     H     0.42543  0.42543  0.00000  0.14913
      20     H     0.41759  0.41759  0.00000  0.16482

   Total alpha = 32.00000, Total beta = 32.00000, Total charge = -0.00000
