  ==> Input File <==

--------------------------------------------------------------------------
set {
	reference rhf
	basis cc-pvtz
}

set_num_threads( 4 )
memory 2 gb

molecule MOL {
0 1

H	 2.322238	 -2.160049	 1.307884
C	 1.820648	 -1.629955	 0.505269
C	 0.732594	 -0.727122	 1.070543
H	 1.390035	 -2.357769	 -0.171326
H	 2.573456	 -1.073836	 -0.039474
N	 0.000297	 0.000045	 0.046090
H	 0.033511	 -1.346523	 1.615283
H	 1.163744	 -0.040617	 1.804541
C	 -1.359159	 0.315706	 0.454404
C	 0.722793	 1.169561	 -0.427994
C	 -2.416729	 -0.286720	 -0.460525
H	 -1.478729	 1.390261	 0.442008
H	 -1.539692	 0.003361	 1.486761
C	 0.378685	 1.547976	 -1.862159
H	 1.782231	 0.958410	 -0.382552
H	 0.556615	 2.025613	 0.231910
H	 -2.285276	 0.073129	 -1.473515
H	 -2.371743	 -1.368476	 -0.483209
H	 -3.408658	 -0.007405	 -0.121593
H	 0.606099	 0.727411	 -2.531385
H	 -0.669155	 1.794073	 -1.981507
H	 0.955336	 2.413722	 -2.170003

	symmetry c1
}
set optking {
	frozen_dihedral = ("
		3 6 9 11
	")
}

ee = optimize('scf')
oeprop('DIPOLE', 'QUADRUPOLE', 'MULLIKEN_CHARGES')
f=open( 'psi4out.xyz', 'w' )
f.write( "22  " )
f.write( str(ee) + "\n" )
f.write( MOL.save_string_xyz() )
f.close()
--------------------------------------------------------------------------

    Molecular point group: c1
  Charge       = 0
  Multiplicity = 1
  Basis Set: CC-PVTZ
  Basis Set:
  @DF-RHF Final Energy:  -290.47240909147331
    Total Energy =                       -290.4724090914729118
    Molecular point group: c1
  Basis Set: CC-PVTZ
  Basis Set:
  Basis Set: CC-PVTZ
  Basis Set:
  @DF-RHF Final Energy:  -290.47331023166004
    Total Energy =                       -290.4733102316601503
  Basis Set: CC-PVTZ
  Basis Set:
  Basis Set: CC-PVTZ
  Basis Set:
  @DF-RHF Final Energy:  -290.47365393400389
    Total Energy =                       -290.4736539340044601
  Basis Set: CC-PVTZ
  Basis Set:
  Basis Set: CC-PVTZ
  Basis Set:
  @DF-RHF Final Energy:  -290.47374657625022
    Total Energy =                       -290.4737465762504485
  Basis Set: CC-PVTZ
  Basis Set:
  Basis Set: CC-PVTZ
  Basis Set:
  @DF-RHF Final Energy:  -290.47376521401230
    Total Energy =                       -290.4737652140120758
  Basis Set: CC-PVTZ
  Basis Set:
  Basis Set: CC-PVTZ
  Basis Set:
  @DF-RHF Final Energy:  -290.47376921203045
    Total Energy =                       -290.4737692120304473
  Basis Set: CC-PVTZ
  Basis Set:
  Charge       = 0
  Multiplicity = 1
  Basis Set: CC-PVTZ
  Basis Set:

    Orbital Energies (a.u.)
    -----------------------

    Doubly Occupied:

       1A    -15.532405     2A    -11.239896     3A    -11.238290
       4A    -11.238071     5A    -11.204679     6A    -11.204093
       7A    -11.200946     8A     -1.223979     9A     -1.026946
      10A     -1.021203    11A     -0.957970    12A     -0.853161
      13A     -0.837989    14A     -0.773976    15A     -0.657901
      16A     -0.638137    17A     -0.617397    18A     -0.598941
      19A     -0.575888    20A     -0.556407    21A     -0.538220
      22A     -0.523976    23A     -0.517229    24A     -0.499130
      25A     -0.491593    26A     -0.481441    27A     -0.465096
      28A     -0.459992    29A     -0.341632

  @DF-RHF Final Energy:  -290.47377003643936

   => Energetics <=

    Nuclear Repulsion Energy =            338.1160497350214769
    One-Electron Energy =               -1062.1464701118743506
    Two-Electron Energy =                 433.5566503404135119
    DFT Exchange-Correlation Energy =       0.0000000000000000
    Empirical Dispersion Energy =           0.0000000000000000
    PCM Polarization Energy =               0.0000000000000000
    EFP Energy =                            0.0000000000000000
    Total Energy =                       -290.4737700364393049
    Molecular point group: c1
  Basis Set: CC-PVTZ
  Basis Set:

  -Total Gradient:
     Atom            X                  Y                   Z
    ------   -----------------  -----------------  -----------------
       1        0.000000170673     0.000010088125    -0.000005215795
       2       -0.000001665030    -0.000024227650    -0.000010997203
       3        0.000363966246     0.001056683392     0.000372874876
       4       -0.000002858290    -0.000003040797     0.000002961530
       5       -0.000002050851     0.000009625064     0.000008103144
       6       -0.000498738823    -0.001032489200    -0.000801122121
       7        0.000003137780     0.000013673395    -0.000006154920
       8        0.000017258011    -0.000001447699     0.000032553386
       9        0.000123321178    -0.000891294190     0.001030439506
      10       -0.000044457424    -0.000101766922     0.000027223178
      11        0.000073518201     0.000942425060    -0.000673809959
      12       -0.000000829652    -0.000013671500     0.000003921904
      13       -0.000003559879     0.000003914271     0.000022511425
      14       -0.000039044439     0.000003166581     0.000020223328
      15        0.000008612089     0.000031948250    -0.000008026832
      16        0.000003295406    -0.000003985636    -0.000006960459
      17       -0.000007810415    -0.000005599381     0.000010235423
      18       -0.000003696737     0.000003134339     0.000007247638
      19       -0.000016407056    -0.000009661294    -0.000010368130
      20        0.000007770717    -0.000010391617     0.000002317508
      21        0.000011376379     0.000003648669    -0.000005647366
      22        0.000008691917     0.000019268739    -0.000012310061

  **** Optimization is complete! (in 7 steps) ****
    Final optimized geometry and variables:
    Molecular point group: c1

    Geometry (in Angstrom), charge = 0, multiplicity = 1:

    H            2.303725729069    -2.228852963981     1.511910846453
    C            1.892548762610    -1.648599404701     0.692927078195
    C            0.735527535194    -0.795679220952     1.197953714149
    H            1.547802696341    -2.332425851167    -0.073102795368
    H            2.700324697995    -1.058826944762     0.279604779742
    N            0.027223321687    -0.082771877454     0.147559290697
    H            0.027607157281    -1.459435136550     1.676993745466
    H            1.094938504935    -0.113457186883     1.975049264962
    C           -1.337309620074     0.281735914044     0.522436685951
    C            0.790266273486     1.031929535088    -0.384894190422
    C           -2.389335616729    -0.326665430278    -0.396838554096
    H           -1.448986145274     1.362811769470     0.529942487776
    H           -1.534758403569    -0.037793581975     1.539359356503
    C            0.288301887422     1.532939715816    -1.732015458445
    H            1.814726866819     0.713343106397    -0.511377061412
    H            0.812044667784     1.864926025205     0.325169552457
    H           -2.249266386950    -0.006571409462    -1.420960818438
    H           -2.329354271123    -1.408643397095    -0.378591791856
    H           -3.386972561853    -0.036036349352    -0.082119643875
    H            0.284520945235     0.729712993361    -2.458781119355
    H           -0.713814275433     1.938535776050    -1.671652179972
    H            0.937356250020     2.321890745364    -2.095873660179

  Mulliken Charges: (a.u.)
   Center  Symbol    Alpha    Beta     Spin     Total
       1     H     0.45173  0.45173  0.00000  0.09655
       2     C     3.14510  3.14510  0.00000 -0.29021
       3     C     3.03788  3.03788  0.00000 -0.07577
       4     H     0.45096  0.45096  0.00000  0.09808
       5     H     0.45566  0.45566  0.00000  0.08868
       6     N     3.61809  3.61809  0.00000 -0.23617
       7     H     0.45357  0.45357  0.00000  0.09285
       8     H     0.46744  0.46744  0.00000  0.06513
       9     C     3.05499  3.05499  0.00000 -0.10998
      10     C     3.04090  3.04090  0.00000 -0.08179
      11     C     3.12934  3.12934  0.00000 -0.25869
      12     H     0.45586  0.45586  0.00000  0.08828
      13     H     0.45190  0.45190  0.00000  0.09620
      14     C     3.15286  3.15286  0.00000 -0.30572
      15     H     0.45163  0.45163  0.00000  0.09674
      16     H     0.46667  0.46667  0.00000  0.06667
      17     H     0.45306  0.45306  0.00000  0.09387
      18     H     0.45467  0.45467  0.00000  0.09067
      19     H     0.45731  0.45731  0.00000  0.08538
      20     H     0.44956  0.44956  0.00000  0.10089
      21     H     0.45325  0.45325  0.00000  0.09350
      22     H     0.44758  0.44758  0.00000  0.10484

   Total alpha = 29.00000, Total beta = 29.00000, Total charge = -0.00000
