  ==> Input File <==

--------------------------------------------------------------------------
set {
	reference rhf
	basis cc-pvtz
}

set_num_threads( 4 )
memory 2 gb

molecule MOL {
0 1

H	 -1.835082	 1.385983	 0.000069
C	 -1.300516	 0.441153	 -0.000028
O	 -0.006604	 0.654344	 -0.000106
O	 -1.828920	 -0.612308	 0.000113
C	 0.749518	 0.139637	 -1.092433
C	 2.196196	 0.509641	 -0.866776
H	 0.368089	 0.562193	 -2.011082
H	 0.613821	 -0.931601	 -1.137137
H	 2.316472	 1.584512	 -0.820323
H	 2.800400	 0.131611	 -1.682793
H	 2.563436	 0.083228	 0.058035

	symmetry c1
}
set optking {
	frozen_dihedral = ("
		5 3 2 4
	")
}

ee = optimize('scf')
oeprop('DIPOLE', 'QUADRUPOLE', 'MULLIKEN_CHARGES')
f=open( 'psi4out.xyz', 'w' )
f.write( "11  " )
f.write( str(ee) + "\n" )
f.write( MOL.save_string_xyz() )
f.close()
--------------------------------------------------------------------------

    Molecular point group: c1
  Charge       = 0
  Multiplicity = 1
  Basis Set: CC-PVTZ
  Basis Set:
  @DF-RHF Final Energy:  -266.91684809616174
    Total Energy =                       -266.9168480961617433
    Molecular point group: c1
  Basis Set: CC-PVTZ
  Basis Set:
  Basis Set: CC-PVTZ
  Basis Set:
  @DF-RHF Final Energy:  -266.91108429852949
    Total Energy =                       -266.9110842985294312
  Basis Set: CC-PVTZ
  Basis Set:
  Basis Set: CC-PVTZ
  Basis Set:
  @DF-RHF Final Energy:  -266.91766233152651
    Total Energy =                       -266.9176623315265147
  Basis Set: CC-PVTZ
  Basis Set:
  Basis Set: CC-PVTZ
  Basis Set:
  @DF-RHF Final Energy:  -266.91790604825974
    Total Energy =                       -266.9179060482596242
  Basis Set: CC-PVTZ
  Basis Set:
  Basis Set: CC-PVTZ
  Basis Set:
  @DF-RHF Final Energy:  -266.91791254898521
    Total Energy =                       -266.9179125489851003
  Basis Set: CC-PVTZ
  Basis Set:
  Charge       = 0
  Multiplicity = 1
  Basis Set: CC-PVTZ
  Basis Set:

    Orbital Energies (a.u.)
    -----------------------

    Doubly Occupied:

       1A    -20.589977     2A    -20.555607     3A    -11.372721
       4A    -11.295496     5A    -11.225579     6A     -1.470923
       7A     -1.379509     8A     -1.050828     9A     -0.895149
      10A     -0.816374    11A     -0.743111    12A     -0.690819
      13A     -0.661458    14A     -0.627958    15A     -0.564021
      16A     -0.545949    17A     -0.532659    18A     -0.509758
      19A     -0.467146    20A     -0.452838

  @DF-RHF Final Energy:  -266.91791385440263

   => Energetics <=

    Nuclear Repulsion Energy =            178.1177441691525019
    One-Electron Energy =                -717.1755560987373883
    Two-Electron Energy =                 272.1398980751822592
    DFT Exchange-Correlation Energy =       0.0000000000000000
    Empirical Dispersion Energy =           0.0000000000000000
    PCM Polarization Energy =               0.0000000000000000
    EFP Energy =                            0.0000000000000000
    Total Energy =                       -266.9179138544026273
    Molecular point group: c1
  Basis Set: CC-PVTZ
  Basis Set:

  -Total Gradient:
     Atom            X                  Y                   Z
    ------   -----------------  -----------------  -----------------
       1        0.000017596093    -0.000029297968    -0.000005928411
       2       -0.000618177733     0.001785191445    -0.014853155124
       3        0.001756245417    -0.007628099899     0.009991742873
       4        0.000034475789     0.000574622197     0.008627686584
       5       -0.001189047415     0.005285042228    -0.003767666811
       6       -0.000015476867    -0.000003333563    -0.000008887088
       7        0.000011137624     0.000005611907    -0.000001254170
       8        0.000012792524     0.000018531575     0.000013843323
       9       -0.000004316597    -0.000004617777    -0.000003005957
      10       -0.000001060600     0.000001256794     0.000003368551
      11       -0.000004168233    -0.000004906938     0.000003256231

  **** Optimization is complete! (in 6 steps) ****
    Final optimized geometry and variables:
    Molecular point group: c1

    Geometry (in Angstrom), charge = 0, multiplicity = 1:

    H           -1.889221815140     1.112979050132     0.418436063954
    C           -1.287255846564     0.208114239183     0.382531465109
    O            0.012582600808     0.484139124903     0.342775161052
    O           -1.748190168878    -0.868176001456     0.469121587392
    C            0.782045420071    -0.071257895859    -0.720443368723
    C            2.233662497770     0.261069415869    -0.472745872888
    H            0.439978984378     0.359643532002    -1.654429511112
    H            0.623397717934    -1.139879992291    -0.754451372981
    H            2.379683638604     1.332584078055    -0.426254719753
    H            2.842391181552    -0.135542835445    -1.276676494440
    H            2.568739196639    -0.172873756401     0.460348723494

  Mulliken Charges: (a.u.)
   Center  Symbol    Alpha    Beta     Spin     Total
       1     H     0.45889  0.45889  0.00000  0.08222
       2     C     2.83801  2.83801  0.00000  0.32398
       3     O     4.15853  4.15853  0.00000 -0.31707
       4     O     4.17471  4.17471  0.00000 -0.34943
       5     C     2.96990  2.96990  0.00000  0.06020
       6     C     3.13465  3.13465  0.00000 -0.26930
       7     H     0.46270  0.46270  0.00000  0.07459
       8     H     0.44937  0.44937  0.00000  0.10127
       9     H     0.45013  0.45013  0.00000  0.09973
      10     H     0.45568  0.45568  0.00000  0.08864
      11     H     0.44742  0.44742  0.00000  0.10516

   Total alpha = 20.00000, Total beta = 20.00000, Total charge =  0.00000
