  ==> Input File <==

--------------------------------------------------------------------------
set {
	reference rhf
	basis 6-31G*
}

set_num_threads( 4 )
memory 2 gb

molecule MOL {
0 1

H	 2.475290	 0.410177	 -1.145952
O	 1.617857	 0.000085	 -1.204439
C	 1.050492	 0.053836	 0.000068
C	 -0.318135	 -0.576402	 0.000164
O	 1.593911	 0.548170	 0.933516
C	 -1.454360	 0.441875	 -0.000474
H	 -0.374042	 -1.230163	 -0.866135
H	 -0.374274	 -1.229227	 0.867154
C	 -2.826123	 -0.230780	 0.000056
H	 -1.357605	 1.085198	 -0.868380
H	 -1.357504	 1.086451	 0.866496
H	 -2.959731	 -0.858053	 -0.876869
H	 -3.619374	 0.509403	 -0.000080
H	 -2.959371	 -0.857318	 0.877556

	symmetry c1
}
set optking {
	frozen_dihedral = ("
		2 3 4 7
	")
}

ee = optimize('scf')
oeprop('DIPOLE', 'QUADRUPOLE', 'MULLIKEN_CHARGES')
f=open( 'psi4out.xyz', 'w' )
f.write( "14  " )
f.write( str(ee) + "\n" )
f.write( MOL.save_string_xyz() )
f.close()
--------------------------------------------------------------------------

    Molecular point group: c1
  Charge       = 0
  Multiplicity = 1
  Basis Set: 6-31G*
  Basis Set:
  @DF-RHF Final Energy:  -305.87830381696818
    Total Energy =                       -305.8783038169679571
    Molecular point group: c1
  Basis Set: 6-31G*
  Basis Set:
  Basis Set: 6-31G*
  Basis Set:
  @DF-RHF Final Energy:  -305.87861799890425
    Total Energy =                       -305.8786179989042466
  Basis Set: 6-31G*
  Basis Set:
  Basis Set: 6-31G*
  Basis Set:
  @DF-RHF Final Energy:  -305.87902825603715
    Total Energy =                       -305.8790282560371452
  Basis Set: 6-31G*
  Basis Set:
  Basis Set: 6-31G*
  Basis Set:
  @DF-RHF Final Energy:  -305.87909027347973
    Total Energy =                       -305.8790902734796759
  Basis Set: 6-31G*
  Basis Set:
  Basis Set: 6-31G*
  Basis Set:
  @DF-RHF Final Energy:  -305.87909178772748
    Total Energy =                       -305.8790917877275888
  Basis Set: 6-31G*
  Basis Set:
  Charge       = 0
  Multiplicity = 1
  Basis Set: 6-31G*
  Basis Set:

    Orbital Energies (a.u.)
    -----------------------

    Doubly Occupied:

       1A    -20.614508     2A    -20.548720     3A    -11.380400
       4A    -11.239376     5A    -11.235337     6A    -11.220857
       7A     -1.474677     8A     -1.364520     9A     -1.085934
      10A     -0.979535    11A     -0.853500    12A     -0.805656
      13A     -0.702143    14A     -0.686366    15A     -0.644984
      16A     -0.632873    17A     -0.593747    18A     -0.569068
      19A     -0.552612    20A     -0.515318    21A     -0.497617
      22A     -0.488725    23A     -0.470567    24A     -0.439453

  @DF-RHF Final Energy:  -305.87909193625700

   => Energetics <=

    Nuclear Repulsion Energy =            240.2440128405438031
    One-Electron Energy =                -893.0532279690296491
    Two-Electron Energy =                 346.9301231922287911
    DFT Exchange-Correlation Energy =       0.0000000000000000
    Empirical Dispersion Energy =           0.0000000000000000
    PCM Polarization Energy =               0.0000000000000000
    EFP Energy =                            0.0000000000000000
    Total Energy =                       -305.8790919362571117
    Molecular point group: c1
  Basis Set: 6-31G*
  Basis Set:

  -Total Gradient:
     Atom            X                  Y                   Z
    ------   -----------------  -----------------  -----------------
       1        0.000005954741     0.000002533292    -0.000008442839
       2        0.000071158377    -0.000148021044     0.000069319355
       3       -0.000128075655     0.000228855688    -0.000120760011
       4        0.000099294407    -0.000253682382     0.000135842267
       5        0.000016132439     0.000008325765     0.000014046770
       6        0.000002453787     0.000005957776     0.000023547626
       7       -0.000070905019     0.000142729073    -0.000106787386
       8        0.000003071459     0.000013324696    -0.000014094514
       9        0.000003419057    -0.000004109827    -0.000001709609
      10        0.000006787130    -0.000008154691     0.000006737690
      11       -0.000016440691     0.000010468713     0.000008198268
      12        0.000001728019    -0.000005178649    -0.000000526368
      13        0.000006627399     0.000003835129    -0.000004384133
      14       -0.000001205456     0.000003116462    -0.000000987118

  **** Optimization is complete! (in 6 steps) ****
    Final optimized geometry and variables:
    Molecular point group: c1

    Geometry (in Angstrom), charge = 0, multiplicity = 1:

    H            2.481797851746     0.452866937522    -1.059718027375
    O            1.650197795138    -0.005003365679    -1.137957693697
    C            1.065134711632    -0.004869345130     0.057804263479
    C           -0.287922442386    -0.667569866675     0.049196676301
    O            1.568980623134     0.499509813500     1.009024362158
    C           -1.408755807323     0.383732310857     0.046579824439
    H           -0.372883845775    -1.312764063880    -0.816262148087
    H           -0.357000391557    -1.274047718739     0.944736377240
    C           -2.794825460612    -0.256928893572     0.070916122417
    H           -1.311535054109     1.009396666431    -0.836523808466
    H           -1.284153682014     1.031075465114     0.908196601874
    H           -2.950219082233    -0.892288565599    -0.795993623089
    H           -3.570736778515     0.501462155810     0.069565589925
    H           -2.928777941223    -0.867085129031     0.959218604908

  Mulliken Charges: (a.u.)
   Center  Symbol    Alpha    Beta     Spin     Total
       1     H     0.26815  0.26815  0.00000  0.46369
       2     O     4.34705  4.34705  0.00000 -0.69410
       3     C     2.63150  2.63150  0.00000  0.73701
       4     C     3.19869  3.19869  0.00000 -0.39737
       5     O     4.27984  4.27984  0.00000 -0.55968
       6     C     3.16502  3.16502  0.00000 -0.33004
       7     H     0.40107  0.40107  0.00000  0.19787
       8     H     0.39899  0.39899  0.00000  0.20203
       9     C     3.24117  3.24117  0.00000 -0.48234
      10     H     0.41257  0.41257  0.00000  0.17485
      11     H     0.40476  0.40476  0.00000  0.19049
      12     H     0.41889  0.41889  0.00000  0.16221
      13     H     0.41430  0.41430  0.00000  0.17140
      14     H     0.41801  0.41801  0.00000  0.16398

   Total alpha = 24.00000, Total beta = 24.00000, Total charge =  0.00000
