                              Psi4 1.0.54 Driver

  ==> Input File <==

--------------------------------------------------------------------------
set {
	reference rhf
	basis cc-pvtz
}

set_num_threads( 4 )
memory 2 gb

molecule MOL {
0 1

H	 -2.115866	 -0.575695	 -1.807672
C	 -2.720297	 0.329428	 -1.658338
C	 -2.653809	 0.914422	 -0.273689
O	 -3.364843	 0.763782	 -2.548958
C	 -1.216901	 1.136108	 0.207794
H	 -3.225456	 1.833319	 -0.260183
H	 -3.146496	 0.204470	 0.387017
C	 -0.247837	 0.040196	 -0.230469
H	 -0.872882	 2.093195	 -0.169002
H	 -1.209325	 1.218376	 1.291938
C	 1.181757	 0.280428	 0.247371
H	 -0.259600	 -0.030819	 -1.314870
H	 -0.591284	 -0.923375	 0.136958
C	 2.151032	 -0.811012	 -0.202643
H	 1.515939	 1.247397	 -0.115449
H	 1.191514	 0.341223	 1.333422
C	 3.580021	 -0.656538	 0.320835
H	 2.170545	 -0.847575	 -1.289412
H	 1.766632	 -1.772905	 0.124928
C	 4.327657	 0.562694	 -0.213579
H	 4.138806	 -1.549270	 0.057813
H	 3.561991	 -0.620783	 1.406976
H	 4.355973	 0.557257	 -1.298551
H	 3.867136	 1.491650	 0.100501
H	 5.351524	 0.571613	 0.142204

	symmetry c1
}
set optking {
	frozen_dihedral = ("
		6 3 5 8
	")
}

ee,wfn = optimize('scf', return_wfn=True)
oeprop( wfn, 'DIPOLE', 'QUADRUPOLE', 'MULLIKEN_CHARGES')
f=open( 'psi4out.xyz', 'w' )
f.write( "25  " )
f.write( str(ee) + "\n" )
f.write( MOL.save_string_xyz() )
f.close()
--------------------------------------------------------------------------

    Molecular point group: c1
  Charge       = 0
  Multiplicity = 1
  Basis Set: CC-PVTZ
  Basis Set:
  @DF-RHF Final Energy:  -387.25353732313408
    Total Energy =                       -387.2535373231340827
    Molecular point group: c1
  Basis Set: CC-PVTZ
  Basis Set:
  Basis Set: CC-PVTZ
  Basis Set:
  @DF-RHF Final Energy:  -387.24933102508442
    Total Energy =                       -387.2493310250839613
  Basis Set: CC-PVTZ
  Basis Set:
  Basis Set: CC-PVTZ
  Basis Set:
  @DF-RHF Final Energy:  -387.25593526504679
    Total Energy =                       -387.2559352650470146
  Basis Set: CC-PVTZ
  Basis Set:
  Basis Set: CC-PVTZ
  Basis Set:
  @DF-RHF Final Energy:  -387.25628897270315
    Total Energy =                       -387.2562889727026914
  Basis Set: CC-PVTZ
  Basis Set:
  @DF-RHF Final Energy:  -387.25141058773556
    Total Energy =                       -387.2514105877354496
  @DF-RHF Final Energy:  -387.25458729550422
    Total Energy =                       -387.2545872955041659
  @DF-RHF Final Energy:  -387.25662328216498
    Total Energy =                       -387.2566232821651511
  @DF-RHF Final Energy:  -387.25666537125181
    Total Energy =                       -387.2566653712517564
  Basis Set: CC-PVTZ
  Basis Set:
  @DF-RHF Final Energy:  -387.25670763426217
    Total Energy =                       -387.2567076342621704
  Basis Set: CC-PVTZ
  Basis Set:
  Basis Set: CC-PVTZ
  Basis Set:
  @DF-RHF Final Energy:  -387.25672008852899
    Total Energy =                       -387.2567200885291641
  Basis Set: CC-PVTZ
  Basis Set:
  Basis Set: CC-PVTZ
  Basis Set:
  @DF-RHF Final Energy:  -387.25672623151064
    Total Energy =                       -387.2567262315103562
  Basis Set: CC-PVTZ
  Basis Set:
  Charge       = 0
  Multiplicity = 1
  Basis Set: CC-PVTZ
  Basis Set:

    Orbital Energies (a.u.)
    -----------------------

    Doubly Occupied:

       1A    -20.550611     2A    -11.319392     3A    -11.233225
       4A    -11.232648     5A    -11.224975     6A    -11.219002
       7A    -11.217330     8A    -11.216576     9A    -11.209113
      10A     -1.405154    11A     -1.105140    12A     -1.069842
      13A     -1.014204    14A     -0.943661    15A     -0.877921
      16A     -0.831090    17A     -0.783777    18A     -0.772305
      19A     -0.684395    20A     -0.656476    21A     -0.632877
      22A     -0.619503    23A     -0.614268    24A     -0.585170
      25A     -0.574179    26A     -0.563832    27A     -0.534129
      28A     -0.524197    29A     -0.514568    30A     -0.499850
      31A     -0.489904    32A     -0.477529    33A     -0.466649
      34A     -0.460594    35A     -0.444273    36A     -0.409269

  @DF-RHF Final Energy:  -387.25672649916424

   => Energetics <=

    Nuclear Repulsion Energy =            440.8195502590153296
    One-Electron Energy =               -1398.1973029885505184
    Two-Electron Energy =                 570.1210262303702621
    DFT Exchange-Correlation Energy =       0.0000000000000000
    Empirical Dispersion Energy =           0.0000000000000000
    PCM Polarization Energy =               0.0000000000000000
    EFP Energy =                            0.0000000000000000
    Total Energy =                       -387.2567264991648699
    Molecular point group: c1
  Basis Set: CC-PVTZ
  Basis Set:

  -Total Gradient:
     Atom            X                  Y                   Z
    ------   -----------------  -----------------  -----------------
       1        0.000001500924    -0.000041022206    -0.000002932646
       2        0.000037312253     0.000014919933     0.000003014155
       3       -0.001887519019    -0.001665434749     0.003212414579
       4        0.000003545698    -0.000019437967     0.000026161605
       5       -0.000888193347    -0.003024925563     0.001730806691
       6        0.001803065880     0.002209069618    -0.003175246360
       7        0.000001611481     0.000001235696    -0.000017649850
       8        0.000953565179     0.002535539141    -0.001808819540
       9        0.000003458270     0.000031180664    -0.000006364100
      10       -0.000001313847    -0.000012786844     0.000024289628
      11       -0.000024167335    -0.000034906917     0.000010538660
      12        0.000009354264     0.000001458865    -0.000008392123
      13       -0.000006734579     0.000003333740    -0.000020120810
      14        0.000002357189    -0.000010782208     0.000037121105
      15        0.000006561253     0.000024084149    -0.000009379027
      16        0.000011217486     0.000002648092     0.000036103710
      17       -0.000022987205    -0.000003739608    -0.000020742774
      18       -0.000000372502     0.000015378437    -0.000003968884
      19        0.000000162902    -0.000026321416    -0.000014538626
      20        0.000017746368    -0.000005415736    -0.000000971702
      21        0.000012169568    -0.000007155697    -0.000001830082
      22       -0.000006344033     0.000006970310     0.000013997089
      23       -0.000004333221     0.000003620596    -0.000009935108
      24       -0.000016417675     0.000009003189     0.000009697146
      25       -0.000005245956    -0.000006513523    -0.000003252732

  **** Optimization is complete! (in 12 steps) ****
    Final optimized geometry and variables:
    Molecular point group: c1

    Geometry (in Angstrom), charge = 0, multiplicity = 1:

    H           -2.326262212022    -0.454179759783    -2.181407291994
    C           -2.652979521557     0.479893738571    -1.711446840546
    C           -2.842406785579     0.440837220780    -0.216100876675
    O           -2.836616736283     1.440703102653    -2.377251418467
    C           -1.515139735944     0.493715829898     0.565046635775
    H           -3.447144616373     1.301943832719     0.034283011072
    H           -3.385259946275    -0.466786511090     0.030044184715
    C           -0.375804195399    -0.351881187581    -0.003654181912
    H           -1.187361810902     1.527435480213     0.602058593344
    H           -1.713320810583     0.198394769690     1.589469383090
    C            0.866856043485    -0.330011136351     0.882965555676
    H           -0.108232570596     0.009509205683    -0.992210448986
    H           -0.705306592663    -1.380935143929    -0.130928128039
    C            2.020914731547    -1.151296680220     0.311366481818
    H            1.177752376148     0.700114753513     1.024873385781
    H            0.609913890653    -0.711201511826     1.868610568149
    C            3.258556380807    -1.228364697535     1.206953853264
    H            2.305440946448    -0.745274855315    -0.656623270912
    H            1.668595291178    -2.162050744220     0.123823035401
    C            3.984156834924     0.099798678705     1.408244060934
    H            3.952190571051    -1.940691414538     0.771132783762
    H            2.975991315409    -1.635113722355     2.174442803542
    H            4.271560639856     0.534593187688     0.456279851130
    H            3.369762653670     0.823491996831     1.930166388740
    H            4.886678351690    -0.040719234937     1.991846467062

  Mulliken Charges: (a.u.)
   Center  Symbol    Alpha    Beta     Spin     Total
       1     H     0.45971  0.45971  0.00000  0.08059
       2     C     2.90735  2.90735  0.00000  0.18530
       3     C     3.08975  3.08975  0.00000 -0.17950
       4     O     4.16727  4.16727  0.00000 -0.33454
       5     C     3.09905  3.09905  0.00000 -0.19810
       6     H     0.43931  0.43931  0.00000  0.12139
       7     H     0.44861  0.44861  0.00000  0.10278
       8     C     3.10330  3.10330  0.00000 -0.20661
       9     H     0.44584  0.44584  0.00000  0.10833
      10     H     0.44781  0.44781  0.00000  0.10439
      11     C     3.09269  3.09269  0.00000 -0.18538
      12     H     0.44683  0.44683  0.00000  0.10634
      13     H     0.45156  0.45156  0.00000  0.09688
      14     C     3.09523  3.09523  0.00000 -0.19046
      15     H     0.45028  0.45028  0.00000  0.09943
      16     H     0.45312  0.45312  0.00000  0.09376
      17     C     3.09097  3.09097  0.00000 -0.18193
      18     H     0.45258  0.45258  0.00000  0.09484
      19     H     0.44978  0.44978  0.00000  0.10043
      20     C     3.15250  3.15250  0.00000 -0.30501
      21     H     0.44784  0.44784  0.00000  0.10432
      22     H     0.45472  0.45472  0.00000  0.09055
      23     H     0.45409  0.45409  0.00000  0.09182
      24     H     0.45386  0.45386  0.00000  0.09228
      25     H     0.44596  0.44596  0.00000  0.10808

   Total alpha = 36.00000, Total beta = 36.00000, Total charge =  0.00000

*** Psi4 exiting successfully. Buy a developer a beer!
