  ==> Input File <==

--------------------------------------------------------------------------
set {
	reference rhf
	basis 6-31G*
}

set_num_threads( 4 )
memory 2 gb

molecule MOL {
0 1

H	 -3.261111	 -0.295142	 1.469456
C	 -3.306842	 -0.277400	 0.373456
C	 -2.660244	 0.921717	 -0.272021
O	 -3.838538	 -1.161155	 -0.216482
C	 -1.455380	 0.542494	 -1.144229
H	 -3.414372	 1.451322	 -0.842564
H	 -2.328091	 1.577463	 0.531923
C	 -1.832289	 -0.269179	 -2.386173
H	 -0.950699	 1.454530	 -1.448815
H	 -0.737049	 -0.015166	 -0.545252
C	 -0.623426	 -0.630100	 -3.251737
H	 -2.546906	 0.298244	 -2.978795
H	 -2.345571	 -1.181713	 -2.088915
C	 -1.005815	 -1.427953	 -4.501201
H	 -0.109031	 0.284142	 -3.536850
H	 0.084508	 -1.208159	 -2.659232
C	 0.181480	 -1.883565	 -5.357250
H	 -1.683203	 -0.835036	 -5.113809
H	 -1.567178	 -2.307785	 -4.193826
C	 0.961998	 -0.746286	 -6.018316
H	 -0.190321	 -2.547546	 -6.133678
H	 0.857530	 -2.479458	 -4.747504
H	 0.307430	 -0.123326	 -6.622245
H	 1.445811	 -0.106820	 -5.287575
H	 1.736783	 -1.139001	 -6.669836

	symmetry c1
}
set optking {
	frozen_dihedral = ("
		6 3 2 4
	")
}

ee = optimize('scf')
oeprop('DIPOLE', 'QUADRUPOLE', 'MULLIKEN_CHARGES')
f=open( 'psi4out.xyz', 'w' )
f.write( "25  " )
f.write( str(ee) + "\n" )
f.write( MOL.save_string_xyz() )
f.close()
--------------------------------------------------------------------------

    Molecular point group: c1
  Charge       = 0
  Multiplicity = 1
  Basis Set: 6-31G*
  Basis Set:
  @DF-RHF Final Energy:  -387.11853464969471
    Total Energy =                       -387.1185346496945385
    Molecular point group: c1
  Basis Set: 6-31G*
  Basis Set:
  Basis Set: 6-31G*
  Basis Set:
  @DF-RHF Final Energy:  -387.11908079673043
    Total Energy =                       -387.1190807967302590
  Basis Set: 6-31G*
  Basis Set:
  Basis Set: 6-31G*
  Basis Set:
  @DF-RHF Final Energy:  -387.11804818438657
    Total Energy =                       -387.1180481843863390
  Basis Set: 6-31G*
  Basis Set:
  Basis Set: 6-31G*
  Basis Set:
  @DF-RHF Final Energy:  -387.11936106453015
    Total Energy =                       -387.1193610645302670
  Basis Set: 6-31G*
  Basis Set:
  Basis Set: 6-31G*
  Basis Set:
  @DF-RHF Final Energy:  -387.11938876748218
    Total Energy =                       -387.1193887674822918
  Basis Set: 6-31G*
  Basis Set:
  Basis Set: 6-31G*
  Basis Set:
  @DF-RHF Final Energy:  -387.11939039997236
    Total Energy =                       -387.1193903999724171
  Basis Set: 6-31G*
  Basis Set:
  Basis Set: 6-31G*
  Basis Set:
  @DF-RHF Final Energy:  -387.11939245082897
    Total Energy =                       -387.1193924508293094
  Basis Set: 6-31G*
  Basis Set:
  Charge       = 0
  Multiplicity = 1
  Basis Set: 6-31G*
  Basis Set:

    Orbital Energies (a.u.)
    -----------------------

    Doubly Occupied:

       1A    -20.563879     2A    -11.328447     3A    -11.235936
       4A    -11.230919     5A    -11.213388     6A    -11.212484
       7A    -11.211491     8A    -11.210994     9A    -11.206980
      10A     -1.403907    11A     -1.095625    12A     -1.063683
      13A     -1.008775    14A     -0.940219    15A     -0.873682
      16A     -0.813234    17A     -0.781054    18A     -0.772933
      19A     -0.680073    20A     -0.657570    21A     -0.628906
      22A     -0.613253    23A     -0.593548    24A     -0.590603
      25A     -0.567554    26A     -0.552498    27A     -0.536926
      28A     -0.513491    29A     -0.505665    30A     -0.495811
      31A     -0.483060    32A     -0.472853    33A     -0.458331
      34A     -0.453382    35A     -0.436760    36A     -0.406163

  @DF-RHF Final Energy:  -387.11939217040384

   => Energetics <=

    Nuclear Repulsion Energy =            442.8837525251042848
    One-Electron Energy =               -1402.3781282871577787
    Two-Electron Energy =                 572.3749835916496522
    DFT Exchange-Correlation Energy =       0.0000000000000000
    Empirical Dispersion Energy =           0.0000000000000000
    PCM Polarization Energy =               0.0000000000000000
    EFP Energy =                            0.0000000000000000
    Total Energy =                       -387.1193921704038985
    Molecular point group: c1
  Basis Set: 6-31G*
  Basis Set:

  -Total Gradient:
     Atom            X                  Y                   Z
    ------   -----------------  -----------------  -----------------
       1        0.000013378601     0.000002971077    -0.000002357417
       2       -0.000731695649     0.000415919226     0.000028149236
       3        0.000424175920    -0.000541834804    -0.000487642089
       4        0.000489066572    -0.000240746078     0.000007639836
       5       -0.000047635925     0.000007905665     0.000010866450
       6       -0.000096377735     0.000280928542     0.000367886560
       7        0.000036517086     0.000056826408     0.000016788492
       8       -0.000042231096     0.000044518465    -0.000009085933
       9       -0.000030472162     0.000016947745     0.000032863076
      10       -0.000017507343     0.000007197392     0.000032373350
      11        0.000015152508    -0.000023742042     0.000016105156
      12       -0.000014451465    -0.000018594637     0.000004503307
      13        0.000006550046     0.000015243787    -0.000030638704
      14       -0.000003693103    -0.000025457765     0.000010355828
      15        0.000033736744     0.000008249907    -0.000017745572
      16       -0.000000345409    -0.000004066483     0.000002815462
      17       -0.000023030979     0.000005620548    -0.000037031707
      18       -0.000014251386    -0.000022466642     0.000005218315
      19        0.000014372685    -0.000004932706     0.000012188534
      20       -0.000002490791     0.000001645146     0.000020424136
      21        0.000002575575     0.000012203510    -0.000012817709
      22       -0.000012236187    -0.000010475590    -0.000007466725
      23        0.000002583418    -0.000009202312     0.000000065015
      24       -0.000009557597     0.000022246642     0.000030649147
      25        0.000007867669     0.000003095000     0.000005893952

  **** Optimization is complete! (in 8 steps) ****
    Final optimized geometry and variables:
    Molecular point group: c1

    Geometry (in Angstrom), charge = 0, multiplicity = 1:

    H           -1.732086690293     0.383202459319     4.100265914979
    C           -1.777836378421     0.312259478871     3.007986665675
    C           -1.172120769180     1.468509121734     2.241192701373
    O           -2.279520163743    -0.639556879962     2.501314159582
    C            0.021902966435     1.066248874814     1.355712248338
    H           -1.955433250652     1.907905721942     1.628761158165
    H           -0.858663770910     2.226131345144     2.952985033476
    C           -0.354103149031     0.275800545223     0.100576572703
    H            0.534307617350     1.978698377972     1.062221026428
    H            0.734457547066     0.497287807352     1.949550882569
    C            0.864666137631    -0.080853742396    -0.753477642224
    H           -1.048918831193     0.867768719497    -0.493081682518
    H           -0.883945996766    -0.627027280257     0.380451939433
    C            0.491038756356    -0.852329784413    -2.022139462395
    H            1.396907204499     0.830581755244    -1.015244885570
    H            1.555685199161    -0.679963515939    -0.161851620823
    C            1.684476782569    -1.314059763297    -2.866181831055
    H           -0.165489781497    -0.238097550455    -2.636560183612
    H           -0.090502706844    -1.726659710542    -1.738309850558
    C            2.501511145608    -0.179321829779    -3.486828658229
    H            1.314651462179    -1.953567829758    -3.663922544013
    H            2.336160007399    -1.936866946683    -2.256659665863
    H            1.872963374714     0.467380469194    -4.093365422387
    H            2.979736213423     0.436924533014    -2.732671677451
    H            3.283909600423    -0.573630564892    -4.128095375462

  Mulliken Charges: (a.u.)
   Center  Symbol    Alpha    Beta     Spin     Total
       1     H     0.42696  0.42696  0.00000  0.14607
       2     C     2.84411  2.84411  0.00000  0.31179
       3     C     3.20423  3.20423  0.00000 -0.40846
       4     O     4.23519  4.23519  0.00000 -0.47038
       5     C     3.15802  3.15802  0.00000 -0.31604
       6     H     0.40055  0.40055  0.00000  0.19891
       7     H     0.41434  0.41434  0.00000  0.17132
       8     C     3.15633  3.15633  0.00000 -0.31267
       9     H     0.41619  0.41619  0.00000  0.16762
      10     H     0.41867  0.41867  0.00000  0.16265
      11     C     3.15528  3.15528  0.00000 -0.31057
      12     H     0.42457  0.42457  0.00000  0.15087
      13     H     0.40055  0.40055  0.00000  0.19889
      14     C     3.15268  3.15268  0.00000 -0.30537
      15     H     0.42353  0.42353  0.00000  0.15294
      16     H     0.42424  0.42424  0.00000  0.15152
      17     C     3.15240  3.15240  0.00000 -0.30481
      18     H     0.42444  0.42444  0.00000  0.15112
      19     H     0.41961  0.41961  0.00000  0.16079
      20     C     3.24104  3.24104  0.00000 -0.48209
      21     H     0.42085  0.42085  0.00000  0.15831
      22     H     0.42343  0.42343  0.00000  0.15313
      23     H     0.42256  0.42256  0.00000  0.15487
      24     H     0.42071  0.42071  0.00000  0.15858
      25     H     0.41950  0.41950  0.00000  0.16099

   Total alpha = 36.00000, Total beta = 36.00000, Total charge = -0.00000
