  ==> Input File <==

--------------------------------------------------------------------------
set {
	reference rhf
	basis 6-31G*
}

set_num_threads( 4 )
memory 2 gb

molecule MOL {
0 1

H	 -2.457190	 2.411625	 0.693980
O	 -1.769060	 1.814193	 0.438135
C	 -2.306886	 0.532354	 0.237577
C	 -1.177863	 -0.397191	 -0.171080
H	 -2.778578	 0.167885	 1.149156
H	 -3.070874	 0.554522	 -0.538419
C	 0.198102	 0.111031	 0.262842
H	 -1.208843	 -0.518759	 -1.250427
H	 -1.368741	 -1.376554	 0.258909
C	 1.331804	 -0.827780	 -0.158768
H	 0.361943	 1.100838	 -0.156218
H	 0.217265	 0.229072	 1.345532
C	 2.723619	 -0.410569	 0.329459
H	 1.342964	 -0.912588	 -1.244120
H	 1.116806	 -1.824343	 0.220779
C	 3.243875	 0.895854	 -0.272975
H	 3.424222	 -1.207124	 0.091250
H	 2.714788	 -0.329854	 1.414619
H	 3.251977	 0.848779	 -1.358681
H	 2.637085	 1.747371	 0.016682
H	 4.259473	 1.094070	 0.055697

	symmetry c1
}
set optking {
	frozen_dihedral = ("
		2 3 4 8
	")
}

ee = optimize('scf')
oeprop('DIPOLE', 'QUADRUPOLE', 'MULLIKEN_CHARGES')
f=open( 'psi4out.xyz', 'w' )
f.write( "21  " )
f.write( str(ee) + "\n" )
f.write( MOL.save_string_xyz() )
f.close()
--------------------------------------------------------------------------

    Molecular point group: c1
  Charge       = 0
  Multiplicity = 1
  Basis Set: 6-31G*
  Basis Set:
  @DF-RHF Final Energy:  -310.20541145544189
    Total Energy =                       -310.2054114554420039
    Molecular point group: c1
  Basis Set: 6-31G*
  Basis Set:
  Basis Set: 6-31G*
  Basis Set:
  @DF-RHF Final Energy:  -310.20605070609668
    Total Energy =                       -310.2060507060967325
  Basis Set: 6-31G*
  Basis Set:
  Basis Set: 6-31G*
  Basis Set:
  @DF-RHF Final Energy:  -310.20707034539470
    Total Energy =                       -310.2070703453946976
  Basis Set: 6-31G*
  Basis Set:
  Basis Set: 6-31G*
  Basis Set:
  @DF-RHF Final Energy:  -310.20710526078312
    Total Energy =                       -310.2071052607831234
  Basis Set: 6-31G*
  Basis Set:
  Basis Set: 6-31G*
  Basis Set:
  @DF-RHF Final Energy:  -310.20711012566665
    Total Energy =                       -310.2071101256667589
  Basis Set: 6-31G*
  Basis Set:
  Basis Set: 6-31G*
  Basis Set:
  @DF-RHF Final Energy:  -310.20712160415195
    Total Energy =                       -310.2071216041522348
  Basis Set: 6-31G*
  Basis Set:
  Basis Set: 6-31G*
  Basis Set:
  @DF-RHF Final Energy:  -310.20711484409213
    Total Energy =                       -310.2071148440923025
  Basis Set: 6-31G*
  Basis Set:
  Charge       = 0
  Multiplicity = 1
  Basis Set: 6-31G*
  Basis Set:

    Orbital Energies (a.u.)
    -----------------------

    Doubly Occupied:

       1A    -20.552654     2A    -11.268785     3A    -11.212715
       4A    -11.209437     5A    -11.207090     6A    -11.203421
       7A    -11.201919     8A     -1.359382     9A     -1.078238
      10A     -1.026441    11A     -0.951314    12A     -0.875067
      13A     -0.799875    14A     -0.771795    15A     -0.697334
      16A     -0.652052    17A     -0.618410    18A     -0.601629
      19A     -0.584116    20A     -0.561093    21A     -0.534491
      22A     -0.519258    23A     -0.496428    24A     -0.492814
      25A     -0.479810    26A     -0.456459    27A     -0.447078
      28A     -0.436543    29A     -0.425404

  @DF-RHF Final Energy:  -310.20712236889420

   => Energetics <=

    Nuclear Repulsion Energy =            318.1467466750672770
    One-Electron Energy =               -1051.2656305492694173
    Two-Electron Energy =                 422.9117615053080499
    DFT Exchange-Correlation Energy =       0.0000000000000000
    Empirical Dispersion Energy =           0.0000000000000000
    PCM Polarization Energy =               0.0000000000000000
    EFP Energy =                            0.0000000000000000
    Total Energy =                       -310.2071223688940336
    Molecular point group: c1
  Basis Set: 6-31G*
  Basis Set:

  -Total Gradient:
     Atom            X                  Y                   Z
    ------   -----------------  -----------------  -----------------
       1        0.000004924026    -0.000003508149     0.000000097194
       2        0.000966277655    -0.001036187079     0.004554916147
       3       -0.002101825766     0.000161505569    -0.005839138965
       4        0.004598862432     0.005941380934     0.000575243968
       5       -0.000002474364    -0.000011172561    -0.000005169690
       6       -0.000001851249    -0.000003129698     0.000000300623
       7       -0.000006496493    -0.000001526879     0.000002918302
       8       -0.003470155903    -0.005044741665     0.000709451596
       9       -0.000000388484    -0.000004478548     0.000000680102
      10        0.000012918282    -0.000000739999     0.000001001962
      11        0.000002527126    -0.000000257069     0.000000948364
      12        0.000003181219     0.000001043821    -0.000000534188
      13       -0.000001290841    -0.000002019863    -0.000002539828
      14       -0.000000351820     0.000002004075     0.000001202567
      15        0.000000069265     0.000001719003     0.000000608561
      16       -0.000000271491    -0.000000720268    -0.000000358821
      17       -0.000002260325    -0.000001119752    -0.000000189324
      18        0.000000134427     0.000000317572     0.000000643561
      19        0.000000601561     0.000000464385     0.000000017551
      20       -0.000002291693     0.000000803385    -0.000000853574
      21        0.000000162440     0.000000362784     0.000000753891

  **** Optimization is complete! (in 8 steps) ****
    Final optimized geometry and variables:
    Molecular point group: c1

    Geometry (in Angstrom), charge = 0, multiplicity = 1:

    H           -2.915867508231     2.082769396613     0.612732021671
    O           -2.174306034556     1.553842997241     0.355571614870
    C           -2.598628961010     0.229901511546     0.145821763050
    C           -1.418456493653    -0.643433605152    -0.302127758433
    H           -3.006787522034    -0.165222619378     1.074356656394
    H           -3.392012925299     0.192279868829    -0.596887823315
    C           -0.042133388440    -0.157090762868     0.152223517012
    H           -1.445477933305    -0.777152819185    -1.380738825551
    H           -1.588525609946    -1.641482889373     0.098222214606
    C            1.070658812533    -1.126422067878    -0.255565927794
    H            0.141024844149     0.826567569729    -0.260255933353
    H           -0.041101434406    -0.039185146146     1.233618908725
    C            2.468869415013    -0.730603583735     0.233220014424
    H            1.086592950695    -1.223568326256    -1.340418380995
    H            0.837772500229    -2.116111112322     0.133150636621
    C            3.016824898971     0.556614896133    -0.385679990990
    H            3.155275741830    -1.544191283202     0.010600644908
    H            2.455917909979    -0.633040635995     1.316935947979
    H            3.032157571231     0.491587737992    -1.470473204337
    H            2.422304315420     1.422331254515    -0.114608803944
    H            4.033591610312     0.741879720850    -0.052509707057

  Mulliken Charges: (a.u.)
   Center  Symbol    Alpha    Beta     Spin     Total
       1     H     0.28058  0.28058  0.00000  0.43884
       2     O     4.37075  4.37075  0.00000 -0.74151
       3     C     2.99168  2.99168  0.00000  0.01665
       4     C     3.17197  3.17197  0.00000 -0.34394
       5     H     0.43173  0.43173  0.00000  0.13654
       6     H     0.42928  0.42928  0.00000  0.14144
       7     C     3.14801  3.14801  0.00000 -0.29601
       8     H     0.41928  0.41928  0.00000  0.16143
       9     H     0.42291  0.42291  0.00000  0.15418
      10     C     3.15404  3.15404  0.00000 -0.30808
      11     H     0.40648  0.40648  0.00000  0.18705
      12     H     0.42218  0.42218  0.00000  0.15564
      13     C     3.15150  3.15150  0.00000 -0.30301
      14     H     0.42557  0.42557  0.00000  0.14886
      15     H     0.42495  0.42495  0.00000  0.15011
      16     C     3.24136  3.24136  0.00000 -0.48272
      17     H     0.42265  0.42265  0.00000  0.15469
      18     H     0.42375  0.42375  0.00000  0.15250
      19     H     0.42311  0.42311  0.00000  0.15377
      20     H     0.41744  0.41744  0.00000  0.16512
      21     H     0.42078  0.42078  0.00000  0.15845

   Total alpha = 29.00000, Total beta = 29.00000, Total charge =  0.00000
