  ==> Input File <==

--------------------------------------------------------------------------
set {
	reference rhf
	basis 6-31G*
}

set_num_threads( 1 )
memory 2 gb

molecule MOL {
0 1

O	 1.214711	 1.306902	 -0.000018
C	 1.122059	 0.121804	 -0.000188
C	 -0.170150	 -0.657997	 -0.000612
O	 2.172624	 -0.688929	 0.000216
C	 -1.412532	 0.227344	 -0.000452
H	 -0.153702	 -1.313099	 -0.867402
H	 -0.153924	 -1.313811	 0.865644
C	 -2.254808	 0.046975	 1.263432
H	 -2.012113	 0.003662	 -0.877364
H	 -1.112355	 1.266081	 -0.097527
C	 -3.500956	 0.931304	 1.272450
H	 -2.552225	 -0.995618	 1.356278
H	 -1.648521	 0.269834	 2.139115
H	 -4.145295	 0.708378	 0.427001
H	 -4.080230	 0.784036	 2.178557
H	 -3.235114	 1.982869	 1.216059
C	 3.452279	 -0.082609	 0.000533
H	 3.583069	 0.529321	 -0.880332
H	 4.163299	 -0.894027	 0.001117
H	 3.582335	 0.529955	 0.881077

	symmetry c1
}
set optking {
	frozen_dihedral = ("
		9 5 8 12,
		1 2 3 6,
		1 2 4 17
	")
}

ee = energy('scf')
oeprop('DIPOLE', 'QUADRUPOLE', 'MULLIKEN_CHARGES')
f=open( 'psi4out.xyz', 'w' )
f.write( "20  " )
f.write( str(ee) + "\n" )
f.write( MOL.save_string_xyz() )
f.close()
--------------------------------------------------------------------------

    Molecular point group: c1

    Geometry (in Angstrom), charge = 0, multiplicity = 1:

       Center              X                  Y                   Z               Mass
    ------------   -----------------  -----------------  -----------------  -----------------
           O          1.101126585247     1.147568331506    -0.317176780225    15.994914619560
           C          1.008474585247    -0.037529668494    -0.317346780225    12.000000000000
           C         -0.283734414753    -0.817330668494    -0.317770780225    12.000000000000
           O          2.059039585247    -0.848262668494    -0.316942780225    15.994914619560
           C         -1.526116414753     0.068010331506    -0.317610780225    12.000000000000
           H         -0.267286414753    -1.472432668494    -1.184560780225     1.007825032070
           H         -0.267508414753    -1.473144668494     0.548485219775     1.007825032070
           C         -2.368392414753    -0.112358668494     0.946273219775    12.000000000000
           H         -2.125697414753    -0.155671668494    -1.194522780225     1.007825032070
           H         -1.225939414753     1.106747331506    -0.414685780225     1.007825032070
           C         -3.614540414753     0.771970331506     0.955291219775    12.000000000000
           H         -2.665809414753    -1.154951668494     1.039119219775     1.007825032070
           H         -1.762105414753     0.110500331506     1.821956219775     1.007825032070
           H         -4.258879414753     0.549044331506     0.109842219775     1.007825032070
           H         -4.193814414753     0.624702331506     1.861398219775     1.007825032070
           H         -3.348698414753     1.823535331506     0.898900219775     1.007825032070
           C          3.338694585247    -0.241942668494    -0.316625780225    12.000000000000
           H          3.469484585247     0.369987331506    -1.197490780225     1.007825032070
           H          4.049714585247    -1.053360668494    -0.316041780225     1.007825032070
           H          3.468750585247     0.370621331506     0.563918219775     1.007825032070

  Charge       = 0
  Multiplicity = 1
  Basis Set: 6-31G*
  Basis Set:

    Orbital Energies (a.u.)
    -----------------------

    Doubly Occupied:

       1A    -20.604528     2A    -20.546620     3A    -11.373161
       4A    -11.281351     5A    -11.234153     6A    -11.218110
       7A    -11.215027     8A    -11.208277     9A     -1.470276
      10A     -1.364125    11A     -1.087410    12A     -1.022971
      13A     -0.968860    14A     -0.884255    15A     -0.804872
      16A     -0.766845    17A     -0.703392    18A     -0.681167
      19A     -0.673305    20A     -0.633672    21A     -0.604849
      22A     -0.590702    23A     -0.578693    24A     -0.545571
      25A     -0.529027    26A     -0.517453    27A     -0.507906
      28A     -0.478349    29A     -0.466589    30A     -0.461969
      31A     -0.457694    32A     -0.440380

  @DF-RHF Final Energy:  -383.93679715356433

   => Energetics <=

    Nuclear Repulsion Energy =            384.1586691957375592
    One-Electron Energy =               -1284.3479283587798818
    Two-Electron Energy =                 516.2524620094773127
    DFT Exchange-Correlation Energy =       0.0000000000000000
    Empirical Dispersion Energy =           0.0000000000000000
    PCM Polarization Energy =               0.0000000000000000
    EFP Energy =                            0.0000000000000000
    Total Energy =                       -383.9367971535650668

  Mulliken Charges: (a.u.)
   Center  Symbol    Alpha    Beta     Spin     Total
       1     O     4.28467  4.28467  0.00000 -0.56933
       2     C     2.61105  2.61105  0.00000  0.77790
       3     C     3.21083  3.21083  0.00000 -0.42167
       4     O     4.30575  4.30575  0.00000 -0.61151
       5     C     3.16178  3.16178  0.00000 -0.32355
       6     H     0.39730  0.39730  0.00000  0.20540
       7     H     0.39770  0.39770  0.00000  0.20459
       8     C     3.15584  3.15584  0.00000 -0.31168
       9     H     0.41962  0.41962  0.00000  0.16076
      10     H     0.39289  0.39289  0.00000  0.21422
      11     C     3.24046  3.24046  0.00000 -0.48092
      12     H     0.42370  0.42370  0.00000  0.15261
      13     H     0.42042  0.42042  0.00000  0.15917
      14     H     0.42177  0.42177  0.00000  0.15646
      15     H     0.41920  0.41920  0.00000  0.16159
      16     H     0.41837  0.41837  0.00000  0.16326
      17     C     3.09228  3.09228  0.00000 -0.18456
      18     H     0.40898  0.40898  0.00000  0.18205
      19     H     0.40836  0.40836  0.00000  0.18328
      20     H     0.40903  0.40903  0.00000  0.18194

   Total alpha = 32.00000, Total beta = 32.00000, Total charge = -0.00000
