  ==> Input File <==

--------------------------------------------------------------------------
set {
	reference rhf
	basis 6-31G*
}

set_num_threads( 4 )
memory 2 gb

molecule MOL {
0 1

H	 -3.892951	 0.981613	 -0.358725
C	 -3.196921	 0.361773	 0.172313
C	 -2.076860	 -0.007332	 -0.404944
H	 -3.439953	 0.057760	 1.173024
O	 -1.180634	 -0.819263	 0.215062
H	 -1.811520	 0.292194	 -1.403480
C	 0.051604	 -1.018856	 -0.387932
C	 1.043764	 0.054862	 -0.001873
H	 -0.017620	 -1.041351	 -1.469781
H	 0.437898	 -1.966374	 -0.042284
F	 0.843170	 0.407416	 1.259584
F	 2.292125	 -0.369995	 -0.106384
F	 0.922325	 1.132671	 -0.748847

	symmetry c1
}
set optking {
	frozen_dihedral = ("
		11 8 7 9
	")
}

ee = optimize('scf')
oeprop('DIPOLE', 'QUADRUPOLE', 'MULLIKEN_CHARGES')
f=open( 'psi4out.xyz', 'w' )
f.write( "13  " )
f.write( str(ee) + "\n" )
f.write( MOL.save_string_xyz() )
f.close()
--------------------------------------------------------------------------

    Molecular point group: c1
  Charge       = 0
  Multiplicity = 1
  Basis Set: 6-31G*
  Basis Set:
  @DF-RHF Final Energy:  -527.53296361303751
    Total Energy =                       -527.5329636130376230
    Molecular point group: c1
  Basis Set: 6-31G*
  Basis Set:
  Basis Set: 6-31G*
  Basis Set:
  @DF-RHF Final Energy:  -527.53370406756039
    Total Energy =                       -527.5337040675603930
  Basis Set: 6-31G*
  Basis Set:
  Basis Set: 6-31G*
  Basis Set:
  @DF-RHF Final Energy:  -527.53391670441829
    Total Energy =                       -527.5339167044182886
  Basis Set: 6-31G*
  Basis Set:
  Basis Set: 6-31G*
  Basis Set:
  @DF-RHF Final Energy:  -527.53395118247090
    Total Energy =                       -527.5339511824705596
  Basis Set: 6-31G*
  Basis Set:
  @DF-RHF Final Energy:  -527.53396309404934
    Total Energy =                       -527.5339630940491134
  Basis Set: 6-31G*
  Basis Set:
  @DF-RHF Final Energy:  -527.53397056528274
    Total Energy =                       -527.5339705652829707
  Basis Set: 6-31G*
  Basis Set:
  Basis Set: 6-31G*
  Basis Set:
  @DF-RHF Final Energy:  -527.53397777996929
    Total Energy =                       -527.5339777799694048
  Basis Set: 6-31G*
  Basis Set:
  Basis Set: 6-31G*
  Basis Set:
  @DF-RHF Final Energy:  -527.53398092226985
    Total Energy =                       -527.5339809222698477
  Basis Set: 6-31G*
  Basis Set:
  Charge       = 0
  Multiplicity = 1
  Basis Set: 6-31G*
  Basis Set:

    Orbital Energies (a.u.)
    -----------------------

    Doubly Occupied:

       1A    -26.345130     2A    -26.340881     3A    -26.340433
       4A    -20.606879     5A    -11.503142     6A    -11.318590
       7A    -11.298502     8A    -11.216897     9A     -1.741262
      10A     -1.640440    11A     -1.636112    12A     -1.436989
      13A     -1.081916    14A     -1.016164    15A     -0.924817
      16A     -0.835116    17A     -0.830495    18A     -0.820683
      19A     -0.792585    20A     -0.718966    21A     -0.711006
      22A     -0.694966    23A     -0.675113    24A     -0.661632
      25A     -0.653895    26A     -0.642103    27A     -0.633966
      28A     -0.584627    29A     -0.563412    30A     -0.522612
      31A     -0.510597    32A     -0.352965

  @DF-RHF Final Energy:  -527.53398196165790

   => Energetics <=

    Nuclear Repulsion Energy =            414.6339453150691270
    One-Electron Energy =               -1553.0300712864791421
    Two-Electron Energy =                 610.8621440097523418
    DFT Exchange-Correlation Energy =       0.0000000000000000
    Empirical Dispersion Energy =           0.0000000000000000
    PCM Polarization Energy =               0.0000000000000000
    EFP Energy =                            0.0000000000000000
    Total Energy =                       -527.5339819616577870
    Molecular point group: c1
  Basis Set: 6-31G*
  Basis Set:

  -Total Gradient:
     Atom            X                  Y                   Z
    ------   -----------------  -----------------  -----------------
       1       -0.000002214877     0.000000950948     0.000001412801
       2       -0.000004981036     0.000005254620    -0.000004865111
       3       -0.000002420219     0.000008197199     0.000006534911
       4        0.000002549437    -0.000002057769    -0.000001568131
       5       -0.000001052659    -0.000021259529    -0.000007957783
       6        0.000001249973    -0.000001141743    -0.000000317314
       7        0.003380807004    -0.002639690922    -0.000576131279
       8        0.002832262300    -0.002836158016     0.001329582478
       9       -0.003483517416     0.002849145211     0.000175822625
      10       -0.000020960857     0.000022682750     0.000011488361
      11       -0.002599364958     0.002631668982    -0.001046046833
      12       -0.000073727716     0.000024349028     0.000031747135
      13       -0.000028628963    -0.000041940757     0.000080298138

  **** Optimization is complete! (in 9 steps) ****
    Final optimized geometry and variables:
    Molecular point group: c1

    Geometry (in Angstrom), charge = 0, multiplicity = 1:

    H           -3.782042359359     1.051414369786    -0.348378658052
    C           -3.103958543058     0.398246686438     0.165823602752
    C           -2.032729679916    -0.048860478530    -0.447700451079
    H           -3.326624620602     0.121650544954     1.179208148136
    O           -1.171700783208    -0.918516036103     0.143773660663
    H           -1.786860260736     0.221666390461    -1.460121477274
    C            0.093809386436    -1.053853017934    -0.409692198825
    C            1.024942553935     0.066779494772     0.019831619677
    H            0.044813811026    -1.045784567140    -1.492890818238
    H            0.500722494166    -1.990991977345    -0.063126776018
    F            0.838778141938     0.418777779289     1.272824494587
    F            2.284914794736    -0.307544672302    -0.131637848276
    F            0.843578331969     1.151963982273    -0.722013976484

  Mulliken Charges: (a.u.)
   Center  Symbol    Alpha    Beta     Spin     Total
       1     H     0.40688  0.40688  0.00000  0.18624
       2     C     3.23208  3.23208  0.00000 -0.46416
       3     C     2.90082  2.90082  0.00000  0.19836
       4     H     0.40133  0.40133  0.00000  0.19734
       5     O     4.29974  4.29974  0.00000 -0.59948
       6     H     0.40660  0.40660  0.00000  0.18680
       7     C     3.06687  3.06687  0.00000 -0.13374
       8     C     2.45493  2.45493  0.00000  1.09014
       9     H     0.40453  0.40453  0.00000  0.19094
      10     H     0.38891  0.38891  0.00000  0.22218
      11     F     4.67261  4.67261  0.00000 -0.34523
      12     F     4.68188  4.68188  0.00000 -0.36376
      13     F     4.68282  4.68282  0.00000 -0.36565

   Total alpha = 32.00000, Total beta = 32.00000, Total charge = -0.00000
