                              Psi4 1.0.54 Driver

  ==> Input File <==

--------------------------------------------------------------------------
set {
	reference rhf
	basis cc-pvtz
}

set_num_threads( 4 )
memory 2 gb

molecule MOL {
0 1

H	 3.294979	 -0.422341	 0.030618
C	 2.236783	 -0.243085	 0.023353
C	 1.434462	 -0.891881	 -0.903295
C	 1.682527	 0.631637	 0.936139
H	 1.872575	 -1.570239	 -1.609469
C	 0.076505	 -0.664741	 -0.916017
H	 2.305564	 1.131984	 1.651648
C	 0.318561	 0.858729	 0.922126
H	 -0.560013	 -1.156548	 -1.624273
C	 -0.486398	 0.214248	 0.000000
H	 -0.119458	 1.538226	 1.629656
C	 -1.946525	 0.470130	 0.000000
O	 -2.779618	 -0.371226	 0.000000
H	 -2.227127	 1.528393	 0.000000

	symmetry c1
}
set optking {
	frozen_dihedral = ("
		8 10 12 14
	")
}

ee,wfn = optimize('scf', return_wfn=True)
oeprop( wfn, 'DIPOLE', 'QUADRUPOLE', 'MULLIKEN_CHARGES')
f=open( 'psi4out.xyz', 'w' )
f.write( "14  " )
f.write( str(ee) + "\n" )
f.write( MOL.save_string_xyz() )
f.close()
--------------------------------------------------------------------------

    Molecular point group: c1
  Charge       = 0
  Multiplicity = 1
  Basis Set: CC-PVTZ
  Basis Set:
  @DF-RHF Final Energy:  -343.54250746057465
    Total Energy =                       -343.5425074605746545
    Molecular point group: c1
  Basis Set: CC-PVTZ
  Basis Set:
  Basis Set: CC-PVTZ
  Basis Set:
  @DF-RHF Final Energy:  -343.54024475581957
    Total Energy =                       -343.5402447558194012
  Basis Set: CC-PVTZ
  Basis Set:
  Basis Set: CC-PVTZ
  Basis Set:
  @DF-RHF Final Energy:  -343.54273120981134
    Total Energy =                       -343.5427312098115067
  Basis Set: CC-PVTZ
  Basis Set:
  Basis Set: CC-PVTZ
  Basis Set:
  @DF-RHF Final Energy:  -343.54330367240874
    Total Energy =                       -343.5433036724086264
  Basis Set: CC-PVTZ
  Basis Set:
  Basis Set: CC-PVTZ
  Basis Set:
  @DF-RHF Final Energy:  -343.54331621633446
    Total Energy =                       -343.5433162163347447
  Basis Set: CC-PVTZ
  Basis Set:
  Charge       = 0
  Multiplicity = 1
  Basis Set: CC-PVTZ
  Basis Set:

    Orbital Energies (a.u.)
    -----------------------

    Doubly Occupied:

       1A    -20.558300     2A    -11.329773     3A    -11.249763
       4A    -11.247933     5A    -11.245758     6A    -11.245261
       7A    -11.242864     8A    -11.241454     9A     -1.413361
      10A     -1.175628    11A     -1.050047    12A     -1.034525
      13A     -0.891294    14A     -0.846416    15A     -0.796471
      16A     -0.725544    17A     -0.681207    18A     -0.657180
      19A     -0.634940    20A     -0.621528    21A     -0.605220
      22A     -0.549586    23A     -0.530592    24A     -0.512653
      25A     -0.507601    26A     -0.426394    27A     -0.353433
      28A     -0.351749

  @DF-RHF Final Energy:  -343.54331827159302

   => Energetics <=

    Nuclear Repulsion Energy =            323.8275539427780245
    One-Electron Energy =               -1107.2887963085945557
    Two-Electron Energy =                 439.9179240942236788
    DFT Exchange-Correlation Energy =       0.0000000000000000
    Empirical Dispersion Energy =           0.0000000000000000
    PCM Polarization Energy =               0.0000000000000000
    EFP Energy =                            0.0000000000000000
    Total Energy =                       -343.5433182715929092
    Molecular point group: c1
  Basis Set: CC-PVTZ
  Basis Set:

  -Total Gradient:
     Atom            X                  Y                   Z
    ------   -----------------  -----------------  -----------------
       1       -0.000004093377    -0.000018288095     0.000000865100
       2        0.000010724717     0.000076804062     0.000052565134
       3       -0.000086022073     0.000016955676    -0.000077849177
       4        0.000066945939    -0.000058258944    -0.000011316625
       5        0.000009878437    -0.000006852543     0.000005389810
       6        0.000088395188    -0.000115601450     0.000008145011
       7       -0.000005871166     0.000009873101    -0.000002061329
       8       -0.000649348255    -0.004591689234     0.003544982548
       9        0.000000766889     0.000027205882    -0.000005979878
      10        0.000740086665     0.006851315508    -0.007415773857
      11        0.000000909239     0.000004722783    -0.000005940558
      12       -0.000074101373    -0.002475854801     0.011003644799
      13        0.000013984185    -0.000033977416    -0.000002966943
      14       -0.000112255021     0.000313645470    -0.007093704035

  **** Optimization is complete! (in 6 steps) ****
    Final optimized geometry and variables:
    Molecular point group: c1

    Geometry (in Angstrom), charge = 0, multiplicity = 1:

    H            3.287323191073    -0.448476708109     0.045670099439
    C            2.232178845883    -0.253015168243     0.031547011733
    C            1.425179077752    -0.888181820638    -0.896605421635
    C            1.682272801462     0.627501443259     0.943016777255
    H            1.854164132414    -1.575852189412    -1.599588341366
    C            0.066464969739    -0.649790672273    -0.907994247597
    H            2.305501740061     1.109444000090     1.671175027274
    C            0.325168687317     0.887040710295     0.914097956302
    H           -0.572201615583    -1.159434415189    -1.602390678852
    C           -0.483280936110     0.258213406682    -0.016589157648
    H           -0.102902021821     1.578828095593     1.616207860427
    C           -1.957861854569     0.469220796779     0.019887591063
    O           -2.751017421176    -0.402453910067    -0.078097757174
    H           -2.286156726124     1.512881683491     0.068207493555

  Mulliken Charges: (a.u.)
   Center  Symbol    Alpha    Beta     Spin     Total
       1     H     0.42024  0.42024  0.00000  0.15951
       2     C     3.07643  3.07643  0.00000 -0.15285
       3     C     3.06636  3.06636  0.00000 -0.13271
       4     C     3.06989  3.06989  0.00000 -0.13978
       5     H     0.42047  0.42047  0.00000  0.15905
       6     C     3.08798  3.08798  0.00000 -0.17596
       7     H     0.42076  0.42076  0.00000  0.15847
       8     C     3.09225  3.09225  0.00000 -0.18449
       9     H     0.41418  0.41418  0.00000  0.17163
      10     C     2.96217  2.96217  0.00000  0.07566
      11     H     0.42376  0.42376  0.00000  0.15248
      12     C     2.92641  2.92641  0.00000  0.14719
      13     O     4.16338  4.16338  0.00000 -0.32677
      14     H     0.45572  0.45572  0.00000  0.08857

   Total alpha = 28.00000, Total beta = 28.00000, Total charge = -0.00000

*** Psi4 exiting successfully. Buy a developer a beer!
