  ==> Input File <==

--------------------------------------------------------------------------
set {
	reference rhf
	basis 6-31G*
}

set_num_threads( 1 )
memory 2 gb

molecule MOL {
0 1

H	 -3.892951	 0.981613	 -0.358725
C	 -3.196921	 0.361773	 0.172313
C	 -2.076860	 -0.007332	 -0.404944
H	 -3.439953	 0.057760	 1.173024
O	 -1.583407	 -1.267384	 -0.279911
H	 -1.496211	 0.654312	 -1.023224
C	 -0.313199	 -1.527019	 -0.770840
C	 0.756502	 -1.210603	 0.249902
H	 -0.096662	 -0.964601	 -1.672223
H	 -0.255746	 -2.582088	 -0.994479
F	 1.946214	 -1.509169	 -0.251348
F	 0.765928	 0.073092	 0.569067
F	 0.599598	 -1.899738	 1.361146

	symmetry c1
}
set optking {
	frozen_dihedral = ("
		11 8 7 9,
		3 5 7 9,
		6 3 5 7
	")
}

ee = energy('scf')
oeprop('DIPOLE', 'QUADRUPOLE', 'MULLIKEN_CHARGES')
f=open( 'psi4out.xyz', 'w' )
f.write( "13  " )
f.write( str(ee) + "\n" )
f.write( MOL.save_string_xyz() )
f.close()
--------------------------------------------------------------------------

    Molecular point group: c1

    Geometry (in Angstrom), charge = 0, multiplicity = 1:

       Center              X                  Y                   Z               Mass
    ------------   -----------------  -----------------  -----------------  -----------------
           H         -3.657864361615     1.887057836281    -0.481534941949     1.007825032070
           C         -2.961834361615     1.267217836281     0.049503058051    12.000000000000
           C         -1.841773361615     0.898112836281    -0.527753941949    12.000000000000
           H         -3.204866361615     0.963204836281     1.050214058051     1.007825032070
           O         -1.348320361615    -0.361939163719    -0.402720941949    15.994914619560
           H         -1.261124361615     1.559756836281    -1.146033941949     1.007825032070
           C         -0.078112361615    -0.621574163719    -0.893649941949    12.000000000000
           C          0.991588638385    -0.305158163719     0.127092058051    12.000000000000
           H          0.138424638385    -0.059156163719    -1.795032941949     1.007825032070
           H         -0.020659361615    -1.676643163719    -1.117288941949     1.007825032070
           F          2.181300638385    -0.603724163719    -0.374157941949    18.998403224000
           F          1.001014638385     0.978536836281     0.446257058051    18.998403224000
           F          0.834684638385    -0.994293163719     1.238336058051    18.998403224000

  Charge       = 0
  Multiplicity = 1
  Basis Set: 6-31G*
  Basis Set:

    Orbital Energies (a.u.)
    -----------------------

    Doubly Occupied:

       1A    -26.346630     2A    -26.345792     3A    -26.342455
       4A    -20.614503     5A    -11.504949     6A    -11.319401
       7A    -11.305987     8A    -11.210526     9A     -1.743722
      10A     -1.641844    11A     -1.640252    12A     -1.442323
      13A     -1.085707    14A     -1.017290    15A     -0.927073
      16A     -0.838457    17A     -0.832994    18A     -0.822715
      19A     -0.793357    20A     -0.722849    21A     -0.713061
      22A     -0.696366    23A     -0.677019    24A     -0.662230
      25A     -0.656500    26A     -0.645102    27A     -0.638843
      28A     -0.584242    29A     -0.574966    30A     -0.524599
      31A     -0.509786    32A     -0.329660

  @DF-RHF Final Energy:  -527.50149716120893

   => Energetics <=

    Nuclear Repulsion Energy =            413.5311168006209073
    One-Electron Energy =               -1550.6429084544131456
    Two-Electron Energy =                 609.6102944925821703
    DFT Exchange-Correlation Energy =       0.0000000000000000
    Empirical Dispersion Energy =           0.0000000000000000
    PCM Polarization Energy =               0.0000000000000000
    EFP Energy =                            0.0000000000000000
    Total Energy =                       -527.5014971612101817

  Mulliken Charges: (a.u.)
   Center  Symbol    Alpha    Beta     Spin     Total
       1     H     0.40538  0.40538  0.00000  0.18924
       2     C     3.24590  3.24590  0.00000 -0.49179
       3     C     2.89630  2.89630  0.00000  0.20739
       4     H     0.40245  0.40245  0.00000  0.19510
       5     O     4.29025  4.29025  0.00000 -0.58049
       6     H     0.40707  0.40707  0.00000  0.18586
       7     C     3.06569  3.06569  0.00000 -0.13138
       8     C     2.45643  2.45643  0.00000  1.08715
       9     H     0.40485  0.40485  0.00000  0.19029
      10     H     0.38890  0.38890  0.00000  0.22219
      11     F     4.68262  4.68262  0.00000 -0.36525
      12     F     4.67983  4.67983  0.00000 -0.35965
      13     F     4.67433  4.67433  0.00000 -0.34866

   Total alpha = 32.00000, Total beta = 32.00000, Total charge = -0.00000
