                              Psi4 1.0.54 Driver

  ==> Input File <==

--------------------------------------------------------------------------
set {
	reference rhf
	basis cc-pvtz
}

set_num_threads( 4 )
memory 2 gb

molecule MOL {
0 1

H	 -3.436473	 1.252944	 -1.023892
O	 -3.458596	 0.315260	 -0.960865
C	 -3.176635	 -0.080824	 0.355601
C	 -1.763371	 0.265266	 0.799691
H	 -3.321825	 -1.153438	 0.379502
H	 -3.895468	 0.357385	 1.043382
C	 -0.673390	 -0.426948	 -0.013392
H	 -1.631049	 1.344913	 0.747560
H	 -1.664587	 -0.001624	 1.849167
C	 0.737842	 -0.043159	 0.423759
H	 -0.806103	 -0.190518	 -1.063345
H	 -0.797221	 -1.503753	 0.074146
C	 1.824000	 -0.743224	 -0.390623
H	 0.850588	 1.033777	 0.343840
H	 0.868587	 -0.286314	 1.476203
C	 2.569896	 -1.853654	 0.351288
H	 2.540516	 -0.004423	 -0.742228
H	 1.369283	 -1.169724	 -1.280539
C	 3.423303	 -1.376307	 1.523883
H	 3.211077	 -2.368746	 -0.357473
H	 1.854683	 -2.592346	 0.703745
H	 4.144566	 -0.631661	 1.202388
H	 3.974556	 -2.201998	 1.959310
H	 2.822447	 -0.936358	 2.310663

	symmetry c1
}
set optking {
	frozen_dihedral = ("
		17 13 10 7
	")
}

ee,wfn = optimize('scf', return_wfn=True)
oeprop( wfn, 'DIPOLE', 'QUADRUPOLE', 'MULLIKEN_CHARGES')
f=open( 'psi4out.xyz', 'w' )
f.write( "24  " )
f.write( str(ee) + "\n" )
f.write( MOL.save_string_xyz() )
f.close()
--------------------------------------------------------------------------

    Molecular point group: c1
  Charge       = 0
  Multiplicity = 1
  Basis Set: CC-PVTZ
  Basis Set:
  @DF-RHF Final Energy:  -349.37519459128316
    Total Energy =                       -349.3751945912835026
    Molecular point group: c1
  Basis Set: CC-PVTZ
  Basis Set:
  Basis Set: CC-PVTZ
  Basis Set:
  @DF-RHF Final Energy:  -349.37504284515666
    Total Energy =                       -349.3750428451562584
  Basis Set: CC-PVTZ
  Basis Set:
  Basis Set: CC-PVTZ
  Basis Set:
  @DF-RHF Final Energy:  -349.37564517513619
    Total Energy =                       -349.3756451751366399
  Basis Set: CC-PVTZ
  Basis Set:
  Basis Set: CC-PVTZ
  Basis Set:
  @DF-RHF Final Energy:  -349.37561467485375
    Total Energy =                       -349.3756146748536366
  Basis Set: CC-PVTZ
  Basis Set:
  Basis Set: CC-PVTZ
  Basis Set:
  @DF-RHF Final Energy:  -349.37570608931730
    Total Energy =                       -349.3757060893173616
  Basis Set: CC-PVTZ
  Basis Set:
  Charge       = 0
  Multiplicity = 1
  Basis Set: CC-PVTZ
  Basis Set:

    Orbital Energies (a.u.)
    -----------------------

    Doubly Occupied:

       1A    -20.546356     2A    -11.265660     3A    -11.215089
       4A    -11.212485     5A    -11.210259     6A    -11.209402
       7A    -11.209064     8A    -11.205322     9A     -1.364197
      10A     -1.088741    11A     -1.048896    12A     -0.985625
      13A     -0.915404    14A     -0.851761    15A     -0.805270
      16A     -0.773978    17A     -0.682787    18A     -0.651860
      19A     -0.626501    20A     -0.617498    21A     -0.603761
      22A     -0.584181    23A     -0.555667    24A     -0.544617
      25A     -0.519342    26A     -0.506174    27A     -0.498760
      28A     -0.477777    29A     -0.468380    30A     -0.460969
      31A     -0.452550    32A     -0.447377    33A     -0.421798

  @DF-RHF Final Energy:  -349.37570592629294

   => Energetics <=

    Nuclear Repulsion Energy =            386.1063717899531298
    One-Electron Energy =               -1238.9091340556274190
    Two-Electron Energy =                 503.4270563393813518
    DFT Exchange-Correlation Energy =       0.0000000000000000
    Empirical Dispersion Energy =           0.0000000000000000
    PCM Polarization Energy =               0.0000000000000000
    EFP Energy =                            0.0000000000000000
    Total Energy =                       -349.3757059262929943
    Molecular point group: c1
  Basis Set: CC-PVTZ
  Basis Set:

  -Total Gradient:
     Atom            X                  Y                   Z
    ------   -----------------  -----------------  -----------------
       1       -0.000000200334     0.000027342548    -0.000005062140
       2        0.000006454180    -0.000013352060    -0.000022874976
       3       -0.000003910165    -0.000020152922     0.000021260634
       4        0.000009765302    -0.000038777818     0.000046357850
       5       -0.000007623153    -0.000021310447    -0.000000649058
       6       -0.000016339848     0.000004945901     0.000018412080
       7        0.000054878161     0.001107437930    -0.000935708785
       8        0.000003037999     0.000005024201    -0.000020001714
       9       -0.000013285866     0.000007499029     0.000049944968
      10       -0.000252017133    -0.001360380878     0.000773712542
      11       -0.000005008156     0.000047497017    -0.000029376093
      12       -0.000001768740    -0.000033855104    -0.000016242569
      13        0.001215090672    -0.000017080090     0.001714535805
      14       -0.000002637085     0.000026362974    -0.000025094461
      15        0.000025624687    -0.000010644309     0.000027987414
      16        0.000009126714    -0.000038479315    -0.000000134073
      17       -0.000987975573     0.000297841409    -0.001579508295
      18       -0.000027030574    -0.000001093156    -0.000003506947
      19        0.000011304362    -0.000014317801     0.000000812659
      20        0.000028533278    -0.000042961942    -0.000045128272
      21       -0.000048547836    -0.000008196086    -0.000020175744
      22        0.000059188894     0.000055668866    -0.000017088505
      23        0.000007846498    -0.000015834024    -0.000013430006
      24       -0.000064506285     0.000056816075     0.000080957686

  **** Optimization is complete! (in 6 steps) ****
    Final optimized geometry and variables:
    Molecular point group: c1

    Geometry (in Angstrom), charge = 0, multiplicity = 1:

    H           -3.305998183593     1.804915959073    -1.231367928810
    O           -3.332933438482     0.865379331971    -1.214782316963
    C           -3.067895906359     0.403871108198     0.083716055859
    C           -1.658171179903     0.720914317762     0.560040410591
    H           -3.217967112321    -0.667934050315     0.052870966583
    H           -3.792844819548     0.811020048312     0.784098273505
    C           -0.561982418205     0.066983431398    -0.275391637722
    H           -1.520980905488     1.801329229282     0.564139123680
    H           -1.571908228718     0.401058671211     1.595775822758
    C            0.847291234425     0.428362765275     0.190491479821
    H           -0.682666486150     0.353695839665    -1.313919255760
    H           -0.688103376098    -1.013198455799    -0.241388744177
    C            1.954133241032    -0.280543080136    -0.615540475656
    H            0.968865002730     1.504729451852     0.115957478904
    H            0.945566821842     0.192373401754     1.245457193215
    C            2.662084582017    -1.414675082838     0.128716737628
    H            2.691773735339     0.442209731853    -0.950663001586
    H            1.516645445520    -0.685591540380    -1.522716437677
    C            3.593998273175    -0.942951250908     1.242069543510
    H            3.239579356016    -1.995110244361    -0.584370365895
    H            1.918621373414    -2.093357878153     0.539414212192
    H            4.378996102194    -0.307716372315     0.844544267760
    H            4.068013375213    -1.784665263765     1.734210022947
    H            3.066191651781    -0.376354942677     2.000646543714

  Mulliken Charges: (a.u.)
   Center  Symbol    Alpha    Beta     Spin     Total
       1     H     0.39524  0.39524  0.00000  0.20951
       2     O     4.20372  4.20372  0.00000 -0.40743
       3     C     2.97756  2.97756  0.00000  0.04489
       4     C     3.10332  3.10332  0.00000 -0.20664
       5     H     0.45889  0.45889  0.00000  0.08221
       6     H     0.46021  0.46021  0.00000  0.07957
       7     C     3.08524  3.08524  0.00000 -0.17048
       8     H     0.45898  0.45898  0.00000  0.08204
       9     H     0.45309  0.45309  0.00000  0.09383
      10     C     3.10035  3.10035  0.00000 -0.20070
      11     H     0.44543  0.44543  0.00000  0.10914
      12     H     0.45487  0.45487  0.00000  0.09026
      13     C     3.10414  3.10414  0.00000 -0.20827
      14     H     0.44840  0.44840  0.00000  0.10320
      15     H     0.45446  0.45446  0.00000  0.09109
      16     C     3.08828  3.08828  0.00000 -0.17655
      17     H     0.44755  0.44755  0.00000  0.10490
      18     H     0.44888  0.44888  0.00000  0.10224
      19     C     3.14963  3.14963  0.00000 -0.29926
      20     H     0.44888  0.44888  0.00000  0.10224
      21     H     0.45501  0.45501  0.00000  0.08999
      22     H     0.45484  0.45484  0.00000  0.09031
      23     H     0.44809  0.44809  0.00000  0.10383
      24     H     0.45496  0.45496  0.00000  0.09009

   Total alpha = 33.00000, Total beta = 33.00000, Total charge = -0.00000

*** Psi4 exiting successfully. Buy a developer a beer!
