                              Psi4 1.0.54 Driver

  ==> Input File <==

--------------------------------------------------------------------------
set {
	reference rhf
	basis cc-pvtz
}

set_num_threads( 4 )
memory 2 gb

molecule MOL {
0 1

H	 3.639834	 0.607484	 1.502140
N	 2.822772	 0.034954	 1.517508
C	 1.720664	 0.675947	 0.817545
H	 2.592079	 -0.123324	 2.476193
C	 0.503178	 -0.235301	 0.771939
H	 2.048546	 0.885705	 -0.195076
H	 1.436705	 1.632270	 1.258871
C	 -0.678115	 0.376691	 0.025731
H	 0.791292	 -1.173394	 0.308930
H	 0.201008	 -0.474632	 1.789730
C	 -1.900706	 -0.535531	 -0.022488
H	 -0.374782	 0.619636	 -0.990104
H	 -0.954807	 1.318908	 0.493214
C	 -3.220513	 0.226854	 0.028039
H	 -1.865036	 -1.134397	 -0.928236
H	 -1.857948	 -1.236381	 0.806820
H	 -3.309098	 0.911849	 -0.808725
H	 -4.066838	 -0.449485	 -0.008086
H	 -3.301685	 0.809374	 0.939860

	symmetry c1
}
set optking {
	frozen_dihedral = ("
		12 8 11 15
	")
}

ee,wfn = optimize('scf', return_wfn=True)
oeprop( wfn, 'DIPOLE', 'QUADRUPOLE', 'MULLIKEN_CHARGES')
f=open( 'psi4out.xyz', 'w' )
f.write( "19  " )
f.write( str(ee) + "\n" )
f.write( MOL.save_string_xyz() )
f.close()
--------------------------------------------------------------------------

    Molecular point group: c1
  Charge       = 0
  Multiplicity = 1
  Basis Set: CC-PVTZ
  Basis Set:
  @DF-RHF Final Energy:  -251.44458291372376
    Total Energy =                       -251.4445829137238206
    Molecular point group: c1
  Basis Set: CC-PVTZ
  Basis Set:
  Basis Set: CC-PVTZ
  Basis Set:
  @DF-RHF Final Energy:  -251.44486144245911
    Total Energy =                       -251.4448614424592279
  Basis Set: CC-PVTZ
  Basis Set:
  Basis Set: CC-PVTZ
  Basis Set:
  @DF-RHF Final Energy:  -251.44494391594438
    Total Energy =                       -251.4449439159441226
  Basis Set: CC-PVTZ
  Basis Set:
  Charge       = 0
  Multiplicity = 1
  Basis Set: CC-PVTZ
  Basis Set:

    Orbital Energies (a.u.)
    -----------------------

    Doubly Occupied:

       1A    -15.526358     2A    -11.237727     3A    -11.211873
       4A    -11.210474     5A    -11.207746     6A    -11.205523
       7A     -1.178047     8A     -1.072824     9A     -0.999373
      10A     -0.900307    11A     -0.813916    12A     -0.789169
      13A     -0.664255    14A     -0.644119    15A     -0.616545
      16A     -0.591253    17A     -0.564131    18A     -0.555806
      19A     -0.524523    20A     -0.499842    21A     -0.483304
      22A     -0.464526    23A     -0.458660    24A     -0.449324
      25A     -0.383694

  @DF-RHF Final Energy:  -251.44494490145237

   => Energetics <=

    Nuclear Repulsion Energy =            246.0965588465526537
    One-Electron Energy =                -826.5763597161555936
    Two-Electron Energy =                 329.0348559681505094
    DFT Exchange-Correlation Energy =       0.0000000000000000
    Empirical Dispersion Energy =           0.0000000000000000
    PCM Polarization Energy =               0.0000000000000000
    EFP Energy =                            0.0000000000000000
    Total Energy =                       -251.4449449014524589
    Molecular point group: c1
  Basis Set: CC-PVTZ
  Basis Set:

  -Total Gradient:
     Atom            X                  Y                   Z
    ------   -----------------  -----------------  -----------------
       1        0.000034881244    -0.000006585778     0.000019671419
       2        0.000046199980     0.000026830114    -0.000025172410
       3        0.000006951666    -0.000017152079     0.000037542431
       4       -0.000004386644     0.000006660996     0.000004888768
       5       -0.000066455340     0.000061959760    -0.000055596498
       6        0.000006000137    -0.000003025603     0.000010814882
       7        0.000015541895     0.000002815492    -0.000003286362
       8       -0.003748753349     0.004910981504    -0.000408754502
       9       -0.000006884372     0.000006397804     0.000008213224
      10        0.000003835579    -0.000012573123    -0.000002776335
      11        0.003323720474    -0.004547690513     0.002604110623
      12        0.002654453826    -0.003445366343    -0.000050853467
      13        0.000010625866    -0.000025787364     0.000005611309
      14       -0.000000654040    -0.000061556513     0.000009769260
      15       -0.002235393024     0.003067772251    -0.002142539903
      16       -0.000012009400     0.000027846355    -0.000009888591
      17        0.000002506651    -0.000015349000     0.000017475573
      18       -0.000029502878     0.000021161136     0.000004594095
      19       -0.000000678273     0.000002660904    -0.000023823517

  **** Optimization is complete! (in 4 steps) ****
    Final optimized geometry and variables:
    Molecular point group: c1

    Geometry (in Angstrom), charge = 0, multiplicity = 1:

    H            3.762198086265     0.484088059734     0.905164128200
    N            2.938629717504    -0.078096164226     0.942413681641
    C            1.829623229391     0.570629081185     0.260619305229
    H            2.726506228154    -0.225448253347     1.907117845679
    C            0.599759800343    -0.324639890765     0.249376720501
    H            2.138109256667     0.767516855487    -0.760666894268
    H            1.567385298378     1.534629189668     0.699121321524
    C           -0.594845525881     0.299930585118    -0.469110696204
    H            0.862936082664    -1.268421655081    -0.217680014651
    H            0.320070654023    -0.557258781214     1.275072751998
    C           -1.808261725891    -0.637748842677    -0.542641377156
    H           -0.279873545771     0.555520007967    -1.476960523172
    H           -0.869959576045     1.225893930353     0.026902922950
    C           -3.139736108271     0.109963405327    -0.557256541188
    H           -1.749056095999    -1.228866435676    -1.450860967765
    H           -1.795859990638    -1.329541352973     0.292977274972
    H           -3.186351186862     0.807318546205    -1.387538808521
    H           -3.975267742618    -0.574200596574    -0.653899904084
    H           -3.279749305697     0.677943487721     0.356506545685

  Mulliken Charges: (a.u.)
   Center  Symbol    Alpha    Beta     Spin     Total
       1     H     0.43024  0.43024  0.00000  0.13951
       2     N     3.68907  3.68907  0.00000 -0.37814
       3     C     3.02747  3.02747  0.00000 -0.05494
       4     H     0.43101  0.43101  0.00000  0.13798
       5     C     3.08242  3.08242  0.00000 -0.16484
       6     H     0.45720  0.45720  0.00000  0.08559
       7     H     0.46867  0.46867  0.00000  0.06265
       8     C     3.09486  3.09486  0.00000 -0.18972
       9     H     0.44844  0.44844  0.00000  0.10311
      10     H     0.46047  0.46047  0.00000  0.07906
      11     C     3.08398  3.08398  0.00000 -0.16795
      12     H     0.45377  0.45377  0.00000  0.09245
      13     H     0.45621  0.45621  0.00000  0.08758
      14     C     3.14866  3.14866  0.00000 -0.29732
      15     H     0.45273  0.45273  0.00000  0.09454
      16     H     0.45410  0.45410  0.00000  0.09180
      17     H     0.45475  0.45475  0.00000  0.09051
      18     H     0.44952  0.44952  0.00000  0.10097
      19     H     0.45642  0.45642  0.00000  0.08716

   Total alpha = 25.00000, Total beta = 25.00000, Total charge = -0.00000

*** Psi4 exiting successfully. Buy a developer a beer!
