  ==> Input File <==

--------------------------------------------------------------------------
set {
	reference rhf
	basis cc-pvtz
}

set_num_threads( 4 )
memory 2 gb

molecule MOL {
0 1

H	 -2.816458	 -0.841657	 -0.064679
N	 -1.878861	 -0.711874	 0.250184
C	 -1.341419	 0.551458	 -0.220231
H	 -1.333674	 -1.468530	 -0.105118
C	 0.082190	 0.731516	 0.254705
H	 -1.357065	 0.652078	 -1.304747
H	 -1.939897	 1.357530	 0.189797
O	 0.881195	 -0.248324	 -0.336237
H	 0.440901	 1.722476	 -0.020063
H	 0.119896	 0.643586	 1.338114
C	 0.811714	 -1.493878	 0.274490
H	 1.467705	 -2.164199	 -0.261916
H	 1.134086	 -1.446362	 1.312524
H	 -0.198661	 -1.895013	 0.246281

	symmetry c1
}
set optking {
	frozen_dihedral = ("
		11 8 5 3
	")
}

ee = optimize('scf')
oeprop('DIPOLE', 'QUADRUPOLE', 'MULLIKEN_CHARGES')
f=open( 'psi4out.xyz', 'w' )
f.write( "14  " )
f.write( str(ee) + "\n" )
f.write( MOL.save_string_xyz() )
f.close()
--------------------------------------------------------------------------

    Molecular point group: c1
  Charge       = 0
  Multiplicity = 1
  Basis Set: CC-PVTZ
  Basis Set:
  @DF-RHF Final Energy:  -248.19441274581260
    Total Energy =                       -248.1944127458124854
    Molecular point group: c1
  Basis Set: CC-PVTZ
  Basis Set:
  Basis Set: CC-PVTZ
  Basis Set:
  @DF-RHF Final Energy:  -248.21212240818505
    Total Energy =                       -248.2121224081852233
  Basis Set: CC-PVTZ
  Basis Set:
  Basis Set: CC-PVTZ
  Basis Set:
  @DF-RHF Final Energy:  -248.21744394849460
    Total Energy =                       -248.2174439484944628
  Basis Set: CC-PVTZ
  Basis Set:
  Basis Set: CC-PVTZ
  Basis Set:
  @DF-RHF Final Energy:  -248.21850601177303
    Total Energy =                       -248.2185060117730018
  Basis Set: CC-PVTZ
  Basis Set:
  Basis Set: CC-PVTZ
  Basis Set:
  @DF-RHF Final Energy:  -248.21900694219093
    Total Energy =                       -248.2190069421910721
  Basis Set: CC-PVTZ
  Basis Set:
  Basis Set: CC-PVTZ
  Basis Set:
  @DF-RHF Final Energy:  -248.21903031419805
    Total Energy =                       -248.2190303141979939
  Basis Set: CC-PVTZ
  Basis Set:
  Basis Set: CC-PVTZ
  Basis Set:
  @DF-RHF Final Energy:  -248.21903471353721
    Total Energy =                       -248.2190347135374395
  Basis Set: CC-PVTZ
  Basis Set:
  Charge       = 0
  Multiplicity = 1
  Basis Set: CC-PVTZ
  Basis Set:

    Orbital Energies (a.u.)
    -----------------------

    Doubly Occupied:

       1A    -20.544665     2A    -15.533345     3A    -11.261904
       4A    -11.259976     5A    -11.243208     6A     -1.375677
       7A     -1.182127     8A     -1.002185     9A     -0.912190
      10A     -0.811554    11A     -0.689645    12A     -0.670330
      13A     -0.641713    14A     -0.623234    15A     -0.599211
      16A     -0.543263    17A     -0.535802    18A     -0.509210
      19A     -0.461675    20A     -0.419601    21A     -0.385586

  @DF-RHF Final Energy:  -248.21903566305141

   => Energetics <=

    Nuclear Repulsion Energy =            196.3383845892969646
    One-Electron Energy =                -726.7026395772236356
    Two-Electron Energy =                 282.1452193248755407
    DFT Exchange-Correlation Energy =       0.0000000000000000
    Empirical Dispersion Energy =           0.0000000000000000
    PCM Polarization Energy =               0.0000000000000000
    EFP Energy =                            0.0000000000000000
    Total Energy =                       -248.2190356630511019
    Molecular point group: c1
  Basis Set: CC-PVTZ
  Basis Set:

  -Total Gradient:
     Atom            X                  Y                   Z
    ------   -----------------  -----------------  -----------------
       1        0.000001320606    -0.000002138083     0.000007661535
       2        0.000058906863    -0.000045878981    -0.000013768682
       3       -0.000312986568    -0.000820579544     0.001026179571
       4       -0.000006383200     0.000025343873     0.000007780141
       5       -0.000099108981     0.001123817161    -0.001945191526
       6        0.000007514446     0.000002861737    -0.000020900843
       7        0.000007602301    -0.000015453774    -0.000023288478
       8        0.001300450222     0.000223904156     0.001873722594
       9        0.000029201537    -0.000032426422     0.000030303691
      10       -0.000004453547     0.000006644060     0.000023795300
      11       -0.001002751750    -0.000444004731    -0.000919325210
      12        0.000038788151    -0.000027435879     0.000003745105
      13       -0.000002415057     0.000001842868    -0.000021302732
      14       -0.000015685016     0.000003503559    -0.000029410467

  **** Optimization is complete! (in 8 steps) ****
    Final optimized geometry and variables:
    Molecular point group: c1

    Geometry (in Angstrom), charge = 0, multiplicity = 1:

    H           -2.773229377763    -0.228202660510     0.176869913671
    N           -1.787020097467    -0.347283556605     0.265887872462
    C           -1.081058634537     0.793302947018    -0.300530345997
    H           -1.555722301427    -1.193576831470    -0.206809768233
    C            0.350007593824     0.931326494219     0.194533898723
    H           -1.073285692772     0.795152798422    -1.389410890720
    H           -1.604719878806     1.689741018398     0.014139504392
    O            1.263525534465     0.021389024033    -0.343910065682
    H            0.714214193097     1.909557047114    -0.093707624992
    H            0.356794072297     0.873010093789     1.280382901339
    C            1.297152365872    -1.263614693168     0.189692173276
    H            2.255264708919    -1.694973118882    -0.065923325009
    H            1.195561599410    -1.251644248337     1.270688423573
    H            0.521067201677    -1.902467679569    -0.219016725407

  Mulliken Charges: (a.u.)
   Center  Symbol    Alpha    Beta     Spin     Total
       1     H     0.42807  0.42807  0.00000  0.14386
       2     N     3.69379  3.69379  0.00000 -0.38758
       3     C     3.03354  3.03354  0.00000 -0.06707
       4     H     0.42703  0.42703  0.00000  0.14593
       5     C     2.97464  2.97464  0.00000  0.05072
       6     H     0.46283  0.46283  0.00000  0.07435
       7     H     0.45748  0.45748  0.00000  0.08505
       8     O     4.18253  4.18253  0.00000 -0.36507
       9     H     0.45075  0.45075  0.00000  0.09850
      10     H     0.46880  0.46880  0.00000  0.06240
      11     C     3.03181  3.03181  0.00000 -0.06363
      12     H     0.44578  0.44578  0.00000  0.10844
      13     H     0.46703  0.46703  0.00000  0.06594
      14     H     0.47592  0.47592  0.00000  0.04816

   Total alpha = 21.00000, Total beta = 21.00000, Total charge =  0.00000
