                              Psi4 1.0.54 Driver

  ==> Input File <==

--------------------------------------------------------------------------
set {
	reference rhf
	basis cc-pvtz
}

set_num_threads( 4 )
memory 2 gb

molecule MOL {
0 1

O	 3.219313	 0.959291	 -0.614106
C	 2.698710	 0.058177	 -0.050237
C	 1.246364	 -0.005813	 0.348416
O	 3.344101	 -1.038700	 0.312317
C	 0.453207	 1.232821	 -0.049003
H	 0.839270	 -0.907818	 -0.092281
H	 1.216683	 -0.160521	 1.422434
C	 -0.998367	 1.217982	 0.432195
H	 0.481498	 1.345443	 -1.127236
H	 0.951413	 2.105557	 0.354893
C	 -1.882951	 0.151251	 -0.211235
H	 -1.429490	 2.193659	 0.228843
H	 -1.019755	 1.099323	 1.513279
C	 -3.300528	 0.642115	 -0.492865
H	 -1.425702	 -0.176773	 -1.141931
H	 -1.936794	 -0.725356	 0.427668
C	 -4.195121	 -0.417228	 -1.130257
H	 -3.256404	 1.511785	 -1.144070
H	 -3.754180	 0.981416	 0.435542
C	 -5.608977	 0.081192	 -1.410197
H	 -3.743225	 -0.757092	 -2.058159
H	 -4.242531	 -1.286059	 -0.479302
H	 -6.217009	 -0.694300	 -1.861742
H	 -5.598134	 0.928886	 -2.087254
H	 -6.100942	 0.396657	 -0.496052
C	 4.720529	 -1.114346	 0.001449
H	 4.874321	 -1.055557	 -1.065852
H	 5.057824	 -2.067950	 0.373977
H	 5.264321	 -0.313596	 0.480350

	symmetry c1
}
set optking {
	frozen_dihedral = ("
		15 11 8 5
	")
}

ee,wfn = optimize('scf', return_wfn=True)
oeprop( wfn, 'DIPOLE', 'QUADRUPOLE', 'MULLIKEN_CHARGES')
f=open( 'psi4out.xyz', 'w' )
f.write( "29  " )
f.write( str(ee) + "\n" )
f.write( MOL.save_string_xyz() )
f.close()
--------------------------------------------------------------------------

    Molecular point group: c1
  Charge       = 0
  Multiplicity = 1
  Basis Set: CC-PVTZ
  Basis Set:
  @DF-RHF Final Energy:  -501.22170242099673
    Total Energy =                       -501.2217024209965075
    Molecular point group: c1
  Basis Set: CC-PVTZ
  Basis Set:
  Basis Set: CC-PVTZ
  Basis Set:
  @DF-RHF Final Energy:  -501.22192040660980
    Total Energy =                       -501.2219204066100247
  Basis Set: CC-PVTZ
  Basis Set:
  Basis Set: CC-PVTZ
  Basis Set:
  @DF-RHF Final Energy:  -501.22195022345250
    Total Energy =                       -501.2219502234516995
  Basis Set: CC-PVTZ
  Basis Set:
  Basis Set: CC-PVTZ
  Basis Set:
  @DF-RHF Final Energy:  -501.22203143446222
    Total Energy =                       -501.2220314344610870
  Basis Set: CC-PVTZ
  Basis Set:
  Basis Set: CC-PVTZ
  Basis Set:
  @DF-RHF Final Energy:  -501.22193979040105
    Total Energy =                       -501.2219397904007110
  Basis Set: CC-PVTZ
  Basis Set:
  Basis Set: CC-PVTZ
  Basis Set:
  @DF-RHF Final Energy:  -501.22203372525996
    Total Energy =                       -501.2220337252609852
  Basis Set: CC-PVTZ
  Basis Set:
  Charge       = 0
  Multiplicity = 1
  Basis Set: CC-PVTZ
  Basis Set:

    Orbital Energies (a.u.)
    -----------------------

    Doubly Occupied:

       1A    -20.595933     2A    -20.533774     3A    -11.364131
       4A    -11.278214     5A    -11.232738     6A    -11.217210
       7A    -11.215224     8A    -11.213963     9A    -11.213768
      10A    -11.212689    11A    -11.207055    12A     -1.471772
      13A     -1.365388    14A     -1.098793    15A     -1.068010
      16A     -1.019664    17A     -0.977917    18A     -0.929044
      19A     -0.862510    20A     -0.800838    21A     -0.791230
      22A     -0.765244    23A     -0.702058    24A     -0.685614
      25A     -0.675664    26A     -0.651759    27A     -0.629093
      28A     -0.606709    29A     -0.593544    30A     -0.581036
      31A     -0.567438    32A     -0.552597    33A     -0.533578
      34A     -0.529429    35A     -0.519194    36A     -0.513207
      37A     -0.494462    38A     -0.478256    39A     -0.472369
      40A     -0.461450    41A     -0.459392    42A     -0.457367
      43A     -0.444042    44A     -0.436816

  @DF-RHF Final Energy:  -501.22203430205116

   => Energetics <=

    Nuclear Repulsion Energy =            611.6917749857242370
    One-Electron Energy =               -1894.8672469958619331
    Two-Electron Energy =                 781.9534377080866534
    DFT Exchange-Correlation Energy =       0.0000000000000000
    Empirical Dispersion Energy =           0.0000000000000000
    PCM Polarization Energy =               0.0000000000000000
    EFP Energy =                            0.0000000000000000
    Total Energy =                       -501.2220343020509290
    Molecular point group: c1
  Basis Set: CC-PVTZ
  Basis Set:

  -Total Gradient:
     Atom            X                  Y                   Z
    ------   -----------------  -----------------  -----------------
       1       -0.000007449325     0.000102165170     0.000029844274
       2       -0.000035434434    -0.000067558419    -0.000134986253
       3        0.000019296474    -0.000008377136     0.000013535696
       4        0.000015589831    -0.000044663378     0.000053058184
       5       -0.000687786584     0.001910691114    -0.002110611427
       6        0.000002320495    -0.000017369920     0.000000267289
       7       -0.000000021361    -0.000002819159     0.000034172797
       8        0.001492948351    -0.003355786955     0.003441918646
       9       -0.000023651185     0.000012845184    -0.000009256531
      10        0.000007470650     0.000023899457     0.000011357091
      11       -0.002758169599     0.004303385936    -0.003315737056
      12       -0.000001947122     0.000009404829    -0.000014529766
      13       -0.000008820805    -0.000001368676    -0.000006607126
      14        0.000016380294    -0.000023559295     0.000019873398
      15        0.001976161442    -0.002829338453     0.001963877607
      16        0.000003887955    -0.000016555204     0.000014884785
      17       -0.000007152866     0.000002978928     0.000005159276
      18        0.000003062679     0.000014518406     0.000006632248
      19        0.000002734088    -0.000001293982     0.000011928299
      20        0.000001828600    -0.000001715894    -0.000026272500
      21       -0.000003070588    -0.000008947643    -0.000008723155
      22        0.000003805354    -0.000000189744     0.000005573441
      23       -0.000005793060    -0.000001643549    -0.000002759001
      24       -0.000006161908     0.000010174567    -0.000005400327
      25        0.000001852960    -0.000003274264     0.000006850381
      26       -0.000013705023     0.000000171836     0.000015353841
      27       -0.000005868294     0.000000079351    -0.000016964984
      28        0.000001577919    -0.000022359944     0.000009107722
      29        0.000016115071     0.000016506842     0.000008453152

  **** Optimization is complete! (in 7 steps) ****
    Final optimized geometry and variables:
    Molecular point group: c1

    Geometry (in Angstrom), charge = 0, multiplicity = 1:

    O            3.195064965224     0.807007519011    -0.371657037758
    C            2.669433986884    -0.080722003892     0.208723133224
    C            1.225092511507    -0.112662113778     0.638092045779
    O            3.301134910178    -1.187694088129     0.564578902223
    C            0.448633068383     1.142814345147     0.261231846167
    H            0.784971006057    -1.003509064416     0.204498813306
    H            1.213430319809    -0.270072353285     1.712010208605
    C           -1.010274653391     1.110688841268     0.716316350335
    H            0.489931418562     1.282516043903    -0.812968629486
    H            0.943268449785     2.002789212281     0.696508726128
    C           -1.873332185603     0.034884823147     0.035886605094
    H           -1.435443294575     2.086355866056     0.502061416070
    H           -1.059685065859     0.996173548403     1.795379659095
    C           -3.306000958889     0.482805707269    -0.233879002822
    H           -1.402445491020    -0.283383426558    -0.890669537773
    H           -1.898087629309    -0.856711791395     0.657246225321
    C           -4.178293720992    -0.604937787408    -0.853195876109
    H           -3.291201659835     1.348987451211    -0.891020479860
    H           -3.757030555592     0.817422291580     0.697752900960
    C           -5.604991550304    -0.143384618265    -1.131524743285
    H           -3.723094623843    -0.945193493386    -1.779475663440
    H           -4.201478582125    -1.466593921309    -0.191573049027
    H           -6.196899627578    -0.938577308955    -1.570037933780
    H           -5.617818495534     0.695814036659    -1.819050386711
    H           -6.099390083244     0.171706645010    -0.218554154427
    C            4.668784939225    -1.292269267146     0.224756247159
    H            4.800592126300    -1.243172867789    -0.846008420627
    H            4.995460777966    -2.250003270573     0.596263608383
    H            5.238336829110    -0.499337302860     0.686500369318

  Mulliken Charges: (a.u.)
   Center  Symbol    Alpha    Beta     Spin     Total
       1     O     4.19696  4.19696  0.00000 -0.39391
       2     C     2.80573  2.80573  0.00000  0.38854
       3     C     3.09975  3.09975  0.00000 -0.19949
       4     O     4.14724  4.14724  0.00000 -0.29448
       5     C     3.09201  3.09201  0.00000 -0.18403
       6     H     0.43818  0.43818  0.00000  0.12364
       7     H     0.43993  0.43993  0.00000  0.12015
       8     C     3.10528  3.10528  0.00000 -0.21057
       9     H     0.44600  0.44600  0.00000  0.10801
      10     H     0.44101  0.44101  0.00000  0.11797
      11     C     3.09855  3.09855  0.00000 -0.19709
      12     H     0.44653  0.44653  0.00000  0.10695
      13     H     0.45067  0.45067  0.00000  0.09865
      14     C     3.08526  3.08526  0.00000 -0.17051
      15     H     0.45275  0.45275  0.00000  0.09451
      16     H     0.45176  0.45176  0.00000  0.09648
      17     C     3.08421  3.08421  0.00000 -0.16841
      18     H     0.45410  0.45410  0.00000  0.09181
      19     H     0.45381  0.45381  0.00000  0.09239
      20     C     3.15063  3.15063  0.00000 -0.30126
      21     H     0.45447  0.45447  0.00000  0.09105
      22     H     0.45481  0.45481  0.00000  0.09038
      23     H     0.44836  0.44836  0.00000  0.10327
      24     H     0.45490  0.45490  0.00000  0.09019
      25     H     0.45520  0.45520  0.00000  0.08959
      26     C     3.03794  3.03794  0.00000 -0.07589
      27     H     0.45440  0.45440  0.00000  0.09119
      28     H     0.44528  0.44528  0.00000  0.10944
      29     H     0.45428  0.45428  0.00000  0.09143

   Total alpha = 44.00000, Total beta = 44.00000, Total charge = -0.00000

*** Psi4 exiting successfully. Buy a developer a beer!
