                              Psi4 1.0.54 Driver

  ==> Input File <==

--------------------------------------------------------------------------
set {
	reference rhf
	basis cc-pvtz
}

set_num_threads( 4 )
memory 2 gb

molecule MOL {
0 1

H	 -3.642953	 0.223825	 0.000000
C	 -2.571844	 0.155001	 0.000000
C	 -1.957580	 -1.086132	 0.000000
C	 -1.807160	 1.303787	 0.000000
H	 -2.551493	 -1.979629	 0.000000
C	 -0.582719	 -1.174294	 0.000000
H	 -2.279934	 2.266806	 0.000000
C	 -0.427220	 1.213406	 0.000000
H	 -0.094904	 -2.127556	 0.000000
C	 0.196908	 -0.024061	 0.000000
H	 0.151409	 2.115254	 0.000000
C	 1.690041	 -0.173233	 0.000000
C	 2.544231	 0.989030	 -0.451841
O	 2.195360	 -1.191630	 0.350546
H	 2.310871	 1.262128	 -1.474064
H	 3.580723	 0.699421	 -0.384457
H	 2.370411	 1.858085	 0.171465

	symmetry c1
}
set optking {
	frozen_dihedral = ("
		13 12 10 8
	")
}

ee,wfn = optimize('scf', return_wfn=True)
oeprop( wfn, 'DIPOLE', 'QUADRUPOLE', 'MULLIKEN_CHARGES')
f=open( 'psi4out.xyz', 'w' )
f.write( "17  " )
f.write( str(ee) + "\n" )
f.write( MOL.save_string_xyz() )
f.close()
--------------------------------------------------------------------------

    Molecular point group: c1
  Charge       = 0
  Multiplicity = 1
  Basis Set: CC-PVTZ
  Basis Set:
  @DF-RHF Final Energy:  -382.60481762042832
    Total Energy =                       -382.6048176204282072
    Molecular point group: c1
  Basis Set: CC-PVTZ
  Basis Set:
  Basis Set: CC-PVTZ
  Basis Set:
  @DF-RHF Final Energy:  -382.60177645538556
    Total Energy =                       -382.6017764553853340
  Basis Set: CC-PVTZ
  Basis Set:
  Basis Set: CC-PVTZ
  Basis Set:
  @DF-RHF Final Energy:  -382.60490490545419
    Total Energy =                       -382.6049049054539637
  Basis Set: CC-PVTZ
  Basis Set:
  Basis Set: CC-PVTZ
  Basis Set:
  @DF-RHF Final Energy:  -382.60506719772803
    Total Energy =                       -382.6050671977283173
  Basis Set: CC-PVTZ
  Basis Set:
  Basis Set: CC-PVTZ
  Basis Set:
  @DF-RHF Final Energy:  -382.60507392654722
    Total Energy =                       -382.6050739265474476
  Basis Set: CC-PVTZ
  Basis Set:
  Basis Set: CC-PVTZ
  Basis Set:
  @DF-RHF Final Energy:  -382.60509252835544
    Total Energy =                       -382.6050925283551578
  Basis Set: CC-PVTZ
  Basis Set:
  Basis Set: CC-PVTZ
  Basis Set:
  @DF-RHF Final Energy:  -382.60509473171351
    Total Energy =                       -382.6050947317139617
  Basis Set: CC-PVTZ
  Basis Set:
  Charge       = 0
  Multiplicity = 1
  Basis Set: CC-PVTZ
  Basis Set:

    Orbital Energies (a.u.)
    -----------------------

    Doubly Occupied:

       1A    -20.540957     2A    -11.327908     3A    -11.246658
       4A    -11.243950     5A    -11.242807     6A    -11.239169
       7A    -11.238963     8A    -11.236760     9A    -11.229061
      10A     -1.402266    11A     -1.171200    12A     -1.053431
      13A     -1.030671    14A     -0.998980    15A     -0.864452
      16A     -0.839166    17A     -0.763710    18A     -0.712645
      19A     -0.659222    20A     -0.651950    21A     -0.628324
      22A     -0.612993    23A     -0.602686    24A     -0.598571
      25A     -0.556432    26A     -0.530115    27A     -0.520648
      28A     -0.504043    29A     -0.497432    30A     -0.414492
      31A     -0.350710    32A     -0.346816

  @DF-RHF Final Energy:  -382.60509501629377

   => Energetics <=

    Nuclear Repulsion Energy =            404.4478842107939158
    One-Electron Energy =               -1320.3915812916466166
    Two-Electron Energy =                 533.3386020645589269
    DFT Exchange-Correlation Energy =       0.0000000000000000
    Empirical Dispersion Energy =           0.0000000000000000
    PCM Polarization Energy =               0.0000000000000000
    EFP Energy =                            0.0000000000000000
    Total Energy =                       -382.6050950162937170
    Molecular point group: c1
  Basis Set: CC-PVTZ
  Basis Set:

  -Total Gradient:
     Atom            X                  Y                   Z
    ------   -----------------  -----------------  -----------------
       1       -0.000000285186    -0.000000905564    -0.000004717879
       2       -0.000000559883     0.000013361062     0.000013257415
       3        0.000005457317    -0.000006562401     0.000009430460
       4       -0.000014884256    -0.000008811283    -0.000011877637
       5       -0.000000846281     0.000000497345    -0.000002196661
       6        0.000003701414    -0.000000621494    -0.000021130618
       7        0.000000780560     0.000000581271    -0.000000622524
       8       -0.000020368297    -0.000004416468     0.001922868645
       9       -0.000000275446    -0.000002625132     0.000005118999
      10        0.000014199122    -0.000252589587    -0.003625311442
      11       -0.000005198793    -0.000000959448    -0.000003856005
      12        0.000048588492     0.000846653172     0.003305641560
      13       -0.000033561226    -0.000575573799    -0.001593506222
      14       -0.000001069297    -0.000004974740    -0.000000005430
      15       -0.000005354501    -0.000005531847    -0.000001459394
      16        0.000009579782    -0.000000951239    -0.000000618910
      17        0.000000096482     0.000003430151     0.000008985644

  **** Optimization is complete! (in 8 steps) ****
    Final optimized geometry and variables:
    Molecular point group: c1

    Geometry (in Angstrom), charge = 0, multiplicity = 1:

    H           -3.642283447764     0.216036779727     0.017420966038
    C           -2.570996433080     0.150051240437     0.012801911075
    C           -1.953587311079    -1.089355022239     0.024509396633
    C           -1.809100640443     1.300771426661    -0.002887032546
    H           -2.545258186099    -1.984299159441     0.037941491180
    C           -0.578154137375    -1.174065648215     0.025747307111
    H           -2.284245564402     2.262697331533    -0.005303984510
    C           -0.428974423562     1.213978510309    -0.016108667500
    H           -0.088464999574    -2.126375628660     0.050197328670
    C            0.197158369997    -0.021995530088    -0.004585347670
    H            0.148958873913     2.116631667674    -0.031695747153
    C            1.690791924714    -0.164484777937     0.024178817221
    C            2.542829498490     1.005584458304    -0.411949783559
    O            2.193013824075    -1.190658024269     0.354262908262
    H            2.229423559786     1.367422564366    -1.383440639624
    H            3.572379493582     0.686642141412    -0.451702565734
    H            2.454035660333     1.825749463040     0.291243551103

  Mulliken Charges: (a.u.)
   Center  Symbol    Alpha    Beta     Spin     Total
       1     H     0.42034  0.42034  0.00000  0.15931
       2     C     3.07382  3.07382  0.00000 -0.14763
       3     C     3.07279  3.07279  0.00000 -0.14558
       4     C     3.07521  3.07521  0.00000 -0.15043
       5     H     0.42038  0.42038  0.00000  0.15924
       6     C     3.07744  3.07744  0.00000 -0.15487
       7     H     0.42217  0.42217  0.00000  0.15566
       8     C     3.08711  3.08711  0.00000 -0.17421
       9     H     0.40844  0.40844  0.00000  0.18311
      10     C     3.00574  3.00574  0.00000 -0.01149
      11     H     0.42184  0.42184  0.00000  0.15632
      12     C     2.84174  2.84174  0.00000  0.31651
      13     C     3.16520  3.16520  0.00000 -0.33040
      14     O     4.18134  4.18134  0.00000 -0.36269
      15     H     0.44515  0.44515  0.00000  0.10969
      16     H     0.43217  0.43217  0.00000  0.13566
      17     H     0.44910  0.44910  0.00000  0.10180

   Total alpha = 32.00000, Total beta = 32.00000, Total charge =  0.00000

*** Psi4 exiting successfully. Buy a developer a beer!
