  ==> Input File <==

--------------------------------------------------------------------------
set {
	reference rhf
	basis 6-31G*
}

set_num_threads( 1 )
memory 2 gb

molecule MOL {
0 1

H	 0.700444	 -0.546814	 -1.803221
O	 0.277750	 0.246049	 -2.104137
C	 0.117723	 1.116212	 -1.021930
C	 -0.793441	 0.596080	 0.058728
H	 -0.288593	 2.034704	 -1.429952
H	 1.082345	 1.370539	 -0.583925
C	 -1.530462	 -0.493172	 -0.025500
H	 -0.820160	 1.192575	 0.957596
H	 -1.092586	 -1.461565	 -0.186463
H	 -2.602122	 -0.450675	 0.050101

	symmetry c1
}
set optking {
	frozen_dihedral = ("
		5 3 2 1,
		5 3 4 7
	")
}

ee = energy('scf')
oeprop('DIPOLE', 'QUADRUPOLE', 'MULLIKEN_CHARGES')
f=open( 'psi4out.xyz', 'w' )
f.write( "10  " )
f.write( str(ee) + "\n" )
f.write( MOL.save_string_xyz() )
f.close()
--------------------------------------------------------------------------

    Molecular point group: c1

    Geometry (in Angstrom), charge = 0, multiplicity = 1:

       Center              X                  Y                   Z               Mass
    ------------   -----------------  -----------------  -----------------  -----------------
           H          1.132474938374    -0.903805849094    -0.966941487755     1.007825032070
           O          0.709780938374    -0.110942849094    -1.267857487755    15.994914619560
           C          0.549753938374     0.759220150906    -0.185650487755    12.000000000000
           C         -0.361410061626     0.239088150906     0.895007512245    12.000000000000
           H          0.143437938374     1.677712150906    -0.593672487755     1.007825032070
           H          1.514375938374     1.013547150906     0.252354512245     1.007825032070
           C         -1.098431061626    -0.850163849094     0.810779512245    12.000000000000
           H         -0.388129061626     0.835583150906     1.793875512245     1.007825032070
           H         -0.660555061626    -1.818556849094     0.649816512245     1.007825032070
           H         -2.170091061626    -0.807666849094     0.886380512245     1.007825032070

  Charge       = 0
  Multiplicity = 1
  Basis Set: 6-31G*
  Basis Set:

    Orbital Energies (a.u.)
    -----------------------

    Doubly Occupied:

       1A    -20.558429     2A    -11.280194     3A    -11.234586
       4A    -11.219633     5A     -1.367311     6A     -1.059289
       7A     -0.929009     8A     -0.769237     9A     -0.688272
      10A     -0.648491    11A     -0.612564    12A     -0.573714
      13A     -0.567975    14A     -0.497048    15A     -0.451296
      16A     -0.300080

  @DF-RHF Final Energy:  -191.83291814607827

   => Energetics <=

    Nuclear Repulsion Energy =            119.2203117628094446
    One-Electron Energy =                -496.5921978067730151
    Two-Electron Energy =                 185.5389678978851293
    DFT Exchange-Correlation Energy =       0.0000000000000000
    Empirical Dispersion Energy =           0.0000000000000000
    PCM Polarization Energy =               0.0000000000000000
    EFP Energy =                            0.0000000000000000
    Total Energy =                       -191.8329181460784412

  Mulliken Charges: (a.u.)
   Center  Symbol    Alpha    Beta     Spin     Total
       1     H     0.28004  0.28004  0.00000  0.43992
       2     O     4.36489  4.36489  0.00000 -0.72977
       3     C     2.99691  2.99691  0.00000  0.00618
       4     C     3.09652  3.09652  0.00000 -0.19304
       5     H     0.40278  0.40278  0.00000  0.19444
       6     H     0.43155  0.43155  0.00000  0.13690
       7     C     3.20040  3.20040  0.00000 -0.40080
       8     H     0.40739  0.40739  0.00000  0.18521
       9     H     0.41515  0.41515  0.00000  0.16970
      10     H     0.40437  0.40437  0.00000  0.19126

   Total alpha = 16.00000, Total beta = 16.00000, Total charge =  0.00000
