                              Psi4 1.0.54 Driver

  ==> Input File <==

--------------------------------------------------------------------------
set {
	reference rhf
	basis cc-pvtz
}

set_num_threads( 4 )
memory 2 gb

molecule MOL {
0 1

O	 -2.440701	 -0.934798	 -0.415053
C	 -1.922978	 0.063265	 -0.045005
C	 -2.632749	 1.372204	 0.158357
O	 -0.637375	 0.157174	 0.243149
H	 -2.187724	 2.129143	 -0.474664
H	 -3.677681	 1.257276	 -0.079438
H	 -2.516788	 1.693160	 1.185542
C	 0.162530	 -1.009518	 0.097799
C	 1.587210	 -0.664190	 0.477086
H	 0.096803	 -1.356267	 -0.924704
H	 -0.233803	 -1.785900	 0.736810
C	 2.256770	 0.342732	 -0.454344
H	 2.154716	 -1.590834	 0.479041
H	 1.598751	 -0.289614	 1.496104
C	 3.265921	 1.230110	 0.266622
H	 2.755775	 -0.192388	 -1.257922
H	 1.498290	 0.961099	 -0.920363
H	 3.728593	 1.931681	 -0.417570
H	 4.055996	 0.640071	 0.719421
H	 2.789532	 1.803106	 1.055130

	symmetry c1
}
set optking {
	frozen_dihedral = ("
		16 12 9 8
	")
}

ee,wfn = optimize('scf', return_wfn=True)
oeprop( wfn, 'DIPOLE', 'QUADRUPOLE', 'MULLIKEN_CHARGES')
f=open( 'psi4out.xyz', 'w' )
f.write( "20  " )
f.write( str(ee) + "\n" )
f.write( MOL.save_string_xyz() )
f.close()
--------------------------------------------------------------------------

    Molecular point group: c1
  Charge       = 0
  Multiplicity = 1
  Basis Set: CC-PVTZ
  Basis Set:
  @DF-RHF Final Energy:  -384.08452378647462
    Total Energy =                       -384.0845237864750743
    Molecular point group: c1
  Basis Set: CC-PVTZ
  Basis Set:
  Basis Set: CC-PVTZ
  Basis Set:
  @DF-RHF Final Energy:  -384.08475237729823
    Total Energy =                       -384.0847523772984005
  Basis Set: CC-PVTZ
  Basis Set:
  Basis Set: CC-PVTZ
  Basis Set:
  @DF-RHF Final Energy:  -384.08462361361427
    Total Energy =                       -384.0846236136139851
  Basis Set: CC-PVTZ
  Basis Set:
  Basis Set: CC-PVTZ
  Basis Set:
  @DF-RHF Final Energy:  -384.08480468583781
    Total Energy =                       -384.0848046858377529
  Basis Set: CC-PVTZ
  Basis Set:
  Charge       = 0
  Multiplicity = 1
  Basis Set: CC-PVTZ
  Basis Set:

    Orbital Energies (a.u.)
    -----------------------

    Doubly Occupied:

       1A    -20.594798     2A    -20.532944     3A    -11.367009
       4A    -11.280294     5A    -11.231966     6A    -11.223266
       7A    -11.218844     8A    -11.210993     9A     -1.471454
      10A     -1.365621    11A     -1.085860    12A     -1.029089
      13A     -0.982162    14A     -0.880954    15A     -0.811081
      16A     -0.778455    17A     -0.693230    18A     -0.686350
      19A     -0.670238    20A     -0.629566    21A     -0.604763
      22A     -0.594045    23A     -0.574850    24A     -0.552715
      25A     -0.539136    26A     -0.536196    27A     -0.514719
      28A     -0.482409    29A     -0.474829    30A     -0.472541
      31A     -0.451796    32A     -0.442288

  @DF-RHF Final Energy:  -384.08480486208867

   => Energetics <=

    Nuclear Repulsion Energy =            387.1197947529768157
    One-Electron Energy =               -1290.4402772594412454
    Two-Electron Energy =                 519.2356776443756416
    DFT Exchange-Correlation Energy =       0.0000000000000000
    Empirical Dispersion Energy =           0.0000000000000000
    PCM Polarization Energy =               0.0000000000000000
    EFP Energy =                            0.0000000000000000
    Total Energy =                       -384.0848048620888449
    Molecular point group: c1
  Basis Set: CC-PVTZ
  Basis Set:

  -Total Gradient:
     Atom            X                  Y                   Z
    ------   -----------------  -----------------  -----------------
       1       -0.000023615247    -0.000086261810    -0.000026748175
       2        0.000044820693     0.000065636027    -0.000055497137
       3        0.000012521761    -0.000007779105     0.000027135362
       4        0.000074604108     0.000033074308    -0.000089794286
       5        0.000012388896     0.000018397752    -0.000009550251
       6       -0.000002824051    -0.000019845446    -0.000002771127
       7       -0.000004128360     0.000020390741     0.000030818456
       8       -0.001080989772     0.002120520339     0.001954359206
       9        0.002134475608    -0.003074038069    -0.001990722756
      10       -0.000031700278     0.000039411964    -0.000044557311
      11        0.000037450125    -0.000025299578    -0.000037589006
      12       -0.004433540238     0.001099037243    -0.001918398956
      13        0.000012217087     0.000010893558    -0.000029604337
      14        0.000004944950     0.000016860913     0.000002841882
      15       -0.000012869094    -0.000005949628     0.000016800584
      16        0.003298604382    -0.000210808311     0.002150127172
      17       -0.000063693148    -0.000017051816     0.000013178885
      18        0.000007933372     0.000002417149    -0.000003432402
      19        0.000000718343     0.000008757922     0.000009544781
      20        0.000012680867     0.000011635849     0.000003859418

  **** Optimization is complete! (in 5 steps) ****
    Final optimized geometry and variables:
    Molecular point group: c1

    Geometry (in Angstrom), charge = 0, multiplicity = 1:

    O           -2.386701694523    -0.991787354766    -0.482738432103
    C           -1.870197005360    -0.009116167114    -0.072286669774
    C           -2.579929054667     1.291407098387     0.177962169233
    O           -0.585494414731     0.072732803375     0.224229524701
    H           -2.132578543611     2.071371892879    -0.424757910245
    H           -3.624131957988     1.185929202167    -0.067359704919
    H           -2.467016610522     1.573252426543     1.216870346149
    C            0.213844274660    -1.088356598460     0.039946774261
    C            1.639577961978    -0.741769313146     0.416590703951
    H            0.136195859832    -1.408999231265    -0.990494365180
    H           -0.173413339290    -1.881903728916     0.663199688435
    C            2.306028959596     0.279093127978    -0.515043643366
    H            2.216376417137    -1.660329174603     0.439546350063
    H            1.627817945163    -0.358968674361     1.432198350334
    C            3.346780325189     1.135994297120     0.201249489486
    H            2.803240370983    -0.246987888200    -1.324041469251
    H            1.555564804714     0.922468761618    -0.956985361280
    H            3.837172107257     1.813977200110    -0.487750406859
    H            4.113542459088     0.519618737666     0.659586775538
    H            2.889615442513     1.730406863054     0.984831286301

  Mulliken Charges: (a.u.)
   Center  Symbol    Alpha    Beta     Spin     Total
       1     O     4.19700  4.19700  0.00000 -0.39400
       2     C     2.80887  2.80887  0.00000  0.38226
       3     C     3.13810  3.13810  0.00000 -0.27619
       4     O     4.15319  4.15319  0.00000 -0.30637
       5     H     0.44626  0.44626  0.00000  0.10747
       6     H     0.43784  0.43784  0.00000  0.12433
       7     H     0.44567  0.44567  0.00000  0.10866
       8     C     2.99326  2.99326  0.00000  0.01348
       9     C     3.08625  3.08625  0.00000 -0.17249
      10     H     0.45072  0.45072  0.00000  0.09855
      11     H     0.44447  0.44447  0.00000  0.11107
      12     C     3.08586  3.08586  0.00000 -0.17171
      13     H     0.44845  0.44845  0.00000  0.10309
      14     H     0.45415  0.45415  0.00000  0.09170
      15     C     3.14896  3.14896  0.00000 -0.29792
      16     H     0.45283  0.45283  0.00000  0.09435
      17     H     0.45038  0.45038  0.00000  0.09924
      18     H     0.44866  0.44866  0.00000  0.10269
      19     H     0.45500  0.45500  0.00000  0.08999
      20     H     0.45409  0.45409  0.00000  0.09182

   Total alpha = 32.00000, Total beta = 32.00000, Total charge = -0.00000

*** Psi4 exiting successfully. Buy a developer a beer!
