  ==> Input File <==

--------------------------------------------------------------------------
set {
	reference rhf
	basis cc-pvtz
}

set_num_threads( 4 )
memory 2 gb

molecule MOL {
0 1

O	 -1.850696	 -2.124059	 -0.801160
C	 -0.825565	 -1.667108	 -0.424131
C	 0.486167	 -2.408384	 -0.363062
O	 -0.695554	 -0.422406	 0.000602
C	 0.390112	 -3.847779	 -0.842529
H	 0.836916	 -2.356077	 0.661725
H	 1.201705	 -1.843460	 -0.950260
H	 -0.312351	 -4.411753	 -0.243617
H	 1.359062	 -4.327393	 -0.775781
H	 0.055744	 -3.894495	 -1.870266
C	 -1.852370	 0.402254	 0.000718
C	 -3.063338	 -0.501097	 -0.000437
H	 -1.831732	 1.039442	 -0.872158
H	 -1.832493	 1.038301	 0.874430
H	 -3.071944	 -1.133732	 -0.879113
H	 -3.966302	 0.097976	 -0.000483
H	 -3.072764	 -1.134834	 0.877435

	symmetry c1
}
set optking {
	frozen_dihedral = ("
		2 4 11 13
	")
}

ee = optimize('scf')
oeprop('DIPOLE', 'QUADRUPOLE', 'MULLIKEN_CHARGES')
f=open( 'psi4out.xyz', 'w' )
f.write( "17  " )
f.write( str(ee) + "\n" )
f.write( MOL.save_string_xyz() )
f.close()
--------------------------------------------------------------------------

    Molecular point group: c1
  Charge       = 0
  Multiplicity = 1
  Basis Set: CC-PVTZ
  Basis Set:
  @DF-RHF Final Energy:  -344.97437808684526
    Total Energy =                       -344.9743780868449790
    Molecular point group: c1
  Basis Set: CC-PVTZ
  Basis Set:
  Basis Set: CC-PVTZ
  Basis Set:
  @DF-RHF Final Energy:  -345.01551149955469
    Total Energy =                       -345.0155114995540089
  Basis Set: CC-PVTZ
  Basis Set:
  Basis Set: CC-PVTZ
  Basis Set:
  @DF-RHF Final Energy:  -345.02505201259356
    Total Energy =                       -345.0250520125938465
  Basis Set: CC-PVTZ
  Basis Set:
  Basis Set: CC-PVTZ
  Basis Set:
  @DF-RHF Final Energy:  -345.02582321955146
    Total Energy =                       -345.0258232195514552
  Basis Set: CC-PVTZ
  Basis Set:
  @DF-RHF Final Energy:  -345.02844360014058
    Total Energy =                       -345.0284436001406334
  @DF-RHF Final Energy:  -345.03023955130232
    Total Energy =                       -345.0302395513025431
  Basis Set: CC-PVTZ
  Basis Set:
  @DF-RHF Final Energy:  -345.03034936022925
    Total Energy =                       -345.0303493602295362
  Basis Set: CC-PVTZ
  Basis Set:
  Basis Set: CC-PVTZ
  Basis Set:
  @DF-RHF Final Energy:  -345.03037954567395
    Total Energy =                       -345.0303795456736680
  Basis Set: CC-PVTZ
  Basis Set:
  Basis Set: CC-PVTZ
  Basis Set:
  @DF-RHF Final Energy:  -345.03038448065718
    Total Energy =                       -345.0303844806569487
  Basis Set: CC-PVTZ
  Basis Set:
  Charge       = 0
  Multiplicity = 1
  Basis Set: CC-PVTZ
  Basis Set:

    Orbital Energies (a.u.)
    -----------------------

    Doubly Occupied:

       1A    -20.590367     2A    -20.529759     3A    -11.364379
       4A    -11.288276     5A    -11.233615     6A    -11.214467
       7A    -11.212204     8A     -1.464074     9A     -1.364322
      10A     -1.068413    11A     -1.028763    12A     -0.920319
      13A     -0.858973    14A     -0.744440    15A     -0.696699
      16A     -0.682925    17A     -0.670026    18A     -0.628667
      19A     -0.606280    20A     -0.567916    21A     -0.546270
      22A     -0.530736    23A     -0.522244    24A     -0.517641
      25A     -0.494497    26A     -0.492734    27A     -0.448482
      28A     -0.431226

  @DF-RHF Final Energy:  -345.03038542372730

   => Energetics <=

    Nuclear Repulsion Energy =            319.3278449251208144
    One-Electron Energy =               -1103.2790339788089113
    Two-Electron Energy =                 438.9208036299610285
    DFT Exchange-Correlation Energy =       0.0000000000000000
    Empirical Dispersion Energy =           0.0000000000000000
    PCM Polarization Energy =               0.0000000000000000
    EFP Energy =                            0.0000000000000000
    Total Energy =                       -345.0303854237270116
    Molecular point group: c1
  Basis Set: CC-PVTZ
  Basis Set:

  -Total Gradient:
     Atom            X                  Y                   Z
    ------   -----------------  -----------------  -----------------
       1        0.000025531454    -0.000050625851    -0.000031678945
       2       -0.000784354137    -0.001521898493     0.004688444907
       3       -0.000035252623    -0.000015622964     0.000060355947
       4        0.001898510575     0.003141959165    -0.006581456215
       5       -0.000001622428     0.000009681463    -0.000023717479
       6        0.000020536110     0.000013169166    -0.000011516126
       7       -0.000010481664     0.000013041557    -0.000025331236
       8       -0.000001777940    -0.000011279274     0.000002497277
       9       -0.000002195636     0.000000352201     0.000007405649
      10       -0.000003627442     0.000002763246     0.000008953825
      11       -0.003951164587    -0.005125310833    -0.000703228995
      12       -0.000021770754    -0.000009216418     0.000028879817
      13        0.002864148173     0.003538283463     0.002608127838
      14        0.000008468258    -0.000024541347    -0.000006860536
      15       -0.000005558175     0.000000741725    -0.000017671210
      16        0.000001170391     0.000017970005     0.000011850664
      17       -0.000000559577     0.000020533192    -0.000015055181

  **** Optimization is complete! (in 10 steps) ****
    Final optimized geometry and variables:
    Molecular point group: c1

    Geometry (in Angstrom), charge = 0, multiplicity = 1:

    O           -0.660907606672    -0.750490346321    -0.680408399941
    C            0.264740567240    -0.228073640261    -0.160325335579
    C            1.589486839361    -0.902439539125     0.106123660240
    O            0.296874699760     1.027313214182     0.246810917099
    C            1.657293900991    -2.329826590002    -0.412172479780
    H            1.758132933994    -0.864092672354     1.176881172710
    H            2.361234110150    -0.283518388113    -0.337163873430
    H            0.896644145514    -2.947582828478     0.045911231261
    H            2.626661196160    -2.759971630865    -0.191071105319
    H            1.505238678453    -2.363276776615    -1.482794118358
    C           -0.836920797918     1.890328450088     0.328470911199
    C           -2.197885075081     1.265878989292     0.567862092251
    H           -0.826366592191     2.524968866203    -0.548382461454
    H           -0.594109645150     2.528295594643     1.166731095585
    H           -2.573053382873     0.735084710594    -0.289851853706
    H           -2.880490492373     2.073007805448     0.812303949219
    H           -2.172593557395     0.584957071740     1.409496322023

  Mulliken Charges: (a.u.)
   Center  Symbol    Alpha    Beta     Spin     Total
       1     O     4.19858  4.19858  0.00000 -0.39717
       2     C     2.80342  2.80342  0.00000  0.39316
       3     C     3.09310  3.09310  0.00000 -0.18620
       4     O     4.15460  4.15460  0.00000 -0.30921
       5     C     3.13991  3.13991  0.00000 -0.27983
       6     H     0.44362  0.44362  0.00000  0.11276
       7     H     0.44067  0.44067  0.00000  0.11866
       8     H     0.44863  0.44863  0.00000  0.10275
       9     H     0.45090  0.45090  0.00000  0.09821
      10     H     0.44896  0.44896  0.00000  0.10208
      11     C     2.98316  2.98316  0.00000  0.03368
      12     C     3.15298  3.15298  0.00000 -0.30596
      13     H     0.45496  0.45496  0.00000  0.09009
      14     H     0.45050  0.45050  0.00000  0.09900
      15     H     0.43390  0.43390  0.00000  0.13221
      16     H     0.45124  0.45124  0.00000  0.09752
      17     H     0.45088  0.45088  0.00000  0.09824

   Total alpha = 28.00000, Total beta = 28.00000, Total charge =  0.00000
