  ==> Input File <==

--------------------------------------------------------------------------
set {
	reference rhf
	basis 6-31G*
}

set_num_threads( 4 )
memory 2 gb

molecule MOL {
0 1

H	 -1.182884	 1.671963	 1.733542
C	 -0.943865	 0.930515	 0.996975
C	 -1.922096	 0.456065	 0.061301
C	 0.289194	 0.413560	 0.921213
H	 -2.921642	 0.851924	 0.096631
C	 -1.599521	 -0.471916	 -0.850982
H	 1.077881	 0.714915	 1.584208
N	 0.640212	 -0.532897	 -0.000111
H	 -2.304009	 -0.850041	 -1.565877
C	 -0.257661	 -1.034255	 -0.933245
C	 2.010177	 -1.032049	 0.000042
O	 0.072109	 -1.869394	 -1.738230
H	 2.187698	 -1.635381	 -0.882279
H	 2.677579	 -0.189247	 -0.001871
H	 2.188882	 -1.632203	 0.884288

	symmetry c1
}
set optking {
	frozen_dihedral = ("
		10 8 11 13
	")
}

ee = optimize('scf')
oeprop('DIPOLE', 'QUADRUPOLE', 'MULLIKEN_CHARGES')
f=open( 'psi4out.xyz', 'w' )
f.write( "15  " )
f.write( str(ee) + "\n" )
f.write( MOL.save_string_xyz() )
f.close()
--------------------------------------------------------------------------

    Molecular point group: c1
  Charge       = 0
  Multiplicity = 1
  Basis Set: 6-31G*
  Basis Set:
  @DF-RHF Final Energy:  -360.59556126709350
    Total Energy =                       -360.5955612670935011
    Molecular point group: c1
  Basis Set: 6-31G*
  Basis Set:
  Basis Set: 6-31G*
  Basis Set:
  @DF-RHF Final Energy:  -360.59581316721165
    Total Energy =                       -360.5958131672118725
  Basis Set: 6-31G*
  Basis Set:
  Basis Set: 6-31G*
  Basis Set:
  @DF-RHF Final Energy:  -360.59584967602888
    Total Energy =                       -360.5958496760289336
  Basis Set: 6-31G*
  Basis Set:
  Basis Set: 6-31G*
  Basis Set:
  @DF-RHF Final Energy:  -360.59583343864267
    Total Energy =                       -360.5958334386425577
  Basis Set: 6-31G*
  Basis Set:
  Charge       = 0
  Multiplicity = 1
  Basis Set: 6-31G*
  Basis Set:

    Orbital Energies (a.u.)
    -----------------------

    Doubly Occupied:

       1A    -20.508667     2A    -15.621226     3A    -11.343457
       4A    -11.296606     5A    -11.264217     6A    -11.260450
       7A    -11.233797     8A    -11.229235     9A     -1.384300
      10A     -1.281023    11A     -1.114816    12A     -1.025773
      13A     -0.969944    14A     -0.872119    15A     -0.835317
      16A     -0.715408    17A     -0.698549    18A     -0.660675
      19A     -0.647864    20A     -0.621665    21A     -0.606713
      22A     -0.572110    23A     -0.553280    24A     -0.546958
      25A     -0.526079    26A     -0.476133    27A     -0.413629
      28A     -0.405968    29A     -0.305268

  @DF-RHF Final Energy:  -360.59585307796027

   => Energetics <=

    Nuclear Repulsion Energy =            357.5861379368714665
    One-Electron Energy =               -1198.3814908414674392
    Two-Electron Energy =                 480.1994998266359289
    DFT Exchange-Correlation Energy =       0.0000000000000000
    Empirical Dispersion Energy =           0.0000000000000000
    PCM Polarization Energy =               0.0000000000000000
    EFP Energy =                            0.0000000000000000
    Total Energy =                       -360.5958530779601006
    Molecular point group: c1
  Basis Set: 6-31G*
  Basis Set:

  -Total Gradient:
     Atom            X                  Y                   Z
    ------   -----------------  -----------------  -----------------
       1       -0.000001551792     0.000002605814    -0.000002708044
       2       -0.000013380346     0.000004469254     0.000006497375
       3        0.000007379558     0.000004462350     0.000001008657
       4        0.000014012482     0.000009685868     0.000006491015
       5       -0.000000488840    -0.000000723261    -0.000001079074
       6        0.000001399751    -0.000004922494     0.000005591446
       7       -0.000006899427    -0.000003279762    -0.000000377448
       8       -0.000123057445    -0.000246983660     0.000195481383
       9       -0.000003512823    -0.000000055510     0.000001374538
      10        0.000074263384     0.000141650168    -0.000123607522
      11        0.000114833578     0.000274788070    -0.000192459802
      12       -0.000003948709    -0.000001298946    -0.000001426836
      13       -0.000060843550    -0.000186484456     0.000127240720
      14        0.000005493357     0.000018564168    -0.000009035566
      15       -0.000003699179    -0.000012477599    -0.000012990838

  **** Optimization is complete! (in 5 steps) ****
    Final optimized geometry and variables:
    Molecular point group: c1

    Geometry (in Angstrom), charge = 0, multiplicity = 1:

    H           -1.032275817085     2.100244293163     1.952408308859
    C           -0.790208601965     1.361255546561     1.214433400964
    C           -1.766083623846     0.886794498308     0.276254171588
    C            0.445054001108     0.849653832789     1.137580541724
    H           -2.766460890812     1.280510059698     0.311246536041
    C           -1.440195479124    -0.038288742927    -0.637764327559
    H            1.232265709445     1.152631726400     1.801386734387
    N            0.800399612801    -0.091172533404     0.212136499944
    H           -2.142945088562    -0.417177976985    -1.354096532453
    C           -0.097803730709    -0.599983996303    -0.716309418970
    C            2.168445310186    -0.595814966191     0.215785091694
    O            0.232955419239    -1.441060270115    -1.514695145264
    H            2.310728691768    -1.198183706906    -0.663359939688
    H            2.865863347915     0.232554709625     0.207273617825
    H            2.346158058318    -1.202882247636     1.096023416855

  Mulliken Charges: (a.u.)
   Center  Symbol    Alpha    Beta     Spin     Total
       1     H     0.39284  0.39284  0.00000  0.21433
       2     C     3.16151  3.16151  0.00000 -0.32302
       3     C     3.05827  3.05827  0.00000 -0.11654
       4     C     2.92084  2.92084  0.00000  0.15832
       5     H     0.39084  0.39084  0.00000  0.21832
       6     C     3.16971  3.16971  0.00000 -0.33942
       7     H     0.38790  0.38790  0.00000  0.22420
       8     N     3.86560  3.86560  0.00000 -0.73120
       9     H     0.38634  0.38634  0.00000  0.22733
      10     C     2.59396  2.59396  0.00000  0.81208
      11     C     3.15520  3.15520  0.00000 -0.31040
      12     O     4.32202  4.32202  0.00000 -0.64404
      13     H     0.37415  0.37415  0.00000  0.25169
      14     H     0.41174  0.41174  0.00000  0.17652
      15     H     0.40908  0.40908  0.00000  0.18183

   Total alpha = 29.00000, Total beta = 29.00000, Total charge = -0.00000
