                              Psi4 1.0.54 Driver

  ==> Input File <==

--------------------------------------------------------------------------
set {
	reference rhf
	basis cc-pvtz
}

set_num_threads( 4 )
memory 2 gb

molecule MOL {
0 1

H	 4.746628	 -0.521282	 2.865968
C	 4.254008	 -1.080112	 2.078629
C	 2.768024	 -0.744496	 2.011259
H	 4.748981	 -0.840835	 1.143769
H	 4.410225	 -2.135989	 2.274890
C	 2.037951	 -1.522462	 0.918678
H	 2.649094	 0.318995	 1.838684
H	 2.307498	 -0.959779	 2.972712
C	 0.547084	 -1.211586	 0.831748
H	 2.497298	 -1.317759	 -0.040450
H	 2.153815	 -2.586412	 1.104069
C	 0.216777	 0.159629	 0.266813
H	 0.057629	 -1.932014	 0.181222
H	 0.070107	 -1.319758	 1.801443
C	 -1.180025	 0.697761	 0.509157
O	 1.010615	 0.784081	 -0.360207
C	 -2.285431	 -0.137488	 -0.145671
H	 -1.200755	 1.709187	 0.126500
H	 -1.349314	 0.741927	 1.581811
C	 -3.646545	 0.082747	 0.508954
H	 -2.348635	 0.118247	 -1.199806
H	 -2.034895	 -1.192387	 -0.096473
C	 -4.757412	 -0.737227	 -0.138149
H	 -3.900211	 1.137405	 0.459735
H	 -3.580878	 -0.166775	 1.564416
H	 -4.867876	 -0.486707	 -1.187777
H	 -4.549650	 -1.800049	 -0.072540
H	 -5.709585	 -0.556397	 0.346597

	symmetry c1
}
set optking {
	frozen_dihedral = ("
		12 15 17 21
	")
}

ee,wfn = optimize('scf', return_wfn=True)
oeprop( wfn, 'DIPOLE', 'QUADRUPOLE', 'MULLIKEN_CHARGES')
f=open( 'psi4out.xyz', 'w' )
f.write( "28  " )
f.write( str(ee) + "\n" )
f.write( MOL.save_string_xyz() )
f.close()
--------------------------------------------------------------------------

    Molecular point group: c1
  Charge       = 0
  Multiplicity = 1
  Basis Set: CC-PVTZ
  Basis Set:
  @DF-RHF Final Energy:  -426.31769266506205
    Total Energy =                       -426.3176926650629639
    Molecular point group: c1
  Basis Set: CC-PVTZ
  Basis Set:
  Basis Set: CC-PVTZ
  Basis Set:
  @DF-RHF Final Energy:  -426.31562220600483
    Total Energy =                       -426.3156222060054006
  Basis Set: CC-PVTZ
  Basis Set:
  Basis Set: CC-PVTZ
  Basis Set:
  @DF-RHF Final Energy:  -426.31790714979570
    Total Energy =                       -426.3179071497954737
  Basis Set: CC-PVTZ
  Basis Set:
  Basis Set: CC-PVTZ
  Basis Set:
  @DF-RHF Final Energy:  -426.31770424269655
    Total Energy =                       -426.3177042426963226
  Basis Set: CC-PVTZ
  Basis Set:
  @DF-RHF Final Energy:  -426.31800320036962
    Total Energy =                       -426.3180032003691622
  @DF-RHF Final Energy:  -426.31804633236789
    Total Energy =                       -426.3180463323681124
  @DF-RHF Final Energy:  -426.31805319988644
    Total Energy =                       -426.3180531998864353
  Basis Set: CC-PVTZ
  Basis Set:
  @DF-RHF Final Energy:  -426.31795248033643
    Total Energy =                       -426.3179524803363165
  Basis Set: CC-PVTZ
  Basis Set:
  Basis Set: CC-PVTZ
  Basis Set:
  @DF-RHF Final Energy:  -426.31806286207063
    Total Energy =                       -426.3180628620702919
  Basis Set: CC-PVTZ
  Basis Set:
  Basis Set: CC-PVTZ
  Basis Set:
  @DF-RHF Final Energy:  -426.31806599321203
    Total Energy =                       -426.3180659932120307
  Basis Set: CC-PVTZ
  Basis Set:
  Charge       = 0
  Multiplicity = 1
  Basis Set: CC-PVTZ
  Basis Set:

    Orbital Energies (a.u.)
    -----------------------

    Doubly Occupied:

       1A    -20.535983     2A    -11.316612     3A    -11.229626
       4A    -11.228268     5A    -11.227227     6A    -11.224251
       7A    -11.215310     8A    -11.214514     9A    -11.212255
      10A    -11.204863    11A     -1.396014    12A     -1.096163
      13A     -1.079323    14A     -1.023429    15A     -0.992115
      16A     -0.908220    17A     -0.875085    18A     -0.810072
      19A     -0.800881    20A     -0.723842    21A     -0.667102
      22A     -0.659594    23A     -0.626253    24A     -0.621907
      25A     -0.612714    26A     -0.589543    27A     -0.578205
      28A     -0.576353    29A     -0.544555    30A     -0.534876
      31A     -0.522068    32A     -0.508973    33A     -0.499598
      34A     -0.485600    35A     -0.478894    36A     -0.476371
      37A     -0.473269    38A     -0.467111    39A     -0.456948
      40A     -0.393879

  @DF-RHF Final Energy:  -426.31806665346869

   => Energetics <=

    Nuclear Repulsion Energy =            532.9826787111247768
    One-Electron Energy =               -1634.4257632633782578
    Two-Electron Energy =                 675.1250178987845629
    DFT Exchange-Correlation Energy =       0.0000000000000000
    Empirical Dispersion Energy =           0.0000000000000000
    PCM Polarization Energy =               0.0000000000000000
    EFP Energy =                            0.0000000000000000
    Total Energy =                       -426.3180666534688044
    Molecular point group: c1
  Basis Set: CC-PVTZ
  Basis Set:

  -Total Gradient:
     Atom            X                  Y                   Z
    ------   -----------------  -----------------  -----------------
       1       -0.000003991326    -0.000006978089    -0.000007647244
       2        0.000007632095     0.000012192157    -0.000002479480
       3       -0.000007252771    -0.000018046792     0.000008195734
       4       -0.000002838070    -0.000002314440     0.000006968629
       5       -0.000002808693     0.000004530519    -0.000000111876
       6        0.000025701269     0.000022146232    -0.000003045566
       7        0.000004692149    -0.000003668307     0.000002763764
       8        0.000006296283     0.000003343161    -0.000004975124
       9       -0.000055787447    -0.000050085436     0.000045451941
      10       -0.000007261369    -0.000003929170     0.000006033433
      11       -0.000002216907     0.000003032191     0.000000758285
      12       -0.000128449386    -0.001235774493     0.002460673107
      13        0.000019702777     0.000016043891    -0.000004026670
      14        0.000023529451    -0.000003174137    -0.000014523743
      15       -0.000341796019     0.002522319486    -0.003358427557
      16        0.000000349190    -0.000027009388     0.000003754742
      17        0.002769693155    -0.004160952406     0.000200267948
      18       -0.000002926862    -0.000004853619     0.000000731932
      19       -0.000011886956    -0.000006912731    -0.000017061398
      20       -0.000006220362    -0.000015541712     0.000006097185
      21       -0.002291807498     0.002942461384     0.000673701629
      22        0.000001638022     0.000003693693    -0.000000098021
      23        0.000006965758     0.000012931907     0.000002392248
      24       -0.000000863934    -0.000005259095    -0.000000580198
      25       -0.000003425208    -0.000000706211    -0.000007754321
      26        0.000001851583    -0.000001749955     0.000004579021
      27        0.000002542183     0.000004710686     0.000000814903
      28       -0.000001061106    -0.000000449324    -0.000002453305

  **** Optimization is complete! (in 11 steps) ****
    Final optimized geometry and variables:
    Molecular point group: c1

    Geometry (in Angstrom), charge = 0, multiplicity = 1:

    H            4.719637946243    -0.023570387909     2.338152528946
    C            4.279955723329    -0.646509535088     1.567822417505
    C            2.798039303112    -0.336073655955     1.386760729301
    H            4.828309640885    -0.472599032024     0.648493281705
    H            4.432273132063    -1.682420254991     1.853015833059
    C            2.141843345732    -1.201864932889     0.313683240528
    H            2.681987628477     0.710652138496     1.128144386523
    H            2.281962931094    -0.484002272656     2.332516854493
    C            0.654957351478    -0.918532708280     0.117949001622
    H            2.653685359743    -1.060466019074    -0.629849742987
    H            2.256825051675    -2.247773058127     0.582847824027
    C            0.355627153582     0.418844465645    -0.542212562733
    H            0.222113130316    -1.677944136525    -0.527685640983
    H            0.120080964101    -0.986623702106     1.059954269761
    C           -0.996043065349     1.049760741375    -0.272922412943
    O            1.150575070397     0.949442259715    -1.249317538349
    C           -2.197047519408     0.214747015422    -0.739983913700
    H           -1.005694191218     2.024498932407    -0.739692819183
    H           -1.064313891141     1.196638011010     0.802597603829
    C           -3.494546339806     0.625928804574    -0.045521277505
    H           -2.325407519430     0.355632412571    -1.808555229140
    H           -2.025273154092    -0.841884371848    -0.570824572058
    C           -4.711855439100    -0.134162284786    -0.560000910073
    H           -3.650376079795     1.692426996278    -0.181441048485
    H           -3.393949132822     0.466278498524     1.024379830087
    H           -4.861924632323     0.038261117183    -1.620335305097
    H           -4.597365217211    -1.203024727188    -0.412778106956
    H           -5.613123191254     0.175477148552    -0.044067378688

  Mulliken Charges: (a.u.)
   Center  Symbol    Alpha    Beta     Spin     Total
       1     H     0.44857  0.44857  0.00000  0.10286
       2     C     3.15192  3.15192  0.00000 -0.30384
       3     C     3.08508  3.08508  0.00000 -0.17015
       4     H     0.45162  0.45162  0.00000  0.09675
       5     H     0.45652  0.45652  0.00000  0.08695
       6     C     3.08851  3.08851  0.00000 -0.17703
       7     H     0.44711  0.44711  0.00000  0.10577
       8     H     0.45826  0.45826  0.00000  0.08348
       9     C     3.12927  3.12927  0.00000 -0.25854
      10     H     0.44312  0.44312  0.00000  0.11377
      11     H     0.44750  0.44750  0.00000  0.10499
      12     C     2.86124  2.86124  0.00000  0.27752
      13     H     0.43454  0.43454  0.00000  0.13092
      14     H     0.44313  0.44313  0.00000  0.11373
      15     C     3.09562  3.09562  0.00000 -0.19124
      16     O     4.17893  4.17893  0.00000 -0.35786
      17     C     3.10006  3.10006  0.00000 -0.20013
      18     H     0.43669  0.43669  0.00000  0.12663
      19     H     0.45191  0.45191  0.00000  0.09618
      20     C     3.08757  3.08757  0.00000 -0.17514
      21     H     0.44443  0.44443  0.00000  0.11114
      22     H     0.44857  0.44857  0.00000  0.10285
      23     C     3.14927  3.14927  0.00000 -0.29854
      24     H     0.45089  0.45089  0.00000  0.09822
      25     H     0.45443  0.45443  0.00000  0.09114
      26     H     0.45337  0.45337  0.00000  0.09326
      27     H     0.45491  0.45491  0.00000  0.09019
      28     H     0.44694  0.44694  0.00000  0.10613

   Total alpha = 40.00000, Total beta = 40.00000, Total charge = -0.00000

*** Psi4 exiting successfully. Buy a developer a beer!
