  ==> Input File <==

--------------------------------------------------------------------------
set {
	reference rhf
	basis 6-31G*
}

set_num_threads( 4 )
memory 2 gb

molecule MOL {
0 1

H	 -3.420663	 1.227371	 -1.044276
O	 -3.452007	 0.283848	 -0.965577
C	 -3.181085	 -0.079926	 0.364119
C	 -1.765924	 0.277073	 0.805136
H	 -3.327791	 -1.152017	 0.410903
H	 -3.905698	 0.375695	 1.036898
C	 -0.677594	 -0.417312	 -0.014550
H	 -1.637766	 1.358238	 0.744969
H	 -1.659588	 0.017670	 1.857098
C	 0.738335	 -0.034840	 0.421385
H	 -0.814977	 -0.178223	 -1.064632
H	 -0.802730	 -1.495410	 0.071702
C	 1.822265	 -0.738362	 -0.399735
H	 0.853533	 1.043532	 0.342250
H	 0.871597	 -0.279636	 1.474438
C	 3.258060	 -0.455774	 0.057203
H	 1.718003	 -0.459167	 -1.447053
H	 1.651028	 -1.811884	 -0.354513
C	 3.867423	 -1.540857	 0.946965
H	 3.267192	 0.485815	 0.600910
H	 3.890593	 -0.307257	 -0.815750
H	 3.249040	 -1.719960	 1.822558
H	 4.852885	 -1.245985	 1.294460
H	 3.977330	 -2.483491	 0.421108

	symmetry c1
}
set optking {
	frozen_dihedral = ("
		20 16 13 17
	")
}

ee = optimize('scf')
oeprop('DIPOLE', 'QUADRUPOLE', 'MULLIKEN_CHARGES')
f=open( 'psi4out.xyz', 'w' )
f.write( "24  " )
f.write( str(ee) + "\n" )
f.write( MOL.save_string_xyz() )
f.close()
--------------------------------------------------------------------------

    Molecular point group: c1
  Charge       = 0
  Multiplicity = 1
  Basis Set: 6-31G*
  Basis Set:
  @DF-RHF Final Energy:  -349.24455145441590
    Total Energy =                       -349.2445514544157277
    Molecular point group: c1
  Basis Set: 6-31G*
  Basis Set:
  Basis Set: 6-31G*
  Basis Set:
  @DF-RHF Final Energy:  -349.24491194597408
    Total Energy =                       -349.2449119459740814
  Basis Set: 6-31G*
  Basis Set:
  Basis Set: 6-31G*
  Basis Set:
  @DF-RHF Final Energy:  -349.24494207253565
    Total Energy =                       -349.2449420725356504
  Basis Set: 6-31G*
  Basis Set:
  Basis Set: 6-31G*
  Basis Set:
  @DF-RHF Final Energy:  -349.24496108319022
    Total Energy =                       -349.2449610831902760
  Basis Set: 6-31G*
  Basis Set:
  Basis Set: 6-31G*
  Basis Set:
  @DF-RHF Final Energy:  -349.24496577675859
    Total Energy =                       -349.2449657767584767
  Basis Set: 6-31G*
  Basis Set:
  Charge       = 0
  Multiplicity = 1
  Basis Set: 6-31G*
  Basis Set:

    Orbital Energies (a.u.)
    -----------------------

    Doubly Occupied:

       1A    -20.553645     2A    -11.267792     3A    -11.217622
       4A    -11.213602     5A    -11.213342     6A    -11.211192
       7A    -11.211085     8A    -11.207490     9A     -1.360249
      10A     -1.088056    11A     -1.047934    12A     -0.986819
      13A     -0.913562    14A     -0.845582    15A     -0.799349
      16A     -0.784367    17A     -0.678984    18A     -0.654009
      19A     -0.625188    20A     -0.616503    21A     -0.598226
      22A     -0.584391    23A     -0.557007    24A     -0.536642
      25A     -0.519222    26A     -0.511694    27A     -0.493503
      28A     -0.472475    29A     -0.467393    30A     -0.459881
      31A     -0.456188    32A     -0.451284    33A     -0.418596

  @DF-RHF Final Energy:  -349.24496570041492

   => Energetics <=

    Nuclear Repulsion Energy =            382.7416280565554416
    One-Electron Energy =               -1231.9274430677519376
    Two-Electron Energy =                 499.9408493107812319
    DFT Exchange-Correlation Energy =       0.0000000000000000
    Empirical Dispersion Energy =           0.0000000000000000
    PCM Polarization Energy =               0.0000000000000000
    EFP Energy =                            0.0000000000000000
    Total Energy =                       -349.2449657004152641
    Molecular point group: c1
  Basis Set: 6-31G*
  Basis Set:

  -Total Gradient:
     Atom            X                  Y                   Z
    ------   -----------------  -----------------  -----------------
       1        0.000000010012     0.000000742843    -0.000000550925
       2       -0.000001092833     0.000001361460     0.000001287594
       3        0.000001678730    -0.000003397298    -0.000001400811
       4        0.000003378052     0.000002265630    -0.000001501799
       5        0.000000197672    -0.000000353014     0.000000473689
       6        0.000000314084     0.000000445261    -0.000000339826
       7       -0.000005615726    -0.000001554951    -0.000007374880
       8       -0.000001375610     0.000001735765     0.000000557271
       9       -0.000000279156     0.000000877849     0.000000791730
      10       -0.000004986327    -0.000021179635    -0.000007405940
      11       -0.000000840017    -0.000000205227    -0.000001063278
      12       -0.000000239336     0.000000699039    -0.000002571478
      13       -0.001327493398     0.003377278544     0.001760255817
      14        0.000011468138    -0.000009816888    -0.000002252608
      15       -0.000004746841    -0.000006748410     0.000006082692
      16        0.000957848051     0.001202216489    -0.003657369009
      17        0.000932377224    -0.003029445229    -0.000882515185
      18       -0.000043544397     0.000019113229     0.000006432670
      19       -0.000005140180     0.000049686920    -0.000004269508
      20       -0.000521152084    -0.001620414727     0.002812295821
      21        0.000014693493     0.000004313822    -0.000007322269
      22       -0.000014869465    -0.000005854971    -0.000000167485
      23       -0.000004733102     0.000012769760     0.000002106746
      24        0.000014143019     0.000025463737    -0.000014179026

  **** Optimization is complete! (in 6 steps) ****
    Final optimized geometry and variables:
    Molecular point group: c1

    Geometry (in Angstrom), charge = 0, multiplicity = 1:

    H           -3.432854905914     1.566376722298    -1.164045047078
    O           -3.469980104109     0.622584031515    -1.091759975526
    C           -3.195989531865     0.247871290658     0.234261606818
    C           -1.776639067313     0.592457453657     0.671700494420
    H           -3.349467034918    -0.823457502878     0.274160117912
    H           -3.914746518900     0.703454337339     0.913244646591
    C           -0.696379654516    -0.101849060228    -0.158725033208
    H           -1.641982689707     1.673224652741     0.619654126854
    H           -1.667129054889     0.323831385181     1.721033171167
    C            0.723175758623     0.270053804545     0.271711177398
    H           -0.837998450374     0.145151147001    -1.206422500772
    H           -0.826414219984    -1.179900975438    -0.079250640600
    C            1.805702560054    -0.418122394843    -0.561763056726
    H            0.851295059231     1.348938353527     0.200470648621
    H            0.861282982462     0.017269994161     1.322142335884
    C            3.241299819098    -0.109517748239    -0.092103164181
    H            1.689540668772    -0.149291409202    -1.608811315294
    H            1.645300683996    -1.494413272178    -0.528029213567
    C            3.817108751960    -1.190853869645     0.825494420990
    H            3.249637962225     0.832348405902     0.451511412278
    H            3.898281480939     0.015826088536    -0.947423559138
    H            3.185254712671    -1.345992055367     1.695841977191
    H            4.806666182285    -0.919855132420     1.181238232108
    H            3.900163042520    -2.140992784850     0.305718918593

  Mulliken Charges: (a.u.)
   Center  Symbol    Alpha    Beta     Spin     Total
       1     H     0.28337  0.28337  0.00000  0.43325
       2     O     4.36829  4.36829  0.00000 -0.73657
       3     C     2.99614  2.99614  0.00000  0.00772
       4     C     3.16910  3.16910  0.00000 -0.33821
       5     H     0.41631  0.41631  0.00000  0.16738
       6     H     0.42813  0.42813  0.00000  0.14374
       7     C     3.15250  3.15250  0.00000 -0.30500
       8     H     0.42819  0.42819  0.00000  0.14362
       9     H     0.42237  0.42237  0.00000  0.15525
      10     C     3.15298  3.15298  0.00000 -0.30597
      11     H     0.41197  0.41197  0.00000  0.17607
      12     H     0.42332  0.42332  0.00000  0.15336
      13     C     3.15491  3.15491  0.00000 -0.30983
      14     H     0.42438  0.42438  0.00000  0.15125
      15     H     0.42467  0.42467  0.00000  0.15065
      16     C     3.15464  3.15464  0.00000 -0.30928
      17     H     0.42042  0.42042  0.00000  0.15916
      18     H     0.42226  0.42226  0.00000  0.15548
      19     C     3.23973  3.23973  0.00000 -0.47946
      20     H     0.42198  0.42198  0.00000  0.15604
      21     H     0.41983  0.41983  0.00000  0.16033
      22     H     0.42243  0.42243  0.00000  0.15514
      23     H     0.42058  0.42058  0.00000  0.15883
      24     H     0.42147  0.42147  0.00000  0.15705

   Total alpha = 33.00000, Total beta = 33.00000, Total charge =  0.00000
