                              Psi4 1.0.54 Driver

  ==> Input File <==

--------------------------------------------------------------------------
set {
	reference rhf
	basis cc-pvtz
}

set_num_threads( 4 )
memory 2 gb

molecule MOL {
0 1

H	 -0.874258	 1.929290	 -1.471886
C	 -1.468169	 1.187496	 -0.947812
O	 -0.775228	 0.000056	 -0.739966
H	 -2.323157	 0.945585	 -1.563138
H	 -1.830713	 1.624608	 -0.023081
C	 0.406133	 -0.000384	 0.036994
C	 1.526415	 -0.003194	 -0.997339
C	 0.498772	 1.259027	 0.900673
C	 0.495883	 -1.257378	 0.904465
H	 1.452279	 0.872071	 -1.630204
H	 1.451276	 -0.881020	 -1.626529
H	 2.497919	 -0.002741	 -0.517601
H	 0.368981	 2.144239	 0.289753
H	 1.470064	 1.313479	 1.377660
H	 -0.248448	 1.271586	 1.684297
H	 0.363971	 -2.144195	 0.296316
H	 1.467114	 -1.312636	 1.381470
H	 -0.251246	 -1.265768	 1.688235

	symmetry c1
}
set optking {
	frozen_dihedral = ("
		2 3 6 7
	")
}

ee,wfn = optimize('scf', return_wfn=True)
oeprop( wfn, 'DIPOLE', 'QUADRUPOLE', 'MULLIKEN_CHARGES')
f=open( 'psi4out.xyz', 'w' )
f.write( "18  " )
f.write( str(ee) + "\n" )
f.write( MOL.save_string_xyz() )
f.close()
--------------------------------------------------------------------------

    Molecular point group: c1
  Charge       = 0
  Multiplicity = 1
  Basis Set: CC-PVTZ
  Basis Set:
  @DF-RHF Final Energy:  -271.26926496651669
    Total Energy =                       -271.2692649665166300
    Molecular point group: c1
  Basis Set: CC-PVTZ
  Basis Set:
  Basis Set: CC-PVTZ
  Basis Set:
  @DF-RHF Final Energy:  -271.25233940576152
    Total Energy =                       -271.2523394057614041
  Basis Set: CC-PVTZ
  Basis Set:
  Basis Set: CC-PVTZ
  Basis Set:
  @DF-RHF Final Energy:  -271.27300128820946
    Total Energy =                       -271.2730012882093433
  Basis Set: CC-PVTZ
  Basis Set:
  Basis Set: CC-PVTZ
  Basis Set:
  @DF-RHF Final Energy:  -271.27375695400974
    Total Energy =                       -271.2737569540097411
  Basis Set: CC-PVTZ
  Basis Set:
  @DF-RHF Final Energy:  -271.27381469338764
    Total Energy =                       -271.2738146933875782
  Basis Set: CC-PVTZ
  Basis Set:
  @DF-RHF Final Energy:  -271.27394858390790
    Total Energy =                       -271.2739485839076679
  Basis Set: CC-PVTZ
  Basis Set:
  Basis Set: CC-PVTZ
  Basis Set:
  @DF-RHF Final Energy:  -271.27395239623280
    Total Energy =                       -271.2739523962326871
  Basis Set: CC-PVTZ
  Basis Set:
  Basis Set: CC-PVTZ
  Basis Set:
  @DF-RHF Final Energy:  -271.27396087366310
    Total Energy =                       -271.2739608736632704
  Basis Set: CC-PVTZ
  Basis Set:
  Charge       = 0
  Multiplicity = 1
  Basis Set: CC-PVTZ
  Basis Set:

    Orbital Energies (a.u.)
    -----------------------

    Doubly Occupied:

       1A    -20.538451     2A    -11.280425     3A    -11.259290
       4A    -11.211426     5A    -11.203262     6A    -11.201575
       7A     -1.370996     8A     -1.075268     9A     -0.951290
      10A     -0.936003    11A     -0.912431    12A     -0.752633
      13A     -0.657573    14A     -0.647902    15A     -0.639163
      16A     -0.586104    17A     -0.576208    18A     -0.550934
      19A     -0.539284    20A     -0.526858    21A     -0.515306
      22A     -0.491049    23A     -0.485138    24A     -0.443609
      25A     -0.400840

  @DF-RHF Final Energy:  -271.27396043692454

   => Energetics <=

    Nuclear Repulsion Energy =            272.2885662057392437
    One-Electron Energy =                -907.6190193329098292
    Two-Electron Energy =                 364.0564926902460456
    DFT Exchange-Correlation Energy =       0.0000000000000000
    Empirical Dispersion Energy =           0.0000000000000000
    PCM Polarization Energy =               0.0000000000000000
    EFP Energy =                            0.0000000000000000
    Total Energy =                       -271.2739604369245399
    Molecular point group: c1
  Basis Set: CC-PVTZ
  Basis Set:

  -Total Gradient:
     Atom            X                  Y                   Z
    ------   -----------------  -----------------  -----------------
       1        0.000001586148     0.000012106482    -0.000009418204
       2       -0.001473258726     0.000196129260     0.002996124159
       3        0.002407131980    -0.001176050867    -0.004231868185
       4       -0.000012118083    -0.000005928895    -0.000007055737
       5        0.000002903574     0.000012760118     0.000022056177
       6       -0.001228992174     0.003546565856     0.000379505830
       7        0.000317213680    -0.002582657053     0.000877173798
       8       -0.000005264703    -0.000000492828    -0.000016862412
       9        0.000018487182    -0.000002369619    -0.000012719028
      10        0.000000113766     0.000018335707     0.000001585299
      11       -0.000002840536     0.000001460101    -0.000019751434
      12       -0.000000309761    -0.000012504285     0.000011481123
      13        0.000004161439     0.000007485368    -0.000018883495
      14        0.000010439389    -0.000006055103     0.000005338807
      15       -0.000055459809     0.000013369425     0.000017327975
      16       -0.000023571093    -0.000043103120     0.000017170203
      17        0.000044403361    -0.000019590850    -0.000008714969
      18       -0.000004625637     0.000040540303    -0.000002489908

  **** Optimization is complete! (in 9 steps) ****
    Final optimized geometry and variables:
    Molecular point group: c1

    Geometry (in Angstrom), charge = 0, multiplicity = 1:

    H           -1.286825666292     1.135285829470    -1.678180148974
    C           -1.746068587407     0.520636374218    -0.908058867908
    O           -0.881302245057    -0.446521547340    -0.410187260970
    H           -2.577492627941    -0.007298982117    -1.353490697211
    H           -2.133826855548     1.171907290152    -0.132383775226
    C            0.356744246554    -0.088498200905     0.183171656938
    C            1.452295409082    -0.303047154855    -0.860969729700
    C            0.390619389174     1.341470426013     0.720729462375
    C            0.540203555450    -1.073419839486     1.335103554894
    H            1.312013651627     0.357536255845    -1.709621226081
    H            1.422603307572    -1.323202391245    -1.221161051088
    H            2.434916807675    -0.110849219203    -0.444998188606
    H            0.289039736966     2.078867765819    -0.065234373642
    H            1.341681647537     1.512981540413     1.209176503228
    H           -0.391288136467     1.507014102752     1.451658499066
    H            0.461686083533    -2.089203412196     0.969376376871
    H            1.509490647975    -0.949553281131     1.804615137236
    H           -0.228027480205    -0.925561563305     2.084287812083

  Mulliken Charges: (a.u.)
   Center  Symbol    Alpha    Beta     Spin     Total
       1     H     0.47024  0.47024  0.00000  0.05952
       2     C     3.04225  3.04225  0.00000 -0.08450
       3     O     4.19685  4.19685  0.00000 -0.39370
       4     H     0.44268  0.44268  0.00000  0.11465
       5     H     0.46758  0.46758  0.00000  0.06485
       6     C     2.87204  2.87204  0.00000  0.25593
       7     C     3.14627  3.14627  0.00000 -0.29254
       8     C     3.17548  3.17548  0.00000 -0.35097
       9     C     3.14068  3.14068  0.00000 -0.28136
      10     H     0.45114  0.45114  0.00000  0.09773
      11     H     0.44804  0.44804  0.00000  0.10392
      12     H     0.45525  0.45525  0.00000  0.08951
      13     H     0.44435  0.44435  0.00000  0.11129
      14     H     0.44312  0.44312  0.00000  0.11376
      15     H     0.44509  0.44509  0.00000  0.10981
      16     H     0.44755  0.44755  0.00000  0.10490
      17     H     0.45928  0.45928  0.00000  0.08143
      18     H     0.45211  0.45211  0.00000  0.09577

   Total alpha = 25.00000, Total beta = 25.00000, Total charge = -0.00000

*** Psi4 exiting successfully. Buy a developer a beer!
