  ==> Input File <==

--------------------------------------------------------------------------
set {
	reference rhf
	basis 6-31G*
}

set_num_threads( 4 )
memory 2 gb

molecule MOL {
0 1

O	 -1.896976	 -2.147516	 0.713610
C	 -0.852892	 -1.687394	 0.379066
C	 0.455520	 -2.439541	 0.328107
O	 -0.698257	 -0.426125	 0.001050
C	 0.324578	 -3.895847	 0.755882
H	 1.162237	 -1.905155	 0.955984
H	 0.838139	 -2.357946	 -0.684913
H	 -0.041586	 -3.972061	 1.772485
H	 1.288976	 -4.389637	 0.701812
H	 -0.368401	 -4.429084	 0.116537
C	 -1.853104	 0.406779	 0.000512
C	 -3.066105	 -0.499277	 -0.000959
H	 -1.828410	 1.043074	 -0.873618
H	 -1.829857	 1.042383	 0.875188
H	 -3.071820	 -1.133106	 -0.880383
H	 -3.972708	 0.097145	 -0.001528
H	 -3.073405	 -1.133813	 0.877999

	symmetry c1
}
set optking {
	frozen_dihedral = ("
		2 4 11 13
	")
}

ee = optimize('scf')
oeprop('DIPOLE', 'QUADRUPOLE', 'MULLIKEN_CHARGES')
f=open( 'psi4out.xyz', 'w' )
f.write( "17  " )
f.write( str(ee) + "\n" )
f.write( MOL.save_string_xyz() )
f.close()
--------------------------------------------------------------------------

    Molecular point group: c1
  Charge       = 0
  Multiplicity = 1
  Basis Set: 6-31G*
  Basis Set:
  @DF-RHF Final Energy:  -344.83836184130791
    Total Energy =                       -344.8383618413079148
    Molecular point group: c1
  Basis Set: 6-31G*
  Basis Set:
  Basis Set: 6-31G*
  Basis Set:
  @DF-RHF Final Energy:  -344.88481885861262
    Total Energy =                       -344.8848188586126184
  Basis Set: 6-31G*
  Basis Set:
  Basis Set: 6-31G*
  Basis Set:
  @DF-RHF Final Energy:  -344.89538445892174
    Total Energy =                       -344.8953844589217965
  Basis Set: 6-31G*
  Basis Set:
  Basis Set: 6-31G*
  Basis Set:
  @DF-RHF Final Energy:  -344.89659173240199
    Total Energy =                       -344.8965917324021575
  Basis Set: 6-31G*
  Basis Set:
  @DF-RHF Final Energy:  -344.89909533316234
    Total Energy =                       -344.8990953331622222
  @DF-RHF Final Energy:  -344.90083322121848
    Total Energy =                       -344.9008332212181358
  Basis Set: 6-31G*
  Basis Set:
  @DF-RHF Final Energy:  -344.90094671100678
    Total Energy =                       -344.9009467110067817
  Basis Set: 6-31G*
  Basis Set:
  Basis Set: 6-31G*
  Basis Set:
  @DF-RHF Final Energy:  -344.90097055125784
    Total Energy =                       -344.9009705512576716
  Basis Set: 6-31G*
  Basis Set:
  Basis Set: 6-31G*
  Basis Set:
  @DF-RHF Final Energy:  -344.90097307974935
    Total Energy =                       -344.9009730797494626
  Basis Set: 6-31G*
  Basis Set:
  Charge       = 0
  Multiplicity = 1
  Basis Set: 6-31G*
  Basis Set:

    Orbital Energies (a.u.)
    -----------------------

    Doubly Occupied:

       1A    -20.597816     2A    -20.540800     3A    -11.372661
       4A    -11.291355     5A    -11.234833     6A    -11.215747
       7A    -11.213773     8A     -1.460252     9A     -1.361479
      10A     -1.067538    11A     -1.028019    12A     -0.918947
      13A     -0.858063    14A     -0.742249    15A     -0.693167
      16A     -0.680267    17A     -0.668598    18A     -0.629129
      19A     -0.602441    20A     -0.566570    21A     -0.545416
      22A     -0.528192    23A     -0.522039    24A     -0.516895
      25A     -0.493590    26A     -0.490057    27A     -0.444163
      28A     -0.427592

  @DF-RHF Final Energy:  -344.90097348419272

   => Energetics <=

    Nuclear Repulsion Energy =            318.6713363729800221
    One-Electron Energy =               -1101.7213221652832544
    Two-Electron Energy =                 438.1490123081105139
    DFT Exchange-Correlation Energy =       0.0000000000000000
    Empirical Dispersion Energy =           0.0000000000000000
    PCM Polarization Energy =               0.0000000000000000
    EFP Energy =                            0.0000000000000000
    Total Energy =                       -344.9009734841927184
    Molecular point group: c1
  Basis Set: 6-31G*
  Basis Set:

  -Total Gradient:
     Atom            X                  Y                   Z
    ------   -----------------  -----------------  -----------------
       1        0.000008707648    -0.000025066584     0.000017795253
       2       -0.000469541443    -0.001077326700    -0.004038426069
       3       -0.000024481178    -0.000014706242    -0.000018223114
       4        0.000395378593     0.001098980887     0.005800448977
       5        0.000011990649    -0.000001078243     0.000010708241
       6       -0.000003970932    -0.000002083312     0.000011346024
       7        0.000008177651     0.000008530096     0.000005833020
       8       -0.000002002305     0.000003003077    -0.000005004425
       9        0.000001279105    -0.000006826713    -0.000002375730
      10        0.000002253792     0.000000809460    -0.000000012611
      11        0.002203945293     0.002828945413     0.000657754385
      12        0.000009370662     0.000035315931     0.000010148624
      13       -0.002135255402    -0.002839862650    -0.002415209105
      14       -0.000018954896     0.000005002440    -0.000015186526
      15       -0.000000315973    -0.000014118654    -0.000017633558
      16        0.000016037238    -0.000006141575    -0.000008964829
      17       -0.000002618501     0.000006623369     0.000007001441

  **** Optimization is complete! (in 10 steps) ****
    Final optimized geometry and variables:
    Molecular point group: c1

    Geometry (in Angstrom), charge = 0, multiplicity = 1:

    O           -0.703852731573    -0.802064801028     0.560419202128
    C            0.256248812086    -0.245713952303     0.135524571874
    C            1.604280802425    -0.900622881087    -0.068770613408
    O            0.314394450197     1.032202982905    -0.206746372013
    C            1.632391533731    -2.360293281023     0.366249259700
    H            2.338387055870    -0.312312869375     0.473012760145
    H            1.859008999008    -0.797384849142    -1.119490997228
    H            1.395769727925    -2.458129598328     1.418854257543
    H            2.617575323203    -2.781995639487     0.196935991545
    H            0.909933274891    -2.946645964305    -0.188223994770
    C           -0.798798916082     1.925001215839    -0.306590703067
    C           -2.188478213455     1.326739321081    -0.476128860176
    H           -0.575372502055     2.507008009433    -1.189732821706
    H           -0.762631502127     2.573011108149     0.559025443139
    H           -2.220390591318     0.626877482085    -1.302414429295
    H           -2.861326032088     2.148543171290    -0.706644376714
    H           -2.540584910627     0.823495728602     0.409646308093

  Mulliken Charges: (a.u.)
   Center  Symbol    Alpha    Beta     Spin     Total
       1     O     4.28531  4.28531  0.00000 -0.57062
       2     C     2.60508  2.60508  0.00000  0.78984
       3     C     3.20370  3.20370  0.00000 -0.40741
       4     O     4.32261  4.32261  0.00000 -0.64522
       5     C     3.23850  3.23850  0.00000 -0.47700
       6     H     0.40096  0.40096  0.00000  0.19809
       7     H     0.40241  0.40241  0.00000  0.19519
       8     H     0.41068  0.41068  0.00000  0.17865
       9     H     0.41892  0.41892  0.00000  0.16217
      10     H     0.41037  0.41037  0.00000  0.17925
      11     C     2.99113  2.99113  0.00000  0.01775
      12     C     3.25561  3.25561  0.00000 -0.51123
      13     H     0.41194  0.41194  0.00000  0.17612
      14     H     0.41352  0.41352  0.00000  0.17295
      15     H     0.41280  0.41280  0.00000  0.17440
      16     H     0.42136  0.42136  0.00000  0.15728
      17     H     0.39511  0.39511  0.00000  0.20979

   Total alpha = 28.00000, Total beta = 28.00000, Total charge = -0.00000
