  ==> Input File <==

--------------------------------------------------------------------------
set {
	reference rhf
	basis cc-pvtz
}

set_num_threads( 4 )
memory 2 gb

molecule MOL {
0 1

H	 -0.366580	 2.045936	 -0.305741
C	 0.351829	 1.335402	 0.083179
N	 -0.000018	 0.000080	 -0.334836
H	 1.327156	 1.599860	 -0.305475
H	 0.380566	 1.445403	 1.171445
C	 -1.385418	 -0.095207	 -0.727221
C	 0.886563	 -0.496212	 -1.359487
H	 -1.631922	 -1.121758	 -0.967054
H	 -2.023388	 0.219547	 0.088936
H	 -1.622681	 0.521903	 -1.598973
H	 1.909544	 -0.474800	 -1.005603
H	 0.637493	 -1.522272	 -1.598841
H	 0.836472	 0.088106	 -2.283161

	symmetry c1
}
set optking {
	frozen_dihedral = ("
		6 3 2 1
	")
}

ee = optimize('scf')
oeprop('DIPOLE', 'QUADRUPOLE', 'MULLIKEN_CHARGES')
f=open( 'psi4out.xyz', 'w' )
f.write( "13  " )
f.write( str(ee) + "\n" )
f.write( MOL.save_string_xyz() )
f.close()
--------------------------------------------------------------------------

    Molecular point group: c1
  Charge       = 0
  Multiplicity = 1
  Basis Set: CC-PVTZ
  Basis Set:
  @DF-RHF Final Energy:  -173.32787925200151
    Total Energy =                       -173.3278792520014235
    Molecular point group: c1
  Basis Set: CC-PVTZ
  Basis Set:
  Basis Set: CC-PVTZ
  Basis Set:
  @DF-RHF Final Energy:  -173.32852033323834
    Total Energy =                       -173.3285203332382594
  Basis Set: CC-PVTZ
  Basis Set:
  Basis Set: CC-PVTZ
  Basis Set:
  @DF-RHF Final Energy:  -173.32863296164228
    Total Energy =                       -173.3286329616423700
  Basis Set: CC-PVTZ
  Basis Set:
  Basis Set: CC-PVTZ
  Basis Set:
  @DF-RHF Final Energy:  -173.32863605498858
    Total Energy =                       -173.3286360549885785
  Basis Set: CC-PVTZ
  Basis Set:
  Charge       = 0
  Multiplicity = 1
  Basis Set: CC-PVTZ
  Basis Set:

    Orbital Energies (a.u.)
    -----------------------

    Doubly Occupied:

       1A    -15.537375     2A    -11.233958     3A    -11.233920
       4A    -11.233763     5A     -1.222613     6A     -0.951877
       7A     -0.950867     8A     -0.807633     9A     -0.639409
      10A     -0.630049    11A     -0.628124    12A     -0.549689
      13A     -0.545950    14A     -0.515108    15A     -0.500552
      16A     -0.499794    17A     -0.345592

  @DF-RHF Final Energy:  -173.32863646746273

   => Energetics <=

    Nuclear Repulsion Energy =            139.1102089459810713
    One-Electron Energy =                -508.8251381293233067
    Two-Electron Energy =                 196.3862927158795344
    DFT Exchange-Correlation Energy =       0.0000000000000000
    Empirical Dispersion Energy =           0.0000000000000000
    PCM Polarization Energy =               0.0000000000000000
    EFP Energy =                            0.0000000000000000
    Total Energy =                       -173.3286364674627009
    Molecular point group: c1
  Basis Set: CC-PVTZ
  Basis Set:

  -Total Gradient:
     Atom            X                  Y                   Z
    ------   -----------------  -----------------  -----------------
       1       -0.002264413801    -0.000484214667     0.003390537493
       2        0.003191107453     0.000856391308    -0.005427009967
       3       -0.001681717060    -0.001086451288     0.004885919853
       4       -0.000009505034    -0.000006251114    -0.000015169997
       5       -0.000001172035     0.000009709057     0.000007846218
       6        0.000806950395     0.000717335433    -0.002875226097
       7       -0.000025711567     0.000006044033     0.000074183774
       8       -0.000016995314    -0.000008383177    -0.000007415027
       9       -0.000018463432     0.000000436448    -0.000003439275
      10        0.000005362435     0.000004599009    -0.000003664781
      11        0.000011264709    -0.000001644643    -0.000013102895
      12        0.000007156996    -0.000010834699    -0.000014002810
      13       -0.000003863746     0.000003264300     0.000000543512

  **** Optimization is complete! (in 5 steps) ****
    Final optimized geometry and variables:
    Molecular point group: c1

    Geometry (in Angstrom), charge = 0, multiplicity = 1:

    H           -0.317108116536     1.894717421494     0.325242291567
    C            0.390936886698     1.152903024254     0.689401497478
    N            0.043784344840    -0.193996031721     0.264134339047
    H            1.379311514631     1.428371469939     0.347156449567
    H            0.385633069888     1.223105434960     1.772472431116
    C           -1.342520129992    -0.304765468636    -0.121582971163
    C            0.919977293376    -0.703457152210    -0.765432074851
    H           -1.588457008027    -1.338191041146    -0.331591905306
    H           -1.981310020327     0.028368207216     0.687316726225
    H           -1.584048422978     0.289362279671    -1.007833219811
    H            1.945547399275    -0.694561613421    -0.419637870449
    H            0.658085124333    -1.729021229903    -0.994400845180
    H            0.870318067326    -0.129386890669    -1.695748414344

  Mulliken Charges: (a.u.)
   Center  Symbol    Alpha    Beta     Spin     Total
       1     H     0.46671  0.46671  0.00000  0.06657
       2     C     3.08653  3.08653  0.00000 -0.17306
       3     N     3.59931  3.59931  0.00000 -0.19863
       4     H     0.45767  0.45767  0.00000  0.08466
       5     H     0.45092  0.45092  0.00000  0.09816
       6     C     3.09113  3.09113  0.00000 -0.18226
       7     C     3.08990  3.08990  0.00000 -0.17979
       8     H     0.45336  0.45336  0.00000  0.09328
       9     H     0.45203  0.45203  0.00000  0.09593
      10     H     0.47317  0.47317  0.00000  0.05366
      11     H     0.45227  0.45227  0.00000  0.09547
      12     H     0.45333  0.45333  0.00000  0.09334
      13     H     0.47367  0.47367  0.00000  0.05266

   Total alpha = 17.00000, Total beta = 17.00000, Total charge = -0.00000
