  ==> Input File <==

--------------------------------------------------------------------------
set {
	reference rhf
	basis 6-31G*
}

set_num_threads( 4 )
memory 2 gb

molecule MOL {
0 1

H	 -0.907216	 -1.952109	 -1.411327
C	 -0.921314	 -0.927895	 -1.771810
O	 -0.774054	 0.001095	 -0.743181
H	 -1.887603	 -0.739742	 -2.220381
H	 -0.162291	 -0.819409	 -2.540775
C	 0.406953	 0.000033	 0.038965
C	 1.527284	 -0.003667	 -0.998752
C	 0.498933	 1.262172	 0.902524
C	 0.494271	 -1.259566	 0.906664
H	 1.452513	 0.873252	 -1.631882
H	 1.448863	 -0.881882	 -1.629595
H	 2.502020	 -0.005104	 -0.521731
H	 0.364280	 2.147110	 0.289513
H	 1.472180	 1.321775	 1.378800
H	 -0.247853	 1.275162	 1.689097
H	 0.356778	 -2.146106	 0.296587
H	 1.467182	 -1.320941	 1.383330
H	 -0.252763	 -1.267328	 1.693119

	symmetry c1
}
set optking {
	frozen_dihedral = ("
		2 3 6 7
	")
}

ee = optimize('scf')
oeprop('DIPOLE', 'QUADRUPOLE', 'MULLIKEN_CHARGES')
f=open( 'psi4out.xyz', 'w' )
f.write( "18  " )
f.write( str(ee) + "\n" )
f.write( MOL.save_string_xyz() )
f.close()
--------------------------------------------------------------------------

    Molecular point group: c1
  Charge       = 0
  Multiplicity = 1
  Basis Set: 6-31G*
  Basis Set:
  @DF-RHF Final Energy:  -271.16475721302845
    Total Energy =                       -271.1647572130284516
    Molecular point group: c1
  Basis Set: 6-31G*
  Basis Set:
  Basis Set: 6-31G*
  Basis Set:
  @DF-RHF Final Energy:  -271.17029931182026
    Total Energy =                       -271.1702993118200311
  Basis Set: 6-31G*
  Basis Set:
  Basis Set: 6-31G*
  Basis Set:
  @DF-RHF Final Energy:  -271.17414107873276
    Total Energy =                       -271.1741410787327595
  Basis Set: 6-31G*
  Basis Set:
  Basis Set: 6-31G*
  Basis Set:
  @DF-RHF Final Energy:  -271.17498237545527
    Total Energy =                       -271.1749823754553290
  Basis Set: 6-31G*
  Basis Set:
  @DF-RHF Final Energy:  -271.17521562823470
    Total Energy =                       -271.1752156282345823
  @DF-RHF Final Energy:  -271.17532604659709
    Total Energy =                       -271.1753260465971493
  Basis Set: 6-31G*
  Basis Set:
  @DF-RHF Final Energy:  -271.17537885365130
    Total Energy =                       -271.1753788536514094
  Basis Set: 6-31G*
  Basis Set:
  Basis Set: 6-31G*
  Basis Set:
  @DF-RHF Final Energy:  -271.17538211523566
    Total Energy =                       -271.1753821152356068
  Basis Set: 6-31G*
  Basis Set:
  Basis Set: 6-31G*
  Basis Set:
  @DF-RHF Final Energy:  -271.17538071306444
    Total Energy =                       -271.1753807130644418
  Basis Set: 6-31G*
  Basis Set:
  Charge       = 0
  Multiplicity = 1
  Basis Set: 6-31G*
  Basis Set:

    Orbital Energies (a.u.)
    -----------------------

    Doubly Occupied:

       1A    -20.546672     2A    -11.281307     3A    -11.260829
       4A    -11.210302     5A    -11.207094     6A    -11.203354
       7A     -1.369969     8A     -1.073032     9A     -0.946941
      10A     -0.938731    11A     -0.912463    12A     -0.752279
      13A     -0.655469    14A     -0.644603    15A     -0.637643
      16A     -0.591817    17A     -0.574279    18A     -0.552566
      19A     -0.534299    20A     -0.524313    21A     -0.514773
      22A     -0.488653    23A     -0.486052    24A     -0.439479
      25A     -0.403474

  @DF-RHF Final Energy:  -271.17538248079507

   => Energetics <=

    Nuclear Repulsion Energy =            272.3374497848360534
    One-Electron Energy =                -907.5248771327619579
    Two-Electron Energy =                 364.0120448671308395
    DFT Exchange-Correlation Energy =       0.0000000000000000
    Empirical Dispersion Energy =           0.0000000000000000
    PCM Polarization Energy =               0.0000000000000000
    EFP Energy =                            0.0000000000000000
    Total Energy =                       -271.1753824807950650
    Molecular point group: c1
  Basis Set: 6-31G*
  Basis Set:

  -Total Gradient:
     Atom            X                  Y                   Z
    ------   -----------------  -----------------  -----------------
       1       -0.000000435149    -0.000000321478    -0.000000887785
       2        0.000266752121     0.000468804516    -0.000453401395
       3       -0.000406251250    -0.000933220166     0.000663829445
       4       -0.000000782783    -0.000000393986    -0.000001941541
       5        0.000000461931    -0.000000224859     0.000000854361
       6        0.000161725981     0.001066355993    -0.000182860506
       7       -0.000015351507    -0.000603618264    -0.000026469605
       8       -0.000006295317     0.000000959187    -0.000002286386
       9       -0.000002816738     0.000001374297    -0.000000449272
      10        0.000001732397     0.000000219290     0.000001230510
      11        0.000000548313    -0.000000212644    -0.000002729494
      12       -0.000001681816    -0.000000275427    -0.000000131888
      13        0.000000605486     0.000002971226     0.000002590951
      14       -0.000000228799     0.000000577310    -0.000001861420
      15        0.000000104312     0.000001188562     0.000001113075
      16        0.000000550216    -0.000000059040     0.000002686283
      17        0.000000192031     0.000000227686     0.000000861746
      18        0.000001170575    -0.000004352203    -0.000000147079

  **** Optimization is complete! (in 10 steps) ****
    Final optimized geometry and variables:
    Molecular point group: c1

    Geometry (in Angstrom), charge = 0, multiplicity = 1:

    H           -1.080570329056    -1.737580696958    -1.154333401723
    C           -1.235412970404    -0.699907123672    -1.435929754112
    O           -0.984029610161     0.184495730544    -0.388423338890
    H           -2.275814965259    -0.573406110571    -1.704282917015
    H           -0.628375110380    -0.483877987605    -2.309880353356
    C            0.260473244887     0.132547138308     0.287299057236
    C            1.440157078973     0.144732097264    -0.689512362173
    C            0.270896266092     1.400775848886     1.137175468680
    C            0.319096746446    -1.104194126115     1.189835118381
    H            1.355032594338     0.978422009576    -1.378981501921
    H            1.502502722234    -0.771427176629    -1.266947058557
    H            2.372580118600     0.249863992599    -0.144858351617
    H            0.219318373865     2.278060558419     0.502097150417
    H            1.171822159332     1.460414872655     1.739337172077
    H           -0.588333298048     1.412778455895     1.798103451951
    H            0.319157303671    -2.024698085485     0.615845557019
    H            1.222357745910    -1.095584352766     1.791672067543
    H           -0.536622362408    -1.120236511308     1.855926540179

  Mulliken Charges: (a.u.)
   Center  Symbol    Alpha    Beta     Spin     Total
       1     H     0.43112  0.43112  0.00000  0.13775
       2     C     3.07929  3.07929  0.00000 -0.15858
       3     O     4.31897  4.31897  0.00000 -0.63794
       4     H     0.41277  0.41277  0.00000  0.17445
       5     H     0.42799  0.42799  0.00000  0.14402
       6     C     2.84258  2.84258  0.00000  0.31484
       7     C     3.25148  3.25148  0.00000 -0.50296
       8     C     3.23296  3.23296  0.00000 -0.46591
       9     C     3.24239  3.24239  0.00000 -0.48479
      10     H     0.41363  0.41363  0.00000  0.17274
      11     H     0.41928  0.41928  0.00000  0.16144
      12     H     0.41789  0.41789  0.00000  0.16422
      13     H     0.41508  0.41508  0.00000  0.16983
      14     H     0.42511  0.42511  0.00000  0.14977
      15     H     0.41338  0.41338  0.00000  0.17324
      16     H     0.42096  0.42096  0.00000  0.15809
      17     H     0.42170  0.42170  0.00000  0.15660
      18     H     0.41341  0.41341  0.00000  0.17318

   Total alpha = 25.00000, Total beta = 25.00000, Total charge =  0.00000
