  ==> Input File <==

--------------------------------------------------------------------------
set {
	reference rhf
	basis 6-31G*
}

set_num_threads( 4 )
memory 2 gb

molecule MOL {
0 1

H	 2.591676	 2.013956	 0.335017
O	 3.341076	 1.666752	 -0.126416
C	 3.569581	 0.339145	 0.272707
C	 2.539767	 -0.640285	 -0.279495
H	 4.553106	 0.084646	 -0.100901
H	 3.608576	 0.269204	 1.359154
C	 1.115811	 -0.397273	 0.226630
H	 2.556196	 -0.582511	 -1.364741
H	 2.852081	 -1.648031	 -0.010655
C	 0.737435	 -1.316219	 1.391614
H	 0.416291	 -0.542338	 -0.591900
H	 1.016536	 0.640917	 0.543878
C	 -0.648711	 -1.056341	 1.992782
H	 0.799337	 -2.352637	 1.064731
H	 1.480597	 -1.201991	 2.177975
C	 -1.823620	 -1.365491	 1.060852
H	 -0.750420	 -1.661484	 2.891266
H	 -0.710263	 -0.019233	 2.319059
C	 -3.184205	 -1.191729	 1.739123
H	 -1.733134	 -2.387653	 0.696013
H	 -1.784275	 -0.724269	 0.183590
C	 -4.358863	 -1.493495	 0.809187
H	 -3.237754	 -1.841400	 2.610069
H	 -3.272502	 -0.173697	 2.112888
H	 -4.317092	 -2.515749	 0.443842
H	 -5.308368	 -1.363385	 1.319232
H	 -4.354872	 -0.834642	 -0.054677

	symmetry c1
}
set optking {
	frozen_dihedral = ("
		10 7 4 8
	")
}

ee = optimize('scf')
oeprop('DIPOLE', 'QUADRUPOLE', 'MULLIKEN_CHARGES')
f=open( 'psi4out.xyz', 'w' )
f.write( "27  " )
f.write( str(ee) + "\n" )
f.write( MOL.save_string_xyz() )
f.close()
--------------------------------------------------------------------------

    Molecular point group: c1
  Charge       = 0
  Multiplicity = 1
  Basis Set: 6-31G*
  Basis Set:
  @DF-RHF Final Energy:  -388.27710460748966
    Total Energy =                       -388.2771046074901733
    Molecular point group: c1
  Basis Set: 6-31G*
  Basis Set:
  Basis Set: 6-31G*
  Basis Set:
  @DF-RHF Final Energy:  -388.27737919823778
    Total Energy =                       -388.2773791982376679
  Basis Set: 6-31G*
  Basis Set:
  Basis Set: 6-31G*
  Basis Set:
  @DF-RHF Final Energy:  -388.27759887133948
    Total Energy =                       -388.2775988713393645
  Basis Set: 6-31G*
  Basis Set:
  Basis Set: 6-31G*
  Basis Set:
  @DF-RHF Final Energy:  -388.27761370674369
    Total Energy =                       -388.2776137067437503
  Basis Set: 6-31G*
  Basis Set:
  Basis Set: 6-31G*
  Basis Set:
  @DF-RHF Final Energy:  -388.27761179557018
    Total Energy =                       -388.2776117955711470
  Basis Set: 6-31G*
  Basis Set:
  Basis Set: 6-31G*
  Basis Set:
  @DF-RHF Final Energy:  -388.27762031463698
    Total Energy =                       -388.2776203146364651
  Basis Set: 6-31G*
  Basis Set:
  Charge       = 0
  Multiplicity = 1
  Basis Set: 6-31G*
  Basis Set:

    Orbital Energies (a.u.)
    -----------------------

    Doubly Occupied:

       1A    -20.551449     2A    -11.267153     3A    -11.221304
       4A    -11.219201     5A    -11.217000     6A    -11.216724
       7A    -11.215560     8A    -11.215061     9A    -11.209835
      10A     -1.358523    11A     -1.095980    12A     -1.061255
      13A     -1.011115    14A     -0.947986    15A     -0.890648
      16A     -0.824206    17A     -0.801162    18A     -0.777460
      19A     -0.696524    20A     -0.647551    21A     -0.635031
      22A     -0.613021    23A     -0.606844    24A     -0.585803
      25A     -0.574263    26A     -0.559540    27A     -0.542272
      28A     -0.525408    29A     -0.512170    30A     -0.496440
      31A     -0.486512    32A     -0.474583    33A     -0.468747
      34A     -0.461823    35A     -0.448168    36A     -0.439561
      37A     -0.425873

  @DF-RHF Final Energy:  -388.27762103616067

   => Energetics <=

    Nuclear Repulsion Energy =            459.6491952112741046
    One-Electron Energy =               -1437.2501240754618266
    Two-Electron Energy =                 589.3233078280272821
    DFT Exchange-Correlation Energy =       0.0000000000000000
    Empirical Dispersion Energy =           0.0000000000000000
    PCM Polarization Energy =               0.0000000000000000
    EFP Energy =                            0.0000000000000000
    Total Energy =                       -388.2776210361604399
    Molecular point group: c1
  Basis Set: 6-31G*
  Basis Set:

  -Total Gradient:
     Atom            X                  Y                   Z
    ------   -----------------  -----------------  -----------------
       1       -0.000003735586     0.000047173003    -0.000009839110
       2       -0.000100865680     0.000015098886     0.000061713826
       3        0.000107569144    -0.000086956881    -0.000103317869
       4        0.000272901390     0.003173881855    -0.000295498226
       5        0.000034299946    -0.000077752330     0.000042407062
       6       -0.000048509120     0.000044369906    -0.000034178182
       7        0.000871537447     0.001359701628     0.001943187982
       8       -0.000498681134    -0.002955288547    -0.000161830657
       9        0.000017658271     0.000000268769     0.000022555399
      10       -0.000669456796    -0.001519950456    -0.001434950264
      11       -0.000004125139    -0.000010212532    -0.000024205171
      12        0.000027290126     0.000005440157    -0.000003989216
      13       -0.000010251989    -0.000045320661    -0.000004889074
      14        0.000002155419    -0.000005973550     0.000003178755
      15       -0.000006455645     0.000001584162     0.000000751883
      16        0.000003597285     0.000044582011    -0.000007194556
      17       -0.000007623427     0.000005048022     0.000014833781
      18        0.000002164472    -0.000000295572    -0.000023894317
      19        0.000003932763    -0.000005747090     0.000009311715
      20        0.000009190870     0.000016379001    -0.000005223417
      21       -0.000000319366     0.000012171781     0.000002873466
      22        0.000000245132    -0.000022359291     0.000006744037
      23        0.000000536249     0.000008662097     0.000013397547
      24       -0.000003133714     0.000001057472    -0.000013207517
      25       -0.000003221263    -0.000001851538    -0.000005387017
      26       -0.000000187961    -0.000004804045     0.000001110935
      27        0.000003488304     0.000001093749     0.000005538209

  **** Optimization is complete! (in 7 steps) ****
    Final optimized geometry and variables:
    Molecular point group: c1

    Geometry (in Angstrom), charge = 0, multiplicity = 1:

    H            2.410446242268     2.608700428496    -0.598163789314
    O            3.209258645937     2.240401250552    -0.946620415031
    C            3.380948304111     0.931914642163    -0.465940291092
    C            2.372812969177    -0.055856922142    -1.042408492400
    H            4.382456996439     0.643270009002    -0.757611358958
    H            3.344867165316     0.918008236285     0.622840220350
    C            0.924542695353     0.145775971774    -0.553497851768
    H            2.417833838117    -0.004745638287    -2.125636033417
    H            2.697961152876    -1.060952073740    -0.779578611738
    C            0.551150236199    -0.777027163302     0.611556266518
    H            0.242711461911    -0.027316110133    -1.379391558902
    H            0.764073191390     1.181619184823    -0.256540664874
    C           -0.829505984613    -0.516904411762     1.224153867747
    H            0.607009978088    -1.809980159304     0.273197249529
    H            1.299168063838    -0.676487721392     1.396145353514
    C           -2.010530306354    -0.792959905112     0.289555762596
    H           -0.934026995133    -1.140104692456     2.109890068719
    H           -0.879594259892     0.513587364775     1.572909424486
    C           -3.366788260349    -0.628982107712     0.978852694947
    H           -1.928430679310    -1.805669433051    -0.102857867403
    H           -1.970417653098    -0.128498007775    -0.570055889172
    C           -4.547434828361    -0.903422020063     0.048066548495
    H           -3.419048412704    -1.298599110587     1.834661843537
    H           -3.448450919443     0.380450528615     1.376661179166
    H           -4.512364158267    -1.917072720282    -0.341212176117
    H           -5.493711915818    -0.780940123795     0.565901814026
    H           -4.544495349004    -0.224529578510    -0.800080058155

  Mulliken Charges: (a.u.)
   Center  Symbol    Alpha    Beta     Spin     Total
       1     H     0.28002  0.28002  0.00000  0.43996
       2     O     4.37138  4.37138  0.00000 -0.74275
       3     C     2.99720  2.99720  0.00000  0.00560
       4     C     3.16677  3.16677  0.00000 -0.33354
       5     H     0.41452  0.41452  0.00000  0.17096
       6     H     0.43184  0.43184  0.00000  0.13632
       7     C     3.15984  3.15984  0.00000 -0.31968
       8     H     0.41168  0.41168  0.00000  0.17664
       9     H     0.42197  0.42197  0.00000  0.15606
      10     C     3.15487  3.15487  0.00000 -0.30974
      11     H     0.41413  0.41413  0.00000  0.17173
      12     H     0.43393  0.43393  0.00000  0.13214
      13     C     3.15361  3.15361  0.00000 -0.30723
      14     H     0.42157  0.42157  0.00000  0.15686
      15     H     0.42241  0.42241  0.00000  0.15518
      16     C     3.15290  3.15290  0.00000 -0.30580
      17     H     0.42113  0.42113  0.00000  0.15774
      18     H     0.42476  0.42476  0.00000  0.15049
      19     C     3.15120  3.15120  0.00000 -0.30241
      20     H     0.42416  0.42416  0.00000  0.15168
      21     H     0.42207  0.42207  0.00000  0.15587
      22     C     3.23925  3.23925  0.00000 -0.47849
      23     H     0.42295  0.42295  0.00000  0.15410
      24     H     0.42320  0.42320  0.00000  0.15359
      25     H     0.42167  0.42167  0.00000  0.15667
      26     H     0.41914  0.41914  0.00000  0.16172
      27     H     0.42182  0.42182  0.00000  0.15635

   Total alpha = 37.00000, Total beta = 37.00000, Total charge = -0.00000
