                              Psi4 1.0.54 Driver

  ==> Input File <==

--------------------------------------------------------------------------
set {
	reference rhf
	basis cc-pvtz
}

set_num_threads( 4 )
memory 2 gb

molecule MOL {
0 1

O	 1.847685	 1.294399	 -0.000190
C	 1.704209	 0.119472	 -0.000093
C	 0.380337	 -0.600947	 -0.000234
O	 2.715427	 -0.733672	 0.000025
C	 -0.824290	 0.329213	 -0.000115
H	 0.371455	 -1.255476	 -0.865660
H	 0.371410	 -1.255787	 0.864952
C	 -0.457511	 1.754040	 0.404064
H	 -1.577934	 -0.062277	 0.673702
H	 -1.274735	 0.330572	 -0.986212
C	 -1.653158	 2.702125	 0.409537
H	 -0.004025	 1.745337	 1.392763
H	 0.300947	 2.139560	 -0.273693
C	 -1.286733	 4.126059	 0.813958
H	 -2.410935	 2.318546	 1.086883
H	 -2.105898	 2.712857	 -0.577920
H	 -0.862554	 4.152893	 1.812250
H	 -2.157067	 4.771979	 0.807686
H	 -0.555401	 4.550471	 0.134058
C	 4.020999	 -0.192556	 0.000019
H	 4.182809	 0.412891	 -0.879449
H	 4.692590	 -1.035653	 0.000152
H	 4.182726	 0.413087	 0.879368

	symmetry c1
}
set optking {
	frozen_dihedral = ("
		9 5 3 6
	")
}

ee,wfn = optimize('scf', return_wfn=True)
oeprop( wfn, 'DIPOLE', 'QUADRUPOLE', 'MULLIKEN_CHARGES')
f=open( 'psi4out.xyz', 'w' )
f.write( "23  " )
f.write( str(ee) + "\n" )
f.write( MOL.save_string_xyz() )
f.close()
--------------------------------------------------------------------------

    Molecular point group: c1
  Charge       = 0
  Multiplicity = 1
  Basis Set: CC-PVTZ
  Basis Set:
  @DF-RHF Final Energy:  -423.09479112602151
    Total Energy =                       -423.0947911260216188
    Molecular point group: c1
  Basis Set: CC-PVTZ
  Basis Set:
  Basis Set: CC-PVTZ
  Basis Set:
  @DF-RHF Final Energy:  -423.11409426714255
    Total Energy =                       -423.1140942671429457
  Basis Set: CC-PVTZ
  Basis Set:
  Basis Set: CC-PVTZ
  Basis Set:
  @DF-RHF Final Energy:  -423.11742157871407
    Total Energy =                       -423.1174215787140156
  Basis Set: CC-PVTZ
  Basis Set:
  Basis Set: CC-PVTZ
  Basis Set:
  @DF-RHF Final Energy:  -423.11569233242915
    Total Energy =                       -423.1156923324289210
  Basis Set: CC-PVTZ
  Basis Set:
  @DF-RHF Final Energy:  -423.11932594041690
    Total Energy =                       -423.1193259404168430
  @DF-RHF Final Energy:  -423.11962450802957
    Total Energy =                       -423.1196245080295739
  @DF-RHF Final Energy:  -423.12020903249811
    Total Energy =                       -423.1202090324981100
  @DF-RHF Final Energy:  -423.12048532135333
    Total Energy =                       -423.1204853213532715
  @DF-RHF Final Energy:  -423.12124709292669
    Total Energy =                       -423.1212470929269784
  @DF-RHF Final Energy:  -423.12173311274358
    Total Energy =                       -423.1217331127435273
  @DF-RHF Final Energy:  -423.12212647900384
    Total Energy =                       -423.1221264790041232
  @DF-RHF Final Energy:  -423.12078308882616
    Total Energy =                       -423.1207830888263288
  @DF-RHF Final Energy:  -423.12243458525410
    Total Energy =                       -423.1224345852541546
  @DF-RHF Final Energy:  -423.12261429571731
    Total Energy =                       -423.1226142957170850
  @DF-RHF Final Energy:  -423.12250267393694
    Total Energy =                       -423.1225026739371060
  @DF-RHF Final Energy:  -423.12284015575506
    Total Energy =                       -423.1228401557548295
  @DF-RHF Final Energy:  -423.12288973810843
    Total Energy =                       -423.1228897381084835
  @DF-RHF Final Energy:  -423.12294591598783
    Total Energy =                       -423.1229459159878843
  Basis Set: CC-PVTZ
  Basis Set:
  @DF-RHF Final Energy:  -423.12296077190342
    Total Energy =                       -423.1229607719035357
  Basis Set: CC-PVTZ
  Basis Set:
  Basis Set: CC-PVTZ
  Basis Set:
  @DF-RHF Final Energy:  -423.12296986867824
    Total Energy =                       -423.1229698686784104
  Basis Set: CC-PVTZ
  Basis Set:
  Basis Set: CC-PVTZ
  Basis Set:
  @DF-RHF Final Energy:  -423.12297103700547
    Total Energy =                       -423.1229710370063231
  Basis Set: CC-PVTZ
  Basis Set:
  Charge       = 0
  Multiplicity = 1
  Basis Set: CC-PVTZ
  Basis Set:

    Orbital Energies (a.u.)
    -----------------------

    Doubly Occupied:

       1A    -20.597877     2A    -20.530595     3A    -11.363325
       4A    -11.278251     5A    -11.232249     6A    -11.227778
       7A    -11.216140     8A    -11.215057     9A    -11.208104
      10A     -1.471789    11A     -1.363730    12A     -1.094221
      13A     -1.042840    14A     -0.984598    15A     -0.936129
      16A     -0.847702    17A     -0.801489    18A     -0.769802
      19A     -0.692569    20A     -0.680856    21A     -0.675003
      22A     -0.652355    23A     -0.608084    24A     -0.600700
      25A     -0.577616    26A     -0.568329    27A     -0.548884
      28A     -0.531794    29A     -0.526133    30A     -0.508109
      31A     -0.490425    32A     -0.473174    33A     -0.468381
      34A     -0.459089    35A     -0.453279    36A     -0.433711

  @DF-RHF Final Energy:  -423.12297184481588

   => Energetics <=

    Nuclear Repulsion Energy =            471.7343323617021724
    One-Electron Energy =               -1511.4542721060906842
    Two-Electron Energy =                 616.5969678995732011
    DFT Exchange-Correlation Energy =       0.0000000000000000
    Empirical Dispersion Energy =           0.0000000000000000
    PCM Polarization Energy =               0.0000000000000000
    EFP Energy =                            0.0000000000000000
    Total Energy =                       -423.1229718448153108
    Molecular point group: c1
  Basis Set: CC-PVTZ
  Basis Set:

  -Total Gradient:
     Atom            X                  Y                   Z
    ------   -----------------  -----------------  -----------------
       1        0.000086318448     0.000043950854    -0.000158680253
       2       -0.000078162884    -0.000018702622     0.000104195961
       3       -0.003413483692    -0.003630643242     0.002953553461
       4        0.000027961772    -0.000036551155     0.000052127314
       5       -0.001290731837    -0.001519901036    -0.005292453678
       6        0.003059569408     0.003323781303    -0.001757311207
       7       -0.000042089182    -0.000004501385    -0.000002027700
       8       -0.000032386474     0.000006094241     0.000024452602
       9        0.001655616907     0.001861571162     0.004104866839
      10        0.000015693110    -0.000045038807    -0.000007447446
      11        0.000015410656    -0.000009522113    -0.000025745298
      12        0.000005704661    -0.000000546006    -0.000019521181
      13        0.000015981573     0.000026192699    -0.000001789213
      14       -0.000000417845    -0.000000866572     0.000017904765
      15        0.000004235045     0.000000689875     0.000000112201
      16       -0.000009575027    -0.000005926245    -0.000011619572
      17        0.000004483441     0.000008107527     0.000007145277
      18        0.000000508439     0.000003410749     0.000001143484
      19       -0.000003614240    -0.000002934784    -0.000000218663
      20       -0.000032386409     0.000000459563     0.000008127284
      21        0.000006195949    -0.000018913509    -0.000020107026
      22        0.000007150218    -0.000006931541     0.000031026876
      23       -0.000001982039     0.000026721041    -0.000007734829

  **** Optimization is complete! (in 22 steps) ****
    Final optimized geometry and variables:
    Molecular point group: c1

    Geometry (in Angstrom), charge = 0, multiplicity = 1:

    O            1.645308936232    -0.547647818055    -1.333736321045
    C            1.051733807112    -1.039903855058    -0.433820418029
    C           -0.321866160627    -1.653361710820    -0.557660826301
    O            1.532469850877    -1.108330811582     0.795891302382
    C           -1.469230438437    -0.610283053897    -0.568300806781
    H           -0.302473939735    -2.172634345414    -1.505611907668
    H           -0.459553766494    -2.365715156092     0.241551216132
    C           -1.158068883565     0.733682973155     0.093394796847
    H           -2.306800145280    -1.042564557107    -0.032811143741
    H           -1.785902571377    -0.437143039516    -1.588732459710
    C           -2.365011911337     1.667741334486     0.105394287704
    H           -0.824265637055     0.568618426610     1.114173322711
    H           -0.340098074766     1.220525189774    -0.427687232982
    C           -2.068913723358     3.015394220488     0.754903372207
    H           -3.187089453579     1.188431295002     0.629987705547
    H           -2.705398637356     1.826742752745    -0.914086527983
    H           -1.757571361996     2.892477511680     1.786962213185
    H           -2.944037703512     3.654854048062     0.747824848027
    H           -1.274559356384     3.535852048796     0.230685637799
    C            2.809843476002    -0.547382034563     1.023753188203
    H            3.554184782855    -1.035878815805     0.412806446195
    H            3.022357080914    -0.705706394369     2.068648287643
    H            2.807615306304     0.508964950965     0.799231486171

  Mulliken Charges: (a.u.)
   Center  Symbol    Alpha    Beta     Spin     Total
       1     O     4.20932  4.20932  0.00000 -0.41863
       2     C     2.79022  2.79022  0.00000  0.41955
       3     C     3.09375  3.09375  0.00000 -0.18749
       4     O     4.15345  4.15345  0.00000 -0.30690
       5     C     3.09418  3.09418  0.00000 -0.18837
       6     H     0.43680  0.43680  0.00000  0.12639
       7     H     0.44042  0.44042  0.00000  0.11916
       8     C     3.10010  3.10010  0.00000 -0.20021
       9     H     0.45040  0.45040  0.00000  0.09920
      10     H     0.44681  0.44681  0.00000  0.10638
      11     C     3.08654  3.08654  0.00000 -0.17308
      12     H     0.44805  0.44805  0.00000  0.10390
      13     H     0.44535  0.44535  0.00000  0.10930
      14     C     3.15017  3.15017  0.00000 -0.30033
      15     H     0.45453  0.45453  0.00000  0.09095
      16     H     0.45340  0.45340  0.00000  0.09320
      17     H     0.45545  0.45545  0.00000  0.08910
      18     H     0.44816  0.44816  0.00000  0.10368
      19     H     0.45376  0.45376  0.00000  0.09248
      20     C     3.04003  3.04003  0.00000 -0.08005
      21     H     0.45035  0.45035  0.00000  0.09930
      22     H     0.44509  0.44509  0.00000  0.10981
      23     H     0.45366  0.45366  0.00000  0.09268

   Total alpha = 36.00000, Total beta = 36.00000, Total charge =  0.00000

*** Psi4 exiting successfully. Buy a developer a beer!
