                              Psi4 1.0.54 Driver

  ==> Input File <==

--------------------------------------------------------------------------
set {
	reference rhf
	basis cc-pvtz
}

set_num_threads( 4 )
memory 2 gb

molecule MOL {
0 1

H	 -4.340537	 -0.784487	 0.000000
O	 -3.958786	 0.074640	 0.000000
C	 -2.613554	 0.009900	 0.000000
C	 -2.031558	 -1.228648	 0.213204
C	 -1.814846	 1.119000	 -0.202108
H	 -2.660810	 -2.082269	 0.368880
C	 -0.659939	 -1.352154	 0.223330
H	 -2.259028	 2.083207	 -0.368162
C	 -0.437606	 0.993227	 -0.191630
H	 -0.211617	 -2.311070	 0.388418
C	 0.134443	 -0.239722	 0.020672
H	 0.177760	 1.855971	 -0.348795
Br	 2.024637	 -0.415280	 0.035571

	symmetry c1
}
set optking {
	frozen_dihedral = ("
		4 3 2 1
	")
}

ee,wfn = optimize('scf', return_wfn=True)
oeprop( wfn, 'DIPOLE', 'QUADRUPOLE', 'MULLIKEN_CHARGES')
f=open( 'psi4out.xyz', 'w' )
f.write( "13  " )
f.write( str(ee) + "\n" )
f.write( MOL.save_string_xyz() )
f.close()
--------------------------------------------------------------------------

    Molecular point group: c1
  Charge       = 0
  Multiplicity = 1
  Basis Set: CC-PVTZ
  Basis Set:
  @DF-RHF Final Energy: -2877.54480124692782
    Total Energy =                      -2877.5448012469269088
    Molecular point group: c1
  Basis Set: CC-PVTZ
  Basis Set:
  Basis Set: CC-PVTZ
  Basis Set:
  @DF-RHF Final Energy: -2877.54671338058051
    Total Energy =                      -2877.5467133805759659
  Basis Set: CC-PVTZ
  Basis Set:
  Basis Set: CC-PVTZ
  Basis Set:
  @DF-RHF Final Energy: -2877.54688110797360
    Total Energy =                      -2877.5468811079708757
  Basis Set: CC-PVTZ
  Basis Set:
  Basis Set: CC-PVTZ
  Basis Set:
  @DF-RHF Final Energy: -2877.54690544743562
    Total Energy =                      -2877.5469054474383483
  Basis Set: CC-PVTZ
  Basis Set:
  Basis Set: CC-PVTZ
  Basis Set:
  @DF-RHF Final Energy: -2877.54691029767218
    Total Energy =                      -2877.5469102976721842
  Basis Set: CC-PVTZ
  Basis Set:
  Charge       = 0
  Multiplicity = 1
  Basis Set: CC-PVTZ
  Basis Set:

    Orbital Energies (a.u.)
    -----------------------

    Doubly Occupied:

       1A   -490.018423     2A    -65.158744     3A    -58.513970
       4A    -58.512602     5A    -58.512598     6A    -20.596683
       7A    -11.311941     8A    -11.287712     9A    -11.254030
      10A    -11.252280    11A    -11.242802    12A    -11.237433
      13A     -9.832539    14A     -7.444158    15A     -7.437410
      16A     -7.437337    17A     -3.187847    18A     -3.184290
      19A     -3.184196    20A     -3.175543    21A     -3.175539
      22A     -1.428223    23A     -1.179876    24A     -1.066734
      25A     -1.042214    26A     -0.970517    27A     -0.869871
      28A     -0.828176    29A     -0.758365    30A     -0.689908
      31A     -0.653984    32A     -0.627563    33A     -0.610246
      34A     -0.608648    35A     -0.580900    36A     -0.522492
      37A     -0.513734    38A     -0.501441    39A     -0.427811
      40A     -0.413598    41A     -0.360410    42A     -0.317405

  @DF-RHF Final Energy: -2877.54691061705898

   => Energetics <=

    Nuclear Repulsion Energy =            525.5178292048900630
    One-Electron Energy =               -5042.2690922736601351
    Two-Electron Energy =                1639.2043524517096102
    DFT Exchange-Correlation Energy =       0.0000000000000000
    Empirical Dispersion Energy =           0.0000000000000000
    PCM Polarization Energy =               0.0000000000000000
    EFP Energy =                            0.0000000000000000
    Total Energy =                      -2877.5469106170603482
    Molecular point group: c1
  Basis Set: CC-PVTZ
  Basis Set:

  -Total Gradient:
     Atom            X                  Y                   Z
    ------   -----------------  -----------------  -----------------
       1       -0.000005065066    -0.000014141656    -0.000905361185
       2        0.000014294359     0.000079116421     0.001563406089
       3       -0.000087102009    -0.000202803371    -0.001424930828
       4        0.000026731564     0.000108013780     0.000722234299
       5        0.000087401760     0.000008326208     0.000028800576
       6       -0.000003957741    -0.000000995415     0.000003895821
       7       -0.000009443140    -0.000018505059     0.000004428438
       8       -0.000008354977    -0.000000742493    -0.000002044918
       9       -0.000018933527     0.000004872682     0.000044467723
      10        0.000001179982     0.000006223994    -0.000000538884
      11        0.000001442621     0.000030478675    -0.000027029246
      12        0.000002887862     0.000002963798    -0.000010252691
      13       -0.000001081766    -0.000002807569     0.000002924803

  **** Optimization is complete! (in 6 steps) ****
    Final optimized geometry and variables:
    Molecular point group: c1

    Geometry (in Angstrom), charge = 0, multiplicity = 1:

    H           -4.388053374603    -0.450362042843    -0.012825291458
    O           -3.941667843477     0.377060335973    -0.021405007717
    C           -2.605117210449     0.209201873146    -0.017417948067
    C           -2.010485726853    -1.019119906005     0.199545580316
    C           -1.816982148453     1.329544829260    -0.220403404380
    H           -2.615452598818    -1.891381459126     0.365995287690
    C           -0.632225958169    -1.131319191238     0.205125417972
    H           -2.288586025955     2.277985269544    -0.384675705419
    C           -0.444179227527     1.217032287579    -0.209976374800
    H           -0.175678457119    -2.086106564683     0.371406648183
    C            0.145269685334    -0.014594717028     0.001180011783
    H            0.163552838553     2.085080640937    -0.367948015328
    BR           2.037401154188    -0.165420349395     0.011074719195

  Mulliken Charges: (a.u.)
   Center  Symbol    Alpha    Beta     Spin     Total
       1     H     0.38636  0.38636  0.00000  0.22728
       2     O     4.17100  4.17100  0.00000 -0.34200
       3     C     2.85896  2.85896  0.00000  0.28208
       4     C     3.11846  3.11846  0.00000 -0.23691
       5     C     3.09363  3.09363  0.00000 -0.18726
       6     H     0.43041  0.43041  0.00000  0.13918
       7     C     3.08434  3.08434  0.00000 -0.16868
       8     H     0.41593  0.41593  0.00000  0.16814
       9     C     3.07682  3.07682  0.00000 -0.15365
      10     H     0.41057  0.41057  0.00000  0.17886
      11     C     2.97592  2.97592  0.00000  0.04816
      12     H     0.41066  0.41066  0.00000  0.17869
      13    BR    17.56694 17.56694  0.00000 -0.13388

   Total alpha = 42.00000, Total beta = 42.00000, Total charge = -0.00000

*** Psi4 exiting successfully. Buy a developer a beer!
