                              Psi4 1.0.54 Driver

  ==> Input File <==

--------------------------------------------------------------------------
set {
	reference rhf
	basis cc-pvtz
}

set_num_threads( 4 )
memory 2 gb

molecule MOL {
0 1

O	 1.415835	 0.971868	 -0.772794
C	 1.121787	 0.124983	 0.000110
C	 -0.170912	 -0.649867	 -0.000147
O	 1.912232	 -0.259238	 0.989023
C	 -1.413045	 0.229353	 0.001137
H	 -0.152877	 -1.303435	 -0.866175
H	 -0.152278	 -1.305116	 0.864586
C	 -2.702562	 -0.586401	 0.000228
H	 -1.390744	 0.882001	 -0.864365
H	 -1.390549	 0.879837	 0.868264
C	 -3.953810	 0.284959	 -0.000782
H	 -2.717793	 -1.238567	 -0.869075
H	 -2.719108	 -1.238472	 0.869576
H	 -3.983727	 0.924403	 -0.876454
H	 -4.852989	 -0.320147	 -0.001515
H	 -3.985140	 0.924399	 0.874841
C	 3.163279	 0.387257	 1.108370
H	 3.756617	 0.236954	 0.218658
H	 3.649529	 -0.060294	 1.959914
H	 3.031134	 1.446972	 1.268883

	symmetry c1
}
set optking {
	frozen_dihedral = ("
		1 2 3 6
	")
}

ee,wfn = optimize('scf', return_wfn=True)
oeprop( wfn, 'DIPOLE', 'QUADRUPOLE', 'MULLIKEN_CHARGES')
f=open( 'psi4out.xyz', 'w' )
f.write( "20  " )
f.write( str(ee) + "\n" )
f.write( MOL.save_string_xyz() )
f.close()
--------------------------------------------------------------------------

    Molecular point group: c1
  Charge       = 0
  Multiplicity = 1
  Basis Set: CC-PVTZ
  Basis Set:
  @DF-RHF Final Energy:  -384.08141604328074
    Total Energy =                       -384.0814160432811377
    Molecular point group: c1
  Basis Set: CC-PVTZ
  Basis Set:
  Basis Set: CC-PVTZ
  Basis Set:
  @DF-RHF Final Energy:  -384.08187796703163
    Total Energy =                       -384.0818779670314598
  Basis Set: CC-PVTZ
  Basis Set:
  Basis Set: CC-PVTZ
  Basis Set:
  @DF-RHF Final Energy:  -384.08193326211830
    Total Energy =                       -384.0819332621185822
  Basis Set: CC-PVTZ
  Basis Set:
  Basis Set: CC-PVTZ
  Basis Set:
  @DF-RHF Final Energy:  -384.08202663414164
    Total Energy =                       -384.0820266341415845
  Basis Set: CC-PVTZ
  Basis Set:
  Basis Set: CC-PVTZ
  Basis Set:
  @DF-RHF Final Energy:  -384.08205548616417
    Total Energy =                       -384.0820554861641085
  Basis Set: CC-PVTZ
  Basis Set:
  Charge       = 0
  Multiplicity = 1
  Basis Set: CC-PVTZ
  Basis Set:

    Orbital Energies (a.u.)
    -----------------------

    Doubly Occupied:

       1A    -20.598751     2A    -20.531612     3A    -11.364382
       4A    -11.278670     5A    -11.232700     6A    -11.222205
       7A    -11.219796     8A    -11.210159     9A     -1.472725
      10A     -1.364879    11A     -1.091063    12A     -1.025104
      13A     -0.970421    14A     -0.887749    15A     -0.805426
      16A     -0.773136    17A     -0.697908    18A     -0.684634
      19A     -0.675944    20A     -0.648147    21A     -0.599280
      22A     -0.593502    23A     -0.576395    24A     -0.550834
      25A     -0.535152    26A     -0.524459    27A     -0.503797
      28A     -0.479151    29A     -0.477870    30A     -0.472831
      31A     -0.458651    32A     -0.436694

  @DF-RHF Final Energy:  -384.08205582967554

   => Energetics <=

    Nuclear Repulsion Energy =            382.0954216608778893
    One-Electron Energy =               -1280.4268993444218268
    Two-Electron Energy =                 514.2494218538686255
    DFT Exchange-Correlation Energy =       0.0000000000000000
    Empirical Dispersion Energy =           0.0000000000000000
    PCM Polarization Energy =               0.0000000000000000
    EFP Energy =                            0.0000000000000000
    Total Energy =                       -384.0820558296752552
    Molecular point group: c1
  Basis Set: CC-PVTZ
  Basis Set:

  -Total Gradient:
     Atom            X                  Y                   Z
    ------   -----------------  -----------------  -----------------
       1        0.000225270596    -0.000437343437    -0.000412955583
       2       -0.000491184565     0.000808690852     0.000401360204
       3        0.000458920170    -0.000723049449     0.000219194114
       4       -0.000010173042    -0.000013215861     0.000161252960
       5        0.000012812752     0.000019792686    -0.000004524199
       6       -0.000282767204     0.000423027900    -0.000327916440
       7        0.000022483598    -0.000017978109     0.000009513962
       8        0.000009358225    -0.000020426194     0.000019401583
       9       -0.000005290548     0.000027459488    -0.000013746929
      10       -0.000000063627    -0.000010583893    -0.000000629168
      11        0.000016042692     0.000009308873    -0.000009923668
      12        0.000003142317    -0.000000523213    -0.000000664554
      13       -0.000001207585    -0.000007695090     0.000009689778
      14       -0.000003372953     0.000008798402    -0.000006801846
      15        0.000002046882    -0.000006667530    -0.000002580954
      16        0.000000553917     0.000000086852     0.000004868444
      17        0.000017078840    -0.000104633722    -0.000087122679
      18        0.000049974933     0.000029415203     0.000003134165
      19        0.000006331968     0.000000625858     0.000033221276
      20       -0.000029957373     0.000014910383     0.000005229534

  **** Optimization is complete! (in 6 steps) ****
    Final optimized geometry and variables:
    Molecular point group: c1

    Geometry (in Angstrom), charge = 0, multiplicity = 1:

    O            1.405968805092     0.900843423294    -0.882693503286
    C            1.154722613320     0.048611670090    -0.099185928488
    C           -0.123160391431    -0.752956895442    -0.096691248931
    O            1.984711631161    -0.317303139039     0.861828835909
    C           -1.364053197336     0.135415032914    -0.179323030134
    H           -0.080711212267    -1.397112442742    -0.969432614905
    H           -0.150598896919    -1.385630903426     0.779046394456
    C           -2.655261757292    -0.673198254620    -0.256741149020
    H           -1.278067469510     0.780180402112    -1.045227910684
    H           -1.397619749999     0.786415105326     0.690022442677
    C           -3.899501241133     0.204969493054    -0.332198664978
    H           -2.619203728801    -1.322667360841    -1.127144988618
    H           -2.726930918831    -1.326366851873     0.608678420307
    H           -3.871980447378     0.846969238758    -1.205981647417
    H           -4.799602575153    -0.395833507784    -0.390481085198
    H           -3.982594687920     0.841636230225     0.542208130064
    C            3.230546377126     0.347802529486     0.928893519075
    H            3.791966663723     0.197826335129     0.018705397118
    H            3.754098871445    -0.085375288209     1.765653482497
    H            3.088475972938     1.406800116189     1.084765458765

  Mulliken Charges: (a.u.)
   Center  Symbol    Alpha    Beta     Spin     Total
       1     O     4.20336  4.20336  0.00000 -0.40673
       2     C     2.81437  2.81437  0.00000  0.37126
       3     C     3.08318  3.08318  0.00000 -0.16635
       4     O     4.14337  4.14337  0.00000 -0.28674
       5     C     3.09069  3.09069  0.00000 -0.18138
       6     H     0.44547  0.44547  0.00000  0.10905
       7     H     0.43886  0.43886  0.00000  0.12228
       8     C     3.08803  3.08803  0.00000 -0.17606
       9     H     0.43920  0.43920  0.00000  0.12160
      10     H     0.45226  0.45226  0.00000  0.09548
      11     C     3.14913  3.14913  0.00000 -0.29825
      12     H     0.45355  0.45355  0.00000  0.09291
      13     H     0.45462  0.45462  0.00000  0.09077
      14     H     0.45312  0.45312  0.00000  0.09376
      15     H     0.44808  0.44808  0.00000  0.10384
      16     H     0.45455  0.45455  0.00000  0.09090
      17     C     3.03479  3.03479  0.00000 -0.06958
      18     H     0.45425  0.45425  0.00000  0.09149
      19     H     0.44507  0.44507  0.00000  0.10985
      20     H     0.45405  0.45405  0.00000  0.09191

   Total alpha = 32.00000, Total beta = 32.00000, Total charge = -0.00000

*** Psi4 exiting successfully. Buy a developer a beer!
