                              Psi4 1.0.54 Driver

  ==> Input File <==

--------------------------------------------------------------------------
set {
	reference rhf
	basis cc-pvtz
}

set_num_threads( 4 )
memory 2 gb

molecule MOL {
0 1

H	 -1.043840	 -1.171673	 0.390343
N	 -1.173824	 -0.310545	 -0.096857
C	 -0.022588	 0.563366	 0.065815
H	 -1.317228	 -0.534922	 -1.059511
C	 1.270420	 -0.230572	 -0.014245
H	 -0.045354	 1.293678	 -0.735129
H	 -0.043155	 1.123061	 1.001180
H	 1.336273	 -0.754933	 -0.959364
H	 2.130728	 0.422015	 0.082222
H	 1.323344	 -0.967006	 0.781773

	symmetry c1
}
set optking {
	frozen_dihedral = ("
		1 2 3 6
	")
}

ee,wfn = optimize('scf', return_wfn=True)
oeprop( wfn, 'DIPOLE', 'QUADRUPOLE', 'MULLIKEN_CHARGES')
f=open( 'psi4out.xyz', 'w' )
f.write( "10  " )
f.write( str(ee) + "\n" )
f.write( MOL.save_string_xyz() )
f.close()
--------------------------------------------------------------------------

    Molecular point group: c1
  Charge       = 0
  Multiplicity = 1
  Basis Set: CC-PVTZ
  Basis Set:
  @DF-RHF Final Energy:  -134.30202518650836
    Total Energy =                       -134.3020251865083310
    Molecular point group: c1
  Basis Set: CC-PVTZ
  Basis Set:
  Basis Set: CC-PVTZ
  Basis Set:
  @DF-RHF Final Energy:  -134.30337209973243
    Total Energy =                       -134.3033720997324281
  Basis Set: CC-PVTZ
  Basis Set:
  Basis Set: CC-PVTZ
  Basis Set:
  @DF-RHF Final Energy:  -134.30357364361836
    Total Energy =                       -134.3035736436183356
  Basis Set: CC-PVTZ
  Basis Set:
  Charge       = 0
  Multiplicity = 1
  Basis Set: CC-PVTZ
  Basis Set:

    Orbital Energies (a.u.)
    -----------------------

    Doubly Occupied:

       1A    -15.527299     2A    -11.241504     3A    -11.209260
       4A     -1.178525     5A     -0.988963     6A     -0.832330
       7A     -0.673478     8A     -0.600107     9A     -0.581929
      10A     -0.554336    11A     -0.507032    12A     -0.484687
      13A     -0.384831

  @DF-RHF Final Energy:  -134.30357497846137

   => Energetics <=

    Nuclear Repulsion Energy =             83.3311924619523836
    One-Electron Energy =                -345.7409730600013518
    Two-Electron Energy =                 128.1062056195876551
    DFT Exchange-Correlation Energy =       0.0000000000000000
    Empirical Dispersion Energy =           0.0000000000000000
    PCM Polarization Energy =               0.0000000000000000
    EFP Energy =                            0.0000000000000000
    Total Energy =                       -134.3035749784613415
    Molecular point group: c1
  Basis Set: CC-PVTZ
  Basis Set:

  -Total Gradient:
     Atom            X                  Y                   Z
    ------   -----------------  -----------------  -----------------
       1        0.001095601523    -0.001067549001    -0.002299249883
       2       -0.001060528272     0.001005053471     0.002448972289
       3       -0.001352496386     0.001584332145     0.001302675057
       4       -0.000019622792     0.000016016969     0.000030863820
       5        0.000078600144     0.000002582104    -0.000039078421
       6        0.001282846278    -0.001580613673    -0.001464254503
       7        0.000009092057     0.000015632960    -0.000000922288
       8       -0.000008191092     0.000008830113     0.000015519279
       9        0.000007705757    -0.000004923625    -0.000000365052
      10       -0.000033007218     0.000020638536     0.000005839703

  **** Optimization is complete! (in 4 steps) ****
    Final optimized geometry and variables:
    Molecular point group: c1

    Geometry (in Angstrom), charge = 0, multiplicity = 1:

    H           -1.099615008100    -1.157570722833     0.412971130697
    N           -1.222790811253    -0.290887849324    -0.068425231179
    C           -0.046815219916     0.555627156640     0.075912668235
    H           -1.369391990565    -0.523983481960    -1.028081401315
    C            1.287336428946    -0.182173413744     0.027101592791
    H           -0.069501796421     1.290347250170    -0.720519284067
    H           -0.123480955272     1.100191941401     1.010325560910
    H            1.410377131136    -0.702071053829    -0.917442781323
    H            2.118380759399     0.505519353243     0.143601127689
    H            1.352442181858    -0.917385356835     0.823296618587

  Mulliken Charges: (a.u.)
   Center  Symbol    Alpha    Beta     Spin     Total
       1     H     0.43198  0.43198  0.00000  0.13605
       2     N     3.68669  3.68669  0.00000 -0.37338
       3     C     3.02458  3.02458  0.00000 -0.04916
       4     H     0.43132  0.43132  0.00000  0.13737
       5     C     3.13961  3.13961  0.00000 -0.27922
       6     H     0.45665  0.45665  0.00000  0.08669
       7     H     0.45582  0.45582  0.00000  0.08836
       8     H     0.45872  0.45872  0.00000  0.08255
       9     H     0.45558  0.45558  0.00000  0.08883
      10     H     0.45905  0.45905  0.00000  0.08191

   Total alpha = 13.00000, Total beta = 13.00000, Total charge = -0.00000

*** Psi4 exiting successfully. Buy a developer a beer!
