  ==> Input File <==

--------------------------------------------------------------------------
set {
	reference rhf
	basis cc-pvtz
}

set_num_threads( 4 )
memory 2 gb

molecule MOL {
0 1

H	 3.504094	 0.804761	 1.191579
N	 2.677368	 0.246093	 1.185967
C	 1.860978	 0.530248	 0.016256
H	 2.178479	 0.449943	 2.026742
C	 0.644130	 -0.381765	 -0.031064
H	 2.471560	 0.357891	 -0.863738
H	 1.532473	 1.569451	 -0.029529
C	 -0.678115	 0.376691	 0.025731
H	 0.693998	 -0.977147	 -0.936845
H	 0.693309	 -1.082142	 0.800523
C	 -1.900706	 -0.535531	 -0.022488
H	 -0.725296	 1.079516	 -0.802982
H	 -0.715474	 0.974884	 0.933278
C	 -3.220513	 0.226854	 0.028039
H	 -1.865036	 -1.134397	 -0.928236
H	 -1.857948	 -1.236381	 0.806820
H	 -3.309098	 0.911849	 -0.808725
H	 -4.066838	 -0.449485	 -0.008086
H	 -3.301685	 0.809374	 0.939860

	symmetry c1
}
set optking {
	frozen_dihedral = ("
		6 3 5 9
	")
}

ee = optimize('scf')
oeprop('DIPOLE', 'QUADRUPOLE', 'MULLIKEN_CHARGES')
f=open( 'psi4out.xyz', 'w' )
f.write( "19  " )
f.write( str(ee) + "\n" )
f.write( MOL.save_string_xyz() )
f.close()
--------------------------------------------------------------------------

    Molecular point group: c1
  Charge       = 0
  Multiplicity = 1
  Basis Set: CC-PVTZ
  Basis Set:
  @DF-RHF Final Energy:  -251.44159820122002
    Total Energy =                       -251.4415982012200175
    Molecular point group: c1
  Basis Set: CC-PVTZ
  Basis Set:
  Basis Set: CC-PVTZ
  Basis Set:
  @DF-RHF Final Energy:  -251.44195886718904
    Total Energy =                       -251.4419588671888164
  Basis Set: CC-PVTZ
  Basis Set:
  Basis Set: CC-PVTZ
  Basis Set:
  @DF-RHF Final Energy:  -251.44206168574826
    Total Energy =                       -251.4420616857481718
  Basis Set: CC-PVTZ
  Basis Set:
  Charge       = 0
  Multiplicity = 1
  Basis Set: CC-PVTZ
  Basis Set:

    Orbital Energies (a.u.)
    -----------------------

    Doubly Occupied:

       1A    -15.526800     2A    -11.238074     3A    -11.212173
       4A    -11.211256     5A    -11.207550     6A    -11.206088
       7A     -1.177129     8A     -1.073828     9A     -0.997728
      10A     -0.902019    11A     -0.815134    12A     -0.788894
      13A     -0.668170    14A     -0.638396    15A     -0.619655
      16A     -0.584881    17A     -0.566834    18A     -0.549325
      19A     -0.531010    20A     -0.502479    21A     -0.484459
      22A     -0.465598    23A     -0.461239    24A     -0.445112
      25A     -0.382571

  @DF-RHF Final Energy:  -251.44206249623451

   => Energetics <=

    Nuclear Repulsion Energy =            246.7359697073543146
    One-Electron Energy =                -827.8432601287540820
    Two-Electron Energy =                 329.6652279251649134
    DFT Exchange-Correlation Energy =       0.0000000000000000
    Empirical Dispersion Energy =           0.0000000000000000
    PCM Polarization Energy =               0.0000000000000000
    EFP Energy =                            0.0000000000000000
    Total Energy =                       -251.4420624962348256
    Molecular point group: c1
  Basis Set: CC-PVTZ
  Basis Set:

  -Total Gradient:
     Atom            X                  Y                   Z
    ------   -----------------  -----------------  -----------------
       1        0.000012661810    -0.000008907767    -0.000000100852
       2        0.000019203024     0.000005474192    -0.000031014957
       3        0.000362816325    -0.000573861896     0.000511968171
       4       -0.000007927214     0.000001629614    -0.000056243422
       5       -0.000380600574     0.000558701084    -0.000407378614
       6       -0.000260297569     0.000373091143    -0.000230014004
       7       -0.000012451343     0.000006243372    -0.000017015943
       8       -0.000006074786     0.000030184162    -0.000044542256
       9        0.000269945920    -0.000371590251     0.000256382966
      10        0.000007476934    -0.000001870899    -0.000003484804
      11        0.000019593076    -0.000002757108     0.000011948529
      12        0.000009300637    -0.000013655005    -0.000009773016
      13       -0.000000127382     0.000009545979    -0.000008354684
      14       -0.000013015666    -0.000008572651     0.000029727406
      15        0.000005774142     0.000012460844     0.000000844988
      16       -0.000015741851    -0.000015118119    -0.000008140420
      17        0.000008851721    -0.000011572702     0.000003090342
      18       -0.000015197416     0.000005151917     0.000005162691
      19       -0.000004189785     0.000005424091    -0.000003062121

  **** Optimization is complete! (in 4 steps) ****
    Final optimized geometry and variables:
    Molecular point group: c1

    Geometry (in Angstrom), charge = 0, multiplicity = 1:

    H            3.581193918985     0.727719679242     0.998698073179
    N            2.766552213477     0.150960551760     0.978237907900
    C            1.957664815707     0.436443090294    -0.199496450582
    H            2.253610136785     0.340514814243     1.814348479706
    C            0.717060137676    -0.472026645439    -0.264652471371
    H            2.582178192559     0.272586320906    -1.068891394005
    H            1.641539388421     1.478454949514    -0.242958022908
    C           -0.607808748433     0.284986574323    -0.210527331071
    H            0.747374594698    -1.072721712468    -1.167729463234
    H            0.766846029843    -1.175520006075     0.559297487615
    C           -1.828769424849    -0.629131682152    -0.240505255298
    H           -0.661138659357     0.980301445232    -1.045052032065
    H           -0.638037241538     0.893691293190     0.691206622766
    C           -3.149874597538     0.130704918881    -0.183052382746
    H           -1.800477982670    -1.234370092903    -1.142517255536
    H           -1.776395967156    -1.324505926857     0.592769092737
    H           -3.248015862686     0.809263885702    -1.023980104168
    H           -3.995087314726    -0.547624120424    -0.205864184239
    H           -3.223590427066     0.719793746925     0.725175357600

  Mulliken Charges: (a.u.)
   Center  Symbol    Alpha    Beta     Spin     Total
       1     H     0.43000  0.43000  0.00000  0.13999
       2     N     3.68697  3.68697  0.00000 -0.37394
       3     C     3.03531  3.03531  0.00000 -0.07061
       4     H     0.43119  0.43119  0.00000  0.13763
       5     C     3.09622  3.09622  0.00000 -0.19245
       6     H     0.45398  0.45398  0.00000  0.09205
       7     H     0.46632  0.46632  0.00000  0.06737
       8     C     3.08697  3.08697  0.00000 -0.17395
       9     H     0.44999  0.44999  0.00000  0.10002
      10     H     0.44800  0.44800  0.00000  0.10400
      11     C     3.08531  3.08531  0.00000 -0.17061
      12     H     0.45511  0.45511  0.00000  0.08978
      13     H     0.45700  0.45700  0.00000  0.08600
      14     C     3.14965  3.14965  0.00000 -0.29930
      15     H     0.45438  0.45438  0.00000  0.09124
      16     H     0.45410  0.45410  0.00000  0.09180
      17     H     0.45540  0.45540  0.00000  0.08920
      18     H     0.44844  0.44844  0.00000  0.10312
      19     H     0.45567  0.45567  0.00000  0.08866

   Total alpha = 25.00000, Total beta = 25.00000, Total charge = -0.00000
