  ==> Input File <==

--------------------------------------------------------------------------
set {
	reference rhf
	basis 6-31G*
}

set_num_threads( 1 )
memory 2 gb

molecule MOL {
0 1

O	 -2.493623	 -1.029385	 0.037196
C	 -1.949626	 0.014739	 0.198886
C	 -2.649982	 1.336567	 0.362033
O	 -0.632575	 0.154573	 0.251549
H	 -2.334289	 2.017302	 -0.420198
H	 -3.718544	 1.188945	 0.314921
H	 -2.377813	 1.780199	 1.312755
C	 0.160891	 -1.019931	 0.106212
C	 1.589627	 -0.672828	 0.480843
H	 0.089836	 -1.367806	 -0.916050
H	 -0.238459	 -1.792301	 0.749618
C	 2.246377	 0.346236	 -0.452210
H	 2.163194	 -1.597435	 0.473358
H	 1.604769	 -0.303424	 1.502885
C	 3.691736	 0.652107	 -0.061850
H	 2.219579	 -0.032311	 -1.472055
H	 1.666466	 1.263317	 -0.447249
H	 4.134505	 1.377213	 -0.737283
H	 4.305508	 -0.243868	 -0.089969
H	 3.748266	 1.059562	 0.943567

	symmetry c1
}
set optking {
	frozen_dihedral = ("
		16 12 9 8,
		12 9 8 10,
		1 2 4 8
	")
}

ee = energy('scf')
oeprop('DIPOLE', 'QUADRUPOLE', 'MULLIKEN_CHARGES')
f=open( 'psi4out.xyz', 'w' )
f.write( "20  " )
f.write( str(ee) + "\n" )
f.write( MOL.save_string_xyz() )
f.close()
--------------------------------------------------------------------------

    Molecular point group: c1

    Geometry (in Angstrom), charge = 0, multiplicity = 1:

       Center              X                  Y                   Z               Mass
    ------------   -----------------  -----------------  -----------------  -----------------
           O         -2.479979032651    -1.005830784871    -0.078661938075    15.994914619560
           C         -1.935982032651     0.038293215129     0.083028061925    12.000000000000
           C         -2.636338032651     1.360121215129     0.246175061925    12.000000000000
           O         -0.618931032651     0.178127215129     0.135691061925    15.994914619560
           H         -2.320645032651     2.040856215129    -0.536055938075     1.007825032070
           H         -3.704900032651     1.212499215129     0.199063061925     1.007825032070
           H         -2.364169032651     1.803753215129     1.196897061925     1.007825032070
           C          0.174534967349    -0.996376784871    -0.009645938075    12.000000000000
           C          1.603270967349    -0.649273784871     0.364985061925    12.000000000000
           H          0.103479967349    -1.344251784871    -1.031907938075     1.007825032070
           H         -0.224815032651    -1.768746784871     0.633760061925     1.007825032070
           C          2.260020967349     0.369790215129    -0.568067938075    12.000000000000
           H          2.176837967349    -1.573880784871     0.357500061925     1.007825032070
           H          1.618412967349    -0.279869784871     1.387027061925     1.007825032070
           C          3.705379967349     0.675661215129    -0.177707938075    12.000000000000
           H          2.233222967349    -0.008756784871    -1.587912938075     1.007825032070
           H          1.680109967349     1.286871215129    -0.563106938075     1.007825032070
           H          4.148148967349     1.400767215129    -0.853140938075     1.007825032070
           H          4.319151967349    -0.220313784871    -0.205826938075     1.007825032070
           H          3.761909967349     1.083116215129     0.827709061925     1.007825032070

  Charge       = 0
  Multiplicity = 1
  Basis Set: 6-31G*
  Basis Set:

    Orbital Energies (a.u.)
    -----------------------

    Doubly Occupied:

       1A    -20.601804     2A    -20.544078     3A    -11.374722
       4A    -11.281992     5A    -11.233541     6A    -11.225354
       7A    -11.220385     8A    -11.213286     9A     -1.468061
      10A     -1.362300    11A     -1.085951    12A     -1.028271
      13A     -0.981314    14A     -0.880073    15A     -0.812292
      16A     -0.773968    17A     -0.690580    18A     -0.684339
      19A     -0.665908    20A     -0.631096    21A     -0.600488
      22A     -0.592361    23A     -0.571832    24A     -0.552771
      25A     -0.544815    26A     -0.529696    27A     -0.513557
      28A     -0.484683    29A     -0.474928    30A     -0.468627
      31A     -0.449957    32A     -0.438530

  @DF-RHF Final Energy:  -383.94542439844190

   => Energetics <=

    Nuclear Repulsion Energy =            384.8342681196248805
    One-Electron Energy =               -1285.5963833786331634
    Two-Electron Energy =                 516.8166908605672916
    DFT Exchange-Correlation Energy =       0.0000000000000000
    Empirical Dispersion Energy =           0.0000000000000000
    PCM Polarization Energy =               0.0000000000000000
    EFP Energy =                            0.0000000000000000
    Total Energy =                       -383.9454243984409914

  Mulliken Charges: (a.u.)
   Center  Symbol    Alpha    Beta     Spin     Total
       1     O     4.28332  4.28332  0.00000 -0.56664
       2     C     2.61929  2.61929  0.00000  0.76142
       3     C     3.28179  3.28179  0.00000 -0.56357
       4     O     4.30857  4.30857  0.00000 -0.61714
       5     H     0.40052  0.40052  0.00000  0.19895
       6     H     0.39683  0.39683  0.00000  0.20633
       7     H     0.40075  0.40075  0.00000  0.19850
       8     C     3.00374  3.00374  0.00000 -0.00747
       9     C     3.16431  3.16431  0.00000 -0.32861
      10     H     0.41336  0.41336  0.00000  0.17328
      11     H     0.40439  0.40439  0.00000  0.19121
      12     C     3.15508  3.15508  0.00000 -0.31015
      13     H     0.41842  0.41842  0.00000  0.16316
      14     H     0.41479  0.41479  0.00000  0.17042
      15     C     3.24037  3.24037  0.00000 -0.48073
      16     H     0.42301  0.42301  0.00000  0.15398
      17     H     0.41150  0.41150  0.00000  0.17699
      18     H     0.41762  0.41762  0.00000  0.16477
      19     H     0.42171  0.42171  0.00000  0.15657
      20     H     0.42064  0.42064  0.00000  0.15872

   Total alpha = 32.00000, Total beta = 32.00000, Total charge =  0.00000
