  ==> Input File <==

--------------------------------------------------------------------------
set {
	reference rhf
	basis 6-31G*
}

set_num_threads( 1 )
memory 2 gb

molecule MOL {
0 1

H	 1.042178	 2.397346	 0.683787
O	 1.314260	 1.510482	 0.876908
C	 0.709265	 0.639550	 -0.033818
C	 -0.793441	 0.596080	 0.058728
H	 1.115422	 -0.344072	 0.172885
H	 0.997161	 0.886467	 -1.055176
C	 -1.530462	 -0.493172	 -0.025500
H	 -1.268471	 1.554324	 0.202247
H	 -1.092586	 -1.461565	 -0.186463
H	 -2.602122	 -0.450675	 0.050101

	symmetry c1
}
set optking {
	frozen_dihedral = ("
		5 3 2 1,
		3 4 7 9
	")
}

ee = energy('scf')
oeprop('DIPOLE', 'QUADRUPOLE', 'MULLIKEN_CHARGES')
f=open( 'psi4out.xyz', 'w' )
f.write( "10  " )
f.write( str(ee) + "\n" )
f.write( MOL.save_string_xyz() )
f.close()
--------------------------------------------------------------------------

    Molecular point group: c1

    Geometry (in Angstrom), charge = 0, multiplicity = 1:

       Center              X                  Y                   Z               Mass
    ------------   -----------------  -----------------  -----------------  -----------------
           H          1.045223188874     1.782762808999     0.444557404496     1.007825032070
           O          1.317305188874     0.895898808999     0.637678404496    15.994914619560
           C          0.712310188874     0.024966808999    -0.273047595504    12.000000000000
           C         -0.790395811126    -0.018503191001    -0.180501595504    12.000000000000
           H          1.118467188874    -0.958655191001    -0.066344595504     1.007825032070
           H          1.000206188874     0.271883808999    -1.294405595504     1.007825032070
           C         -1.527416811126    -1.107755191001    -0.264729595504    12.000000000000
           H         -1.265425811126     0.939740808999    -0.036982595504     1.007825032070
           H         -1.089540811126    -2.076148191001    -0.425692595504     1.007825032070
           H         -2.599076811126    -1.065258191001    -0.189128595504     1.007825032070

  Charge       = 0
  Multiplicity = 1
  Basis Set: 6-31G*
  Basis Set:

    Orbital Energies (a.u.)
    -----------------------

    Doubly Occupied:

       1A    -20.560506     2A    -11.276679     3A    -11.232776
       4A    -11.223828     5A     -1.369058     6A     -1.063035
       7A     -0.920404     8A     -0.780974     9A     -0.690702
      10A     -0.651450    11A     -0.621071    12A     -0.571356
      13A     -0.538895    14A     -0.495981    15A     -0.443197
      16A     -0.368099

  @DF-RHF Final Energy:  -191.91406102146274

   => Energetics <=

    Nuclear Repulsion Energy =            117.0964355124773704
    One-Electron Energy =                -492.4049701437618296
    Two-Electron Energy =                 183.3944736098218016
    DFT Exchange-Correlation Energy =       0.0000000000000000
    Empirical Dispersion Energy =           0.0000000000000000
    PCM Polarization Energy =               0.0000000000000000
    EFP Energy =                            0.0000000000000000
    Total Energy =                       -191.9140610214626861

  Mulliken Charges: (a.u.)
   Center  Symbol    Alpha    Beta     Spin     Total
       1     H     0.28237  0.28237  0.00000  0.43526
       2     O     4.36442  4.36442  0.00000 -0.72884
       3     C     3.00974  3.00974  0.00000 -0.01949
       4     C     3.07674  3.07674  0.00000 -0.15349
       5     H     0.40953  0.40953  0.00000  0.18093
       6     H     0.42405  0.42405  0.00000  0.15191
       7     C     3.19831  3.19831  0.00000 -0.39662
       8     H     0.41373  0.41373  0.00000  0.17254
       9     H     0.41184  0.41184  0.00000  0.17631
      10     H     0.40926  0.40926  0.00000  0.18148

   Total alpha = 16.00000, Total beta = 16.00000, Total charge =  0.00000
