  ==> Input File <==

--------------------------------------------------------------------------
set {
	reference rhf
	basis 6-31G*
}

set_num_threads( 4 )
memory 2 gb

molecule MOL {
0 1

H	 2.984882	 -0.240636	 0.145708
O	 2.291208	 0.325646	 -0.160608
C	 1.135793	 0.118896	 0.612333
C	 0.031547	 1.023609	 0.088541
H	 1.328847	 0.356902	 1.656829
H	 0.829772	 -0.924002	 0.569710
C	 -1.134819	 0.293262	 -0.585751
H	 0.474374	 1.714721	 -0.623187
H	 -0.338529	 1.620940	 0.920081
C	 -1.917817	 -0.639439	 0.339494
H	 -0.758119	 -0.268455	 -1.433105
H	 -1.813832	 1.041889	 -0.986690
H	 -2.777680	 -1.057197	 -0.174994
H	 -1.310268	 -1.471279	 0.680599
H	 -2.283753	 -0.111424	 1.216626

	symmetry c1
}
set optking {
	frozen_dihedral = ("
		2 3 4 8
	")
}

ee = optimize('scf')
oeprop('DIPOLE', 'QUADRUPOLE', 'MULLIKEN_CHARGES')
f=open( 'psi4out.xyz', 'w' )
f.write( "15  " )
f.write( str(ee) + "\n" )
f.write( MOL.save_string_xyz() )
f.close()
--------------------------------------------------------------------------

    Molecular point group: c1
  Charge       = 0
  Multiplicity = 1
  Basis Set: 6-31G*
  Basis Set:
  @DF-RHF Final Energy:  -232.13736589423968
    Total Energy =                       -232.1373658942395650
    Molecular point group: c1
  Basis Set: 6-31G*
  Basis Set:
  Basis Set: 6-31G*
  Basis Set:
  @DF-RHF Final Energy:  -232.13790097404541
    Total Energy =                       -232.1379009740455786
  Basis Set: 6-31G*
  Basis Set:
  Basis Set: 6-31G*
  Basis Set:
  @DF-RHF Final Energy:  -232.13822668570816
    Total Energy =                       -232.1382266857080481
  Basis Set: 6-31G*
  Basis Set:
  Basis Set: 6-31G*
  Basis Set:
  @DF-RHF Final Energy:  -232.13823905113318
    Total Energy =                       -232.1382390511332119
  Basis Set: 6-31G*
  Basis Set:
  Basis Set: 6-31G*
  Basis Set:
  @DF-RHF Final Energy:  -232.13824436311953
    Total Energy =                       -232.1382443631194974
  Basis Set: 6-31G*
  Basis Set:
  Basis Set: 6-31G*
  Basis Set:
  @DF-RHF Final Energy:  -232.13824625144258
    Total Energy =                       -232.1382462514424105
  Basis Set: 6-31G*
  Basis Set:
  Charge       = 0
  Multiplicity = 1
  Basis Set: 6-31G*
  Basis Set:

    Orbital Energies (a.u.)
    -----------------------

    Doubly Occupied:

       1A    -20.551428     2A    -11.267572     3A    -11.215460
       4A    -11.211166     5A    -11.210082     6A     -1.357446
       7A     -1.066748     8A     -0.968789     9A     -0.868965
      10A     -0.782738    11A     -0.701795    12A     -0.646040
      13A     -0.603908    14A     -0.587462    15A     -0.556780
      16A     -0.536199    17A     -0.508871    18A     -0.475304
      19A     -0.471175    20A     -0.454879    21A     -0.428758

  @DF-RHF Final Energy:  -232.13824664710339

   => Energetics <=

    Nuclear Repulsion Energy =            188.4169260473542806
    One-Electron Energy =                -688.1672140740881787
    Two-Electron Energy =                 267.6120413796304547
    DFT Exchange-Correlation Energy =       0.0000000000000000
    Empirical Dispersion Energy =           0.0000000000000000
    PCM Polarization Energy =               0.0000000000000000
    EFP Energy =                            0.0000000000000000
    Total Energy =                       -232.1382466471034149
    Molecular point group: c1
  Basis Set: 6-31G*
  Basis Set:

  -Total Gradient:
     Atom            X                  Y                   Z
    ------   -----------------  -----------------  -----------------
       1        0.000006343195     0.000000175857    -0.000004491249
       2        0.000378996525     0.000908023190     0.000889698334
       3       -0.000555464231    -0.001389171409    -0.001406954506
       4        0.000459568619     0.001538268197     0.001839464506
       5       -0.000004269991     0.000002948040    -0.000000990605
       6        0.000009020207     0.000005606895    -0.000001875213
       7        0.000008529789    -0.000013877169    -0.000006426034
       8       -0.000295925807    -0.001054004817    -0.001316434765
       9        0.000000193481     0.000007236597     0.000004558645
      10       -0.000003663983     0.000000712651     0.000003395609
      11        0.000013699668     0.000005354489     0.000004697099
      12       -0.000008458324    -0.000013536749    -0.000005698984
      13       -0.000009334731     0.000015092113     0.000006345752
      14       -0.000007877195    -0.000007890855    -0.000022538792
      15        0.000008642775    -0.000004937029     0.000017250203

  **** Optimization is complete! (in 7 steps) ****
    Final optimized geometry and variables:
    Molecular point group: c1

    Geometry (in Angstrom), charge = 0, multiplicity = 1:

    H            2.876577458009    -0.395682966488    -0.007497254092
    O            2.161999112282     0.172492809889    -0.258556682162
    C            1.032348627772    -0.117715847020     0.529920662163
    C           -0.119757264213     0.787611338873     0.073658886445
    H            1.260765596298     0.051967662580     1.579689800028
    H            0.764690586155    -1.166630280641     0.424841422606
    C           -1.257644883628     0.052106187847    -0.644073426640
    H            0.308334311647     1.517881535483    -0.603402565242
    H           -0.524905598657     1.335326058312     0.920302066480
    C           -2.111728976708    -0.821006996429     0.276889535720
    H           -0.839537944548    -0.554860301248    -1.443941153139
    H           -1.900464321708     0.786345009780    -1.122608213325
    H           -2.905379693591    -1.312438696159    -0.277318268439
    H           -1.525426608523    -1.596780877538     0.760829624079
    H           -2.574660318862    -0.223873866913     1.057864119253

  Mulliken Charges: (a.u.)
   Center  Symbol    Alpha    Beta     Spin     Total
       1     H     0.28213  0.28213  0.00000  0.43575
       2     O     4.37193  4.37193  0.00000 -0.74386
       3     C     2.99553  2.99553  0.00000  0.00894
       4     C     3.16667  3.16667  0.00000 -0.33335
       5     H     0.42973  0.42973  0.00000  0.14054
       6     H     0.42976  0.42976  0.00000  0.14047
       7     C     3.15860  3.15860  0.00000 -0.31720
       8     H     0.40140  0.40140  0.00000  0.19719
       9     H     0.42144  0.42144  0.00000  0.15712
      10     C     3.24133  3.24133  0.00000 -0.48266
      11     H     0.41830  0.41830  0.00000  0.16339
      12     H     0.42003  0.42003  0.00000  0.15995
      13     H     0.41820  0.41820  0.00000  0.16361
      14     H     0.42312  0.42312  0.00000  0.15376
      15     H     0.42182  0.42182  0.00000  0.15636

   Total alpha = 21.00000, Total beta = 21.00000, Total charge = -0.00000
