                              Psi4 1.0.54 Driver

  ==> Input File <==

--------------------------------------------------------------------------
set {
	reference rhf
	basis cc-pvtz
}

set_num_threads( 4 )
memory 2 gb

molecule MOL {
0 1

O	 3.219313	 0.959291	 -0.614106
C	 2.698710	 0.058177	 -0.050237
C	 1.246364	 -0.005813	 0.348416
O	 3.344101	 -1.038700	 0.312317
C	 0.453207	 1.232821	 -0.049003
H	 0.839270	 -0.907818	 -0.092281
H	 1.216683	 -0.160521	 1.422434
C	 -0.998367	 1.217982	 0.432195
H	 0.481498	 1.345443	 -1.127236
H	 0.951413	 2.105557	 0.354893
C	 -1.882951	 0.151251	 -0.211235
H	 -1.429490	 2.193659	 0.228843
H	 -1.019755	 1.099323	 1.513279
C	 -3.097917	 0.735803	 -0.926738
H	 -1.290720	 -0.422143	 -0.920709
H	 -2.225436	 -0.553975	 0.540361
C	 -3.992218	 -0.321268	 -1.568298
H	 -2.763173	 1.432815	 -1.691238
H	 -3.684283	 1.319201	 -0.220560
C	 -5.202718	 0.270526	 -2.282613
H	 -3.407745	 -0.904893	 -2.274339
H	 -4.329918	 -1.017127	 -0.805019
H	 -5.815788	 -0.505660	 -2.726080
H	 -4.897828	 0.944646	 -3.076158
H	 -5.826679	 0.832332	 -1.595405
C	 4.720529	 -1.114346	 0.001449
H	 4.874321	 -1.055557	 -1.065852
H	 5.057824	 -2.067950	 0.373977
H	 5.264321	 -0.313596	 0.480350

	symmetry c1
}
set optking {
	frozen_dihedral = ("
		15 11 8 5
	")
}

ee,wfn = optimize('scf', return_wfn=True)
oeprop( wfn, 'DIPOLE', 'QUADRUPOLE', 'MULLIKEN_CHARGES')
f=open( 'psi4out.xyz', 'w' )
f.write( "29  " )
f.write( str(ee) + "\n" )
f.write( MOL.save_string_xyz() )
f.close()
--------------------------------------------------------------------------

    Molecular point group: c1
  Charge       = 0
  Multiplicity = 1
  Basis Set: CC-PVTZ
  Basis Set:
  @DF-RHF Final Energy:  -501.21966733214924
    Total Energy =                       -501.2196673321498110
    Molecular point group: c1
  Basis Set: CC-PVTZ
  Basis Set:
  Basis Set: CC-PVTZ
  Basis Set:
  @DF-RHF Final Energy:  -501.21969874093691
    Total Energy =                       -501.2196987409370195
  Basis Set: CC-PVTZ
  Basis Set:
  Basis Set: CC-PVTZ
  Basis Set:
  @DF-RHF Final Energy:  -501.22005897478834
    Total Energy =                       -501.2200589747882304
  Basis Set: CC-PVTZ
  Basis Set:
  Basis Set: CC-PVTZ
  Basis Set:
  @DF-RHF Final Energy:  -501.21995836417386
    Total Energy =                       -501.2199583641739764
  Basis Set: CC-PVTZ
  Basis Set:
  Basis Set: CC-PVTZ
  Basis Set:
  @DF-RHF Final Energy:  -501.22004486067613
    Total Energy =                       -501.2200448606752161
  Basis Set: CC-PVTZ
  Basis Set:
  Basis Set: CC-PVTZ
  Basis Set:
  @DF-RHF Final Energy:  -501.22006817503984
    Total Energy =                       -501.2200681750396143
  Basis Set: CC-PVTZ
  Basis Set:
  Charge       = 0
  Multiplicity = 1
  Basis Set: CC-PVTZ
  Basis Set:

    Orbital Energies (a.u.)
    -----------------------

    Doubly Occupied:

       1A    -20.595972     2A    -20.533788     3A    -11.364207
       4A    -11.278204     5A    -11.232878     6A    -11.217387
       7A    -11.215212     8A    -11.213796     9A    -11.213441
      10A    -11.212386    11A    -11.206783    12A     -1.471940
      13A     -1.365405    14A     -1.098263    15A     -1.067815
      16A     -1.019122    17A     -0.977729    18A     -0.928686
      19A     -0.862571    20A     -0.801872    21A     -0.790207
      22A     -0.765312    23A     -0.702282    24A     -0.685819
      25A     -0.675591    26A     -0.651177    27A     -0.628525
      28A     -0.607487    29A     -0.593790    30A     -0.578169
      31A     -0.566820    32A     -0.555963    33A     -0.534233
      34A     -0.527938    35A     -0.519549    36A     -0.512485
      37A     -0.494487    38A     -0.477427    39A     -0.473549
      40A     -0.461191    41A     -0.459126    42A     -0.455528
      43A     -0.444047    44A     -0.436629

  @DF-RHF Final Energy:  -501.22006895667198

   => Energetics <=

    Nuclear Repulsion Energy =            612.9837102746865867
    One-Electron Energy =               -1897.4579852427818878
    Two-Electron Energy =                 783.2542060114230935
    DFT Exchange-Correlation Energy =       0.0000000000000000
    Empirical Dispersion Energy =           0.0000000000000000
    PCM Polarization Energy =               0.0000000000000000
    EFP Energy =                            0.0000000000000000
    Total Energy =                       -501.2200689566723213
    Molecular point group: c1
  Basis Set: CC-PVTZ
  Basis Set:

  -Total Gradient:
     Atom            X                  Y                   Z
    ------   -----------------  -----------------  -----------------
       1        0.000106450771    -0.000170530363     0.000084687316
       2       -0.000066591249    -0.000037561128     0.000025022222
       3       -0.000090840710     0.000041403356    -0.000112762581
       4        0.000056318319     0.000186479082    -0.000137035204
       5       -0.000230625368     0.000685311574    -0.000400332574
       6        0.000011067279    -0.000030684396     0.000001568582
       7       -0.000016521491     0.000033793971     0.000000015003
       8        0.000364266003    -0.000984961516     0.000953328060
       9       -0.000019756211    -0.000075356399     0.000055306965
      10        0.000018933625     0.000016965753    -0.000045495524
      11       -0.000471862573     0.001233595768    -0.001284450973
      12        0.000060242019     0.000045806117     0.000049948810
      13        0.000041631349     0.000007010646    -0.000022811107
      14       -0.000018661668    -0.000065561528     0.000013146268
      15        0.000267111578    -0.000830363387     0.000858445907
      16       -0.000032551305    -0.000021115970    -0.000043493945
      17       -0.000017755154     0.000018449665    -0.000027824813
      18        0.000006891861     0.000004298532     0.000010248649
      19        0.000008122889    -0.000022981357     0.000002028316
      20       -0.000000757041    -0.000019676303     0.000000265390
      21       -0.000004941115     0.000003558248     0.000006626146
      22       -0.000000483560     0.000009533039    -0.000002270391
      23        0.000001215073     0.000007220342     0.000001181656
      24        0.000000958405     0.000000311213    -0.000000243042
      25        0.000008964199    -0.000004505748    -0.000003711820
      26        0.000036450398    -0.000062780203     0.000051157250
      27       -0.000006721583     0.000021923874     0.000054102893
      28        0.000034414867     0.000061196752    -0.000044344694
      29       -0.000044969594    -0.000050779631    -0.000042302761

  **** Optimization is complete! (in 7 steps) ****
    Final optimized geometry and variables:
    Molecular point group: c1

    Geometry (in Angstrom), charge = 0, multiplicity = 1:

    O            3.098634850616     0.707392612999    -0.310531841542
    C            2.601768394338    -0.139322069835     0.350733799659
    C            1.174922156442    -0.147893167045     0.836520126936
    O            3.255148360952    -1.215230643069     0.758322229061
    C            0.375602310287     1.075442469142     0.406489880442
    H            0.725253874143    -1.069164338602     0.483865994084
    H            1.205488207951    -0.230164305686     1.918274278120
    C           -1.073396006709     1.048381523286     0.895139535440
    H            0.395860559946     1.157493467227    -0.674442651129
    H            0.868544134517     1.963054285268     0.784619602775
    C           -1.962589177982    -0.018928663421     0.221595002452
    H           -1.501071427293     2.028850759388     0.715518371229
    H           -1.084163074173     0.915880599374     1.972743958299
    C           -3.190718911794     0.563803019144    -0.473535270913
    H           -1.382225313149    -0.580586672767    -0.504504111574
    H           -2.290480091622    -0.747255929443     0.956926013607
    C           -4.069257265693    -0.489173646072    -1.141716479989
    H           -2.868960395653     1.288537024064    -1.218002078000
    H           -3.782484234159     1.117291798906     0.251837337377
    C           -5.292617892905     0.102107700405    -1.834346446728
    H           -3.477926324490    -1.042370889781    -1.866423439098
    H           -4.391641122652    -1.212267537571    -0.397323578861
    H           -5.894176862410    -0.671394090664    -2.297785803317
    H           -5.002527399886     0.803914307154    -2.609203158252
    H           -5.923194977429     0.633035112068    -1.128917791378
    C            4.609647902812    -1.336049659535     0.374012919036
    H            4.700030195635    -1.360924436220    -0.701770569902
    H            4.958339044376    -2.263529016224     0.798179656184
    H            5.189799812165    -0.509711175988     0.756915276819

  Mulliken Charges: (a.u.)
   Center  Symbol    Alpha    Beta     Spin     Total
       1     O     4.19690  4.19690  0.00000 -0.39379
       2     C     2.80532  2.80532  0.00000  0.38935
       3     C     3.10180  3.10180  0.00000 -0.20360
       4     O     4.14732  4.14732  0.00000 -0.29464
       5     C     3.08995  3.08995  0.00000 -0.17990
       6     H     0.43833  0.43833  0.00000  0.12334
       7     H     0.43949  0.43949  0.00000  0.12102
       8     C     3.11090  3.11090  0.00000 -0.22180
       9     H     0.44573  0.44573  0.00000  0.10854
      10     H     0.44147  0.44147  0.00000  0.11706
      11     C     3.09921  3.09921  0.00000 -0.19842
      12     H     0.44563  0.44563  0.00000  0.10875
      13     H     0.44838  0.44838  0.00000  0.10324
      14     C     3.08500  3.08500  0.00000 -0.17000
      15     H     0.45449  0.45449  0.00000  0.09101
      16     H     0.44823  0.44823  0.00000  0.10353
      17     C     3.08447  3.08447  0.00000 -0.16893
      18     H     0.45365  0.45365  0.00000  0.09270
      19     H     0.45342  0.45342  0.00000  0.09317
      20     C     3.15048  3.15048  0.00000 -0.30096
      21     H     0.45456  0.45456  0.00000  0.09087
      22     H     0.45498  0.45498  0.00000  0.09004
      23     H     0.44840  0.44840  0.00000  0.10320
      24     H     0.45483  0.45483  0.00000  0.09033
      25     H     0.45520  0.45520  0.00000  0.08960
      26     C     3.03793  3.03793  0.00000 -0.07587
      27     H     0.45439  0.45439  0.00000  0.09122
      28     H     0.44527  0.44527  0.00000  0.10947
      29     H     0.45427  0.45427  0.00000  0.09147

   Total alpha = 44.00000, Total beta = 44.00000, Total charge = -0.00000

*** Psi4 exiting successfully. Buy a developer a beer!
