  ==> Input File <==

--------------------------------------------------------------------------
set {
	reference rhf
	basis 6-31G*
}

set_num_threads( 4 )
memory 2 gb

molecule MOL {
0 1

H	 1.050016	 0.994824	 1.908744
C	 0.116896	 1.094776	 1.371527
O	 0.000000	 0.000000	 0.521119
H	 -0.700825	 1.131000	 2.089656
H	 0.128666	 2.031471	 0.816410
C	 -1.165642	 0.000000	 -0.238270
H	 -1.228672	 0.883184	 -0.872070
H	 -2.003012	 0.000000	 0.445920
H	 -1.228672	 -0.883184	 -0.872070

	symmetry c1
}
set optking {
	frozen_dihedral = ("
		2 3 6 7
	")
}

ee = optimize('scf')
oeprop('DIPOLE', 'QUADRUPOLE', 'MULLIKEN_CHARGES')
f=open( 'psi4out.xyz', 'w' )
f.write( "9  " )
f.write( str(ee) + "\n" )
f.write( MOL.save_string_xyz() )
f.close()
--------------------------------------------------------------------------

    Molecular point group: c1
  Charge       = 0
  Multiplicity = 1
  Basis Set: 6-31G*
  Basis Set:
  @DF-RHF Final Energy:  -154.06347968795689
    Total Energy =                       -154.0634796879568000
    Molecular point group: c1
  Basis Set: 6-31G*
  Basis Set:
  Basis Set: 6-31G*
  Basis Set:
  @DF-RHF Final Energy:  -154.06437543345587
    Total Energy =                       -154.0643754334558935
  Basis Set: 6-31G*
  Basis Set:
  Basis Set: 6-31G*
  Basis Set:
  @DF-RHF Final Energy:  -154.06463805771295
    Total Energy =                       -154.0646380577130117
  Basis Set: 6-31G*
  Basis Set:
  Charge       = 0
  Multiplicity = 1
  Basis Set: 6-31G*
  Basis Set:

    Orbital Energies (a.u.)
    -----------------------

    Doubly Occupied:

       1A    -20.556387     2A    -11.265285     3A    -11.265263
       4A     -1.379619     5A     -0.974892     6A     -0.872979
       7A     -0.661843     8A     -0.654312     9A     -0.645296
      10A     -0.551806    11A     -0.529636    12A     -0.474914
      13A     -0.417443

  @DF-RHF Final Energy:  -154.06463947944729

   => Energetics <=

    Nuclear Repulsion Energy =             84.7742322525019603
    One-Electron Energy =                -377.1783948042489101
    Two-Electron Energy =                 138.3395230722996985
    DFT Exchange-Correlation Energy =       0.0000000000000000
    Empirical Dispersion Energy =           0.0000000000000000
    PCM Polarization Energy =               0.0000000000000000
    EFP Energy =                            0.0000000000000000
    Total Energy =                       -154.0646394794472371
    Molecular point group: c1
  Basis Set: 6-31G*
  Basis Set:

  -Total Gradient:
     Atom            X                  Y                   Z
    ------   -----------------  -----------------  -----------------
       1       -0.000012716134    -0.000103941243    -0.000067207101
       2       -0.000140213374     0.000139469272    -0.000190340288
       3       -0.000066272962    -0.000111873031     0.000096520356
       4        0.000007367903    -0.000029444197     0.000014526962
       5        0.000025007266     0.000035898584     0.000019446824
       6        0.000066656689     0.000006681236    -0.000071417280
       7        0.000017845286     0.000070120130     0.000117068840
       8        0.000026959927     0.000003751216     0.000044022541
       9        0.000075365399    -0.000010661967     0.000037379146

  **** Optimization is complete! (in 4 steps) ****
    Final optimized geometry and variables:
    Molecular point group: c1

    Geometry (in Angstrom), charge = 0, multiplicity = 1:

    H            1.425607797218     0.609758310804     1.342833707381
    C            0.488970747526     0.717075880290     0.813314248342
    O            0.356689499686    -0.378890150458    -0.033359480858
    H           -0.322327370957     0.761563250027     1.538224730113
    H            0.504301002726     1.652526328674     0.256213543625
    C           -0.815263219456    -0.370552512810    -0.782871524818
    H           -0.876003732869     0.511840567971    -1.417922721667
    H           -1.696930967775    -0.395652592184    -0.144325840200
    H           -0.810459367499    -1.252768595210    -1.408060543315

  Mulliken Charges: (a.u.)
   Center  Symbol    Alpha    Beta     Spin     Total
       1     H     0.41170  0.41170  0.00000  0.17660
       2     C     3.08039  3.08039  0.00000 -0.16078
       3     O     4.29498  4.29498  0.00000 -0.58997
       4     H     0.43023  0.43023  0.00000  0.13954
       5     H     0.43019  0.43019  0.00000  0.13962
       6     C     3.08036  3.08036  0.00000 -0.16071
       7     H     0.43029  0.43029  0.00000  0.13943
       8     H     0.43017  0.43017  0.00000  0.13965
       9     H     0.41169  0.41169  0.00000  0.17662

   Total alpha = 13.00000, Total beta = 13.00000, Total charge =  0.00000
