  ==> Input File <==

--------------------------------------------------------------------------
set {
	reference rhf
	basis 6-31G*
}

set_num_threads( 1 )
memory 2 gb

molecule MOL {
0 1

H	 0.208662	 -3.478264	 -0.044560
O	 0.709245	 -2.691056	 0.146426
C	 -0.091181	 -1.639730	 -0.028071
C	 0.624473	 -0.343591	 0.253101
O	 -1.224125	 -1.757791	 -0.364992
C	 -0.265902	 0.883932	 0.072916
H	 1.023885	 -0.413995	 1.259524
H	 1.487475	 -0.302978	 -0.406694
C	 -1.728698	 0.646073	 0.462102
H	 -0.209144	 1.219470	 -0.958188
H	 0.135059	 1.692851	 0.673903
C	 -2.482460	 -0.343073	 -0.431425
H	 -2.245265	 1.602650	 0.432430
H	 -1.779332	 0.308348	 1.496285
C	 -3.960546	 -0.461025	 -0.060175
H	 -2.395034	 -0.026811	 -1.468912
H	 -2.024850	 -1.327147	 -0.371646
H	 -4.472726	 -1.168004	 -0.705284
H	 -4.465146	 0.496508	 -0.151489
H	 -4.081218	 -0.800940	 0.964585

	symmetry c1
}
set optking {
	frozen_dihedral = ("
		16 12 9 6,
		12 9 6 10,
		5 3 4 7,
		1 2 3 5
	")
}

ee = energy('scf')
oeprop('DIPOLE', 'QUADRUPOLE', 'MULLIKEN_CHARGES')
f=open( 'psi4out.xyz', 'w' )
f.write( "20  " )
f.write( str(ee) + "\n" )
f.write( MOL.save_string_xyz() )
f.close()
--------------------------------------------------------------------------

    Molecular point group: c1

    Geometry (in Angstrom), charge = 0, multiplicity = 1:

       Center              X                  Y                   Z               Mass
    ------------   -----------------  -----------------  -----------------  -----------------
           H          1.260076462856    -2.716198462746    -0.048445291727     1.007825032070
           O          1.760659462856    -1.928990462746     0.142540708273    15.994914619560
           C          0.960233462856    -0.877664462746    -0.031956291727    12.000000000000
           C          1.675887462856     0.418474537254     0.249215708273    12.000000000000
           O         -0.172710537144    -0.995725462746    -0.368877291727    15.994914619560
           C          0.785512462856     1.645997537254     0.069030708273    12.000000000000
           H          2.075299462856     0.348070537254     1.255638708273     1.007825032070
           H          2.538889462856     0.459087537254    -0.410579291727     1.007825032070
           C         -0.677283537144     1.408138537254     0.458216708273    12.000000000000
           H          0.842270462856     1.981535537254    -0.962073291727     1.007825032070
           H          1.186473462856     2.454916537254     0.670017708273     1.007825032070
           C         -1.431045537144     0.418992537254    -0.435310291727    12.000000000000
           H         -1.193850537144     2.364715537254     0.428544708273     1.007825032070
           H         -0.727917537144     1.070413537254     1.492399708273     1.007825032070
           C         -2.909131537144     0.301040537254    -0.064060291727    12.000000000000
           H         -1.343619537144     0.735254537254    -1.472797291727     1.007825032070
           H         -0.973435537144    -0.565081462746    -0.375531291727     1.007825032070
           H         -3.421311537144    -0.405938462746    -0.709169291727     1.007825032070
           H         -3.413731537144     1.258573537254    -0.155374291727     1.007825032070
           H         -3.029803537144    -0.038874462746     0.960699708273     1.007825032070

  Charge       = 0
  Multiplicity = 1
  Basis Set: 6-31G*
  Basis Set:

    Orbital Energies (a.u.)
    -----------------------

    Doubly Occupied:

       1A    -20.651960     2A    -20.584527     3A    -11.437137
       4A    -11.261727     5A    -11.224573     6A    -11.190512
       7A    -11.156133     8A    -11.081082     9A     -1.544854
      10A     -1.447414    11A     -1.098656    12A     -1.055337
      13A     -0.952513    14A     -0.927630    15A     -0.859650
      16A     -0.800401    17A     -0.732130    18A     -0.714946
      19A     -0.695453    20A     -0.649042    21A     -0.616857
      22A     -0.586019    23A     -0.570849    24A     -0.546848
      25A     -0.528016    26A     -0.523933    27A     -0.509939
      28A     -0.478232    29A     -0.474112    30A     -0.416672
      31A     -0.411657    32A     -0.240083

  @DF-RHF Final Energy:  -383.64075501139791

   => Energetics <=

    Nuclear Repulsion Energy =            412.7703474034190094
    One-Electron Energy =               -1340.8844090649060945
    Two-Electron Energy =                 544.4733066500893983
    DFT Exchange-Correlation Energy =       0.0000000000000000
    Empirical Dispersion Energy =           0.0000000000000000
    PCM Polarization Energy =               0.0000000000000000
    EFP Energy =                            0.0000000000000000
    Total Energy =                       -383.6407550113976868

  Mulliken Charges: (a.u.)
   Center  Symbol    Alpha    Beta     Spin     Total
       1     H     0.26339  0.26339  0.00000  0.47321
       2     O     4.33830  4.33830  0.00000 -0.67659
       3     C     2.61469  2.61469  0.00000  0.77062
       4     C     3.21511  3.21511  0.00000 -0.43021
       5     O     4.22341  4.22341  0.00000 -0.44683
       6     C     3.16085  3.16085  0.00000 -0.32169
       7     H     0.38905  0.38905  0.00000  0.22190
       8     H     0.38889  0.38889  0.00000  0.22222
       9     C     3.16118  3.16118  0.00000 -0.32236
      10     H     0.41304  0.41304  0.00000  0.17392
      11     H     0.41349  0.41349  0.00000  0.17302
      12     C     3.24507  3.24507  0.00000 -0.49014
      13     H     0.42151  0.42151  0.00000  0.15698
      14     H     0.43705  0.43705  0.00000  0.12590
      15     C     3.22010  3.22010  0.00000 -0.44020
      16     H     0.45261  0.45261  0.00000  0.09479
      17     H     0.31607  0.31607  0.00000  0.36786
      18     H     0.43697  0.43697  0.00000  0.12606
      19     H     0.44561  0.44561  0.00000  0.10877
      20     H     0.44361  0.44361  0.00000  0.11278

   Total alpha = 32.00000, Total beta = 32.00000, Total charge =  0.00000
