  ==> Input File <==

--------------------------------------------------------------------------
set {
	reference rhf
	basis cc-pvtz
}

set_num_threads( 4 )
memory 2 gb

molecule MOL {
0 1

H	 -3.162190	 0.493205	 -0.000107
C	 -2.363908	 -0.234727	 0.000005
O	 -1.158738	 0.454634	 -0.000087
H	 -2.464314	 -0.863616	 -0.882153
H	 -2.464327	 -0.863359	 0.882345
C	 -0.028611	 -0.359694	 0.000037
C	 0.075825	 -1.068446	 1.335386
H	 0.864338	 0.239992	 -0.177884
H	 -0.092912	 -1.088580	 -0.808191
C	 1.292788	 -1.983290	 1.415461
H	 0.117609	 -0.321604	 2.120502
H	 -0.832001	 -1.639648	 1.495173
H	 2.214849	 -1.427286	 1.282241
H	 1.342843	 -2.476108	 2.378604
H	 1.258747	 -2.754307	 0.652937

	symmetry c1
}
set optking {
	frozen_dihedral = ("
		8 6 3 2
	")
}

ee = optimize('scf')
oeprop('DIPOLE', 'QUADRUPOLE', 'MULLIKEN_CHARGES')
f=open( 'psi4out.xyz', 'w' )
f.write( "15  " )
f.write( str(ee) + "\n" )
f.write( MOL.save_string_xyz() )
f.close()
--------------------------------------------------------------------------

    Molecular point group: c1
  Charge       = 0
  Multiplicity = 1
  Basis Set: CC-PVTZ
  Basis Set:
  @DF-RHF Final Energy:  -232.22124174186590
    Total Energy =                       -232.2212417418660380
    Molecular point group: c1
  Basis Set: CC-PVTZ
  Basis Set:
  Basis Set: CC-PVTZ
  Basis Set:
  @DF-RHF Final Energy:  -232.22303780756073
    Total Energy =                       -232.2230378075607860
  Basis Set: CC-PVTZ
  Basis Set:
  Basis Set: CC-PVTZ
  Basis Set:
  @DF-RHF Final Energy:  -232.22494285967892
    Total Energy =                       -232.2249428596788903
  Basis Set: CC-PVTZ
  Basis Set:
  Basis Set: CC-PVTZ
  Basis Set:
  @DF-RHF Final Energy:  -232.22511020562442
    Total Energy =                       -232.2251102056245600
  Basis Set: CC-PVTZ
  Basis Set:
  Basis Set: CC-PVTZ
  Basis Set:
  @DF-RHF Final Energy:  -232.22512338300086
    Total Energy =                       -232.2251233830008346
  Basis Set: CC-PVTZ
  Basis Set:
  Charge       = 0
  Multiplicity = 1
  Basis Set: CC-PVTZ
  Basis Set:

    Orbital Energies (a.u.)
    -----------------------

    Doubly Occupied:

       1A    -20.545899     2A    -11.264357     3A    -11.260868
       4A    -11.215463     5A    -11.213068     6A     -1.378123
       7A     -1.057682     8A     -0.960392     9A     -0.883530
      10A     -0.804416    11A     -0.671714    12A     -0.659373
      13A     -0.635604    14A     -0.603621    15A     -0.565197
      16A     -0.531452    17A     -0.522896    18A     -0.498217
      19A     -0.485203    20A     -0.456578    21A     -0.409420

  @DF-RHF Final Energy:  -232.22512412909487

   => Energetics <=

    Nuclear Repulsion Energy =            191.9142376922825406
    One-Electron Energy =                -695.0325819108895757
    Two-Electron Energy =                 270.8932200895121696
    DFT Exchange-Correlation Energy =       0.0000000000000000
    Empirical Dispersion Energy =           0.0000000000000000
    PCM Polarization Energy =               0.0000000000000000
    EFP Energy =                            0.0000000000000000
    Total Energy =                       -232.2251241290948656
    Molecular point group: c1
  Basis Set: CC-PVTZ
  Basis Set:

  -Total Gradient:
     Atom            X                  Y                   Z
    ------   -----------------  -----------------  -----------------
       1       -0.000020050568    -0.000007341705     0.000008169140
       2       -0.000037137476     0.000058389022     0.000905438766
       3        0.000034207820    -0.000038245216    -0.001081097490
       4        0.000002694922    -0.000002413961    -0.000006424685
       5        0.000005539413    -0.000004335379    -0.000001356705
       6       -0.000074710810    -0.000136037949    -0.000886452046
       7       -0.000048743399    -0.000038489787     0.000009920194
       8        0.000124564533     0.000150912255     0.001054844332
       9        0.000004088204    -0.000006514670     0.000017617276
      10        0.000023102196     0.000027876341    -0.000008596221
      11        0.000004236120    -0.000001098488    -0.000012356088
      12       -0.000009110374    -0.000004878390     0.000008116937
      13        0.000009249747    -0.000004394611    -0.000003085427
      14       -0.000008295073     0.000009902945    -0.000003100025
      15       -0.000009635255    -0.000003330408    -0.000001637958

  **** Optimization is complete! (in 6 steps) ****
    Final optimized geometry and variables:
    Molecular point group: c1

    Geometry (in Angstrom), charge = 0, multiplicity = 1:

    H           -2.683382202500     1.274155137885    -0.782791509457
    C           -1.961227724594     0.497086478890    -0.576941534009
    O           -0.704650671883     1.091086882206    -0.550625151763
    H           -2.028755276603    -0.255257583922    -1.360522011352
    H           -2.218814485276     0.032419330351     0.369613991195
    C            0.388662833022     0.225104341081    -0.501783739219
    C            0.550469552024    -0.508616682769     0.823396429614
    H            1.260541069221     0.845060441482    -0.668560827074
    H            0.332516301083    -0.492765219027    -1.320141898328
    C            1.841084280423    -1.320819015700     0.864676101802
    H            0.544749899173     0.222858426997     1.624935001753
    H           -0.292761438758    -1.169130811484     0.993479827855
    H            2.710474079976    -0.684478605518     0.738516225811
    H            1.945258523860    -1.837562829699     1.810896010624
    H            1.861930032166    -2.067863810753     0.078002514161

  Mulliken Charges: (a.u.)
   Center  Symbol    Alpha    Beta     Spin     Total
       1     H     0.44441  0.44441  0.00000  0.11118
       2     C     3.03519  3.03519  0.00000 -0.07039
       3     O     4.17650  4.17650  0.00000 -0.35300
       4     H     0.47292  0.47292  0.00000  0.05415
       5     H     0.46931  0.46931  0.00000  0.06139
       6     C     2.97660  2.97660  0.00000  0.04679
       7     C     3.08988  3.08988  0.00000 -0.17976
       8     H     0.44954  0.44954  0.00000  0.10092
       9     H     0.47115  0.47115  0.00000  0.05770
      10     C     3.15259  3.15259  0.00000 -0.30518
      11     H     0.44982  0.44982  0.00000  0.10036
      12     H     0.45650  0.45650  0.00000  0.08701
      13     H     0.45356  0.45356  0.00000  0.09287
      14     H     0.44672  0.44672  0.00000  0.10657
      15     H     0.45531  0.45531  0.00000  0.08939

   Total alpha = 21.00000, Total beta = 21.00000, Total charge = -0.00000
