  ==> Input File <==

--------------------------------------------------------------------------
set {
	reference rhf
	basis 6-31G*
}

set_num_threads( 1 )
memory 2 gb

molecule MOL {
0 1

H	 0.944778	 -1.028676	 -0.940961
O	 1.654024	 -0.625927	 -0.460906
C	 1.135793	 0.118896	 0.612333
C	 0.031547	 1.023609	 0.088541
H	 1.915668	 0.729681	 1.063582
H	 0.754543	 -0.542641	 1.387006
C	 -1.134819	 0.293262	 -0.585751
H	 0.474374	 1.714721	 -0.623187
H	 -0.338529	 1.620940	 0.920081
C	 -1.917817	 -0.639439	 0.339494
H	 -0.758119	 -0.268455	 -1.433105
H	 -1.813832	 1.041889	 -0.986690
H	 -2.777680	 -1.057197	 -0.174994
H	 -1.310268	 -1.471279	 0.680599
H	 -2.283753	 -0.111424	 1.216626

	symmetry c1
}
set optking {
	frozen_dihedral = ("
		8 4 7 11,
		2 3 4 8
	")
}

ee = energy('scf')
oeprop('DIPOLE', 'QUADRUPOLE', 'MULLIKEN_CHARGES')
f=open( 'psi4out.xyz', 'w' )
f.write( "15  " )
f.write( str(ee) + "\n" )
f.write( MOL.save_string_xyz() )
f.close()
--------------------------------------------------------------------------

    Molecular point group: c1

    Geometry (in Angstrom), charge = 0, multiplicity = 1:

       Center              X                  Y                   Z               Mass
    ------------   -----------------  -----------------  -----------------  -----------------
           H          0.963692154806    -1.031062245361    -0.930172835431     1.007825032070
           O          1.672938154806    -0.628313245361    -0.450117835431    15.994914619560
           C          1.154707154806     0.116509754639     0.623121164569    12.000000000000
           C          0.050461154806     1.021222754639     0.099329164569    12.000000000000
           H          1.934582154806     0.727294754639     1.074370164569     1.007825032070
           H          0.773457154806    -0.545027245361     1.397794164569     1.007825032070
           C         -1.115904845194     0.290875754639    -0.574962835431    12.000000000000
           H          0.493288154806     1.712334754639    -0.612398835431     1.007825032070
           H         -0.319614845194     1.618553754639     0.930869164569     1.007825032070
           C         -1.898902845194    -0.641825245361     0.350282164569    12.000000000000
           H         -0.739204845194    -0.270841245361    -1.422316835431     1.007825032070
           H         -1.794917845194     1.039502754639    -0.975901835431     1.007825032070
           H         -2.758765845194    -1.059583245361    -0.164205835431     1.007825032070
           H         -1.291353845194    -1.473665245361     0.691387164569     1.007825032070
           H         -2.264838845194    -0.113810245361     1.227414164569     1.007825032070

  Charge       = 0
  Multiplicity = 1
  Basis Set: 6-31G*
  Basis Set:

    Orbital Energies (a.u.)
    -----------------------

    Doubly Occupied:

       1A    -20.549619     2A    -11.267579     3A    -11.227937
       4A    -11.218532     5A    -11.217689     6A     -1.359033
       7A     -1.074729     8A     -0.977938     9A     -0.883392
      10A     -0.787761    11A     -0.691014    12A     -0.649777
      13A     -0.624803    14A     -0.585479    15A     -0.575637
      16A     -0.551241    17A     -0.502288    18A     -0.489437
      19A     -0.481760    20A     -0.460650    21A     -0.426792

  @DF-RHF Final Energy:  -232.13966264527696

   => Energetics <=

    Nuclear Repulsion Energy =            193.1973822368842946
    One-Electron Energy =                -697.4679224223183382
    Two-Electron Energy =                 272.1308775401568596
    DFT Exchange-Correlation Energy =       0.0000000000000000
    Empirical Dispersion Energy =           0.0000000000000000
    PCM Polarization Energy =               0.0000000000000000
    EFP Energy =                            0.0000000000000000
    Total Energy =                       -232.1396626452771557

  Mulliken Charges: (a.u.)
   Center  Symbol    Alpha    Beta     Spin     Total
       1     H     0.27554  0.27554  0.00000  0.44891
       2     O     4.37554  4.37554  0.00000 -0.75109
       3     C     2.99415  2.99415  0.00000  0.01170
       4     C     3.16724  3.16724  0.00000 -0.33448
       5     H     0.41444  0.41444  0.00000  0.17111
       6     H     0.42892  0.42892  0.00000  0.14216
       7     C     3.16746  3.16746  0.00000 -0.33492
       8     H     0.41299  0.41299  0.00000  0.17402
       9     H     0.42428  0.42428  0.00000  0.15144
      10     C     3.24267  3.24267  0.00000 -0.48535
      11     H     0.42861  0.42861  0.00000  0.14279
      12     H     0.41324  0.41324  0.00000  0.17351
      13     H     0.41623  0.41623  0.00000  0.16753
      14     H     0.42014  0.42014  0.00000  0.15972
      15     H     0.41854  0.41854  0.00000  0.16292

   Total alpha = 21.00000, Total beta = 21.00000, Total charge =  0.00000
