  ==> Input File <==

--------------------------------------------------------------------------
set {
	reference rhf
	basis 6-31G*
}

set_num_threads( 4 )
memory 2 gb

molecule MOL {
0 1

H	 -2.725151	 0.800574	 -1.484584
C	 -1.979651	 0.014774	 -1.588935
O	 -1.392607	 -0.295399	 -0.366433
H	 -2.463440	 -0.880335	 -1.954818
H	 -1.238446	 0.337181	 -2.319070
C	 -0.719715	 0.768384	 0.229244
C	 0.719720	 0.768376	 -0.229267
H	 -1.185038	 1.714362	 -0.050570
H	 -0.750528	 0.687237	 1.313896
O	 1.392611	 -0.295398	 0.366430
H	 0.750534	 0.687200	 -1.313918
H	 1.185043	 1.714359	 0.050526
C	 2.706965	 -0.449871	 -0.062409
H	 2.756559	 -0.644779	 -1.131878
H	 3.305899	 0.433456	 0.155466
H	 3.125548	 -1.294566	 0.467107

	symmetry c1
}
set optking {
	frozen_dihedral = ("
		2 3 6 7
	")
}

ee = optimize('scf')
oeprop('DIPOLE', 'QUADRUPOLE', 'MULLIKEN_CHARGES')
f=open( 'psi4out.xyz', 'w' )
f.write( "16  " )
f.write( str(ee) + "\n" )
f.write( MOL.save_string_xyz() )
f.close()
--------------------------------------------------------------------------

    Molecular point group: c1
  Charge       = 0
  Multiplicity = 1
  Basis Set: 6-31G*
  Basis Set:
  @DF-RHF Final Energy:  -306.97305335431463
    Total Energy =                       -306.9730533543145725
    Molecular point group: c1
  Basis Set: 6-31G*
  Basis Set:
  Basis Set: 6-31G*
  Basis Set:
  @DF-RHF Final Energy:  -306.97433670365734
    Total Energy =                       -306.9743367036573432
  Basis Set: 6-31G*
  Basis Set:
  Basis Set: 6-31G*
  Basis Set:
  @DF-RHF Final Energy:  -306.97460051739415
    Total Energy =                       -306.9746005173943217
  Basis Set: 6-31G*
  Basis Set:
  Basis Set: 6-31G*
  Basis Set:
  @DF-RHF Final Energy:  -306.97460551426434
    Total Energy =                       -306.9746055142641126
  Basis Set: 6-31G*
  Basis Set:
  Charge       = 0
  Multiplicity = 1
  Basis Set: 6-31G*
  Basis Set:

    Orbital Energies (a.u.)
    -----------------------

    Doubly Occupied:

       1A    -20.555195     2A    -20.552761     3A    -11.270199
       4A    -11.268848     5A    -11.265332     6A    -11.265173
       7A     -1.388019     8A     -1.370233     9A     -1.028297
      10A     -0.942471    11A     -0.897763    12A     -0.819353
      13A     -0.687209    14A     -0.678953    15A     -0.658317
      16A     -0.637745    17A     -0.624666    18A     -0.603304
      19A     -0.556154    20A     -0.526441    21A     -0.515786
      22A     -0.485075    23A     -0.464386    24A     -0.416818
      25A     -0.408840

  @DF-RHF Final Energy:  -306.97460598255924

   => Energetics <=

    Nuclear Repulsion Energy =            260.5021553694176077
    One-Electron Energy =                -935.1788478847513488
    Two-Electron Energy =                 367.7020865327746719
    DFT Exchange-Correlation Energy =       0.0000000000000000
    Empirical Dispersion Energy =           0.0000000000000000
    PCM Polarization Energy =               0.0000000000000000
    EFP Energy =                            0.0000000000000000
    Total Energy =                       -306.9746059825591260
    Molecular point group: c1
  Basis Set: 6-31G*
  Basis Set:

  -Total Gradient:
     Atom            X                  Y                   Z
    ------   -----------------  -----------------  -----------------
       1       -0.000002160950    -0.000000774388    -0.000003498762
       2       -0.000720944639     0.000299348268     0.000436449299
       3        0.001107717126    -0.000658208765    -0.000343052209
       4        0.000003324980     0.000003959717     0.000004791696
       5        0.000002991404     0.000003155187    -0.000008528262
       6       -0.000584636690     0.000822191869    -0.000713301701
       7        0.000130371690    -0.000412981998     0.000588281428
       8        0.000004671832    -0.000011053295    -0.000002633990
       9        0.000009000850    -0.000004819093     0.000002538808
      10        0.000019742615    -0.000014827015     0.000010871607
      11        0.000003825893    -0.000003823241     0.000013019809
      12        0.000020394164    -0.000008330216     0.000003706849
      13        0.000005357865    -0.000014857949     0.000010732344
      14       -0.000007795170     0.000003824947     0.000002400670
      15       -0.000003279510     0.000000163165    -0.000001069920
      16        0.000011418544    -0.000002967192    -0.000000707668

  **** Optimization is complete! (in 5 steps) ****
    Final optimized geometry and variables:
    Molecular point group: c1

    Geometry (in Angstrom), charge = 0, multiplicity = 1:

    H           -2.872700069713     0.728171422000    -1.206937124490
    C           -2.159142170326    -0.089919575735    -1.287571575205
    O           -1.553683046023    -0.357465012203    -0.062641345478
    H           -2.686599274865    -0.984540138643    -1.588445671147
    H           -1.435503284270     0.159986368873    -2.060545179167
    C           -0.826590919745     0.696953041963     0.493096142840
    C            0.629140336019     0.705286553628     0.067153375604
    H           -1.281478299072     1.653879797535     0.240821808022
    H           -0.868093984186     0.577229790286     1.568076735745
    O            1.270051070877    -0.398899971334     0.621240112270
    H            0.709886984716     0.687800506156    -1.019253941422
    H            1.095581618067     1.629144582256     0.413580373839
    C            2.604050300149    -0.532157558370     0.249956581908
    H            2.707943732350    -0.653969317683    -0.826721232975
    H            3.193131956712     0.330713320998     0.557259771701
    H            2.992841284588    -1.413615936861     0.740705594350

  Mulliken Charges: (a.u.)
   Center  Symbol    Alpha    Beta     Spin     Total
       1     H     0.43013  0.43013  0.00000  0.13973
       2     C     3.08061  3.08061  0.00000 -0.16121
       3     O     4.29978  4.29978  0.00000 -0.59955
       4     H     0.41050  0.41050  0.00000  0.17900
       5     H     0.43197  0.43197  0.00000  0.13606
       6     C     3.00052  3.00052  0.00000 -0.00105
       7     C     2.99471  2.99471  0.00000  0.01058
       8     H     0.43150  0.43150  0.00000  0.13700
       9     H     0.40701  0.40701  0.00000  0.18599
      10     O     4.29863  4.29863  0.00000 -0.59726
      11     H     0.43067  0.43067  0.00000  0.13865
      12     H     0.43326  0.43326  0.00000  0.13348
      13     C     3.07915  3.07915  0.00000 -0.15829
      14     H     0.42975  0.42975  0.00000  0.14049
      15     H     0.43137  0.43137  0.00000  0.13725
      16     H     0.41044  0.41044  0.00000  0.17913

   Total alpha = 25.00000, Total beta = 25.00000, Total charge =  0.00000
