  ==> Input File <==

--------------------------------------------------------------------------
set {
	reference rhf
	basis cc-pvtz
}

set_num_threads( 4 )
memory 2 gb

molecule MOL {
0 1

H	 -0.980223	 -1.363529	 0.000744
O	 -1.432053	 -0.565244	 -0.200812
C	 -0.727158	 0.534527	 0.310686
C	 0.680222	 0.664433	 -0.252229
H	 -1.306802	 1.408001	 0.044211
H	 -0.690821	 0.490158	 1.397609
C	 1.605391	 -0.489360	 0.123098
H	 0.615089	 0.745647	 -1.332226
H	 1.101414	 1.597893	 0.110950
H	 1.247627	 -1.432485	 -0.275204
H	 2.601435	 -0.332816	 -0.273062
H	 1.691776	 -0.589902	 1.200774

	symmetry c1
}
set optking {
	frozen_dihedral = ("
		1 2 3 4
	")
}

ee = optimize('scf')
oeprop('DIPOLE', 'QUADRUPOLE', 'MULLIKEN_CHARGES')
f=open( 'psi4out.xyz', 'w' )
f.write( "12  " )
f.write( str(ee) + "\n" )
f.write( MOL.save_string_xyz() )
f.close()
--------------------------------------------------------------------------

    Molecular point group: c1
  Charge       = 0
  Multiplicity = 1
  Basis Set: CC-PVTZ
  Basis Set:
  @DF-RHF Final Energy:  -193.19042932458044
    Total Energy =                       -193.1904293245805775
    Molecular point group: c1
  Basis Set: CC-PVTZ
  Basis Set:
  Basis Set: CC-PVTZ
  Basis Set:
  @DF-RHF Final Energy:  -193.19043842719313
    Total Energy =                       -193.1904384271931576
  Basis Set: CC-PVTZ
  Basis Set:
  Basis Set: CC-PVTZ
  Basis Set:
  @DF-RHF Final Energy:  -193.19044650650338
    Total Energy =                       -193.1904465065034628
  Basis Set: CC-PVTZ
  Basis Set:
  Charge       = 0
  Multiplicity = 1
  Basis Set: CC-PVTZ
  Basis Set:

    Orbital Energies (a.u.)
    -----------------------

    Doubly Occupied:

       1A    -20.545748     2A    -11.265756     3A    -11.218789
       4A    -11.217213     5A     -1.364132     6A     -1.053175
       7A     -0.929664     8A     -0.812558     9A     -0.695411
      10A     -0.638955    11A     -0.606300    12A     -0.589308
      13A     -0.545385    14A     -0.510230    15A     -0.493965
      16A     -0.470143    17A     -0.433276

  @DF-RHF Final Energy:  -193.19044687569635

   => Energetics <=

    Nuclear Repulsion Energy =            133.2234547498404140
    One-Electron Energy =                -526.0477893736604074
    Two-Electron Energy =                 199.6338877481234704
    DFT Exchange-Correlation Energy =       0.0000000000000000
    Empirical Dispersion Energy =           0.0000000000000000
    PCM Polarization Energy =               0.0000000000000000
    EFP Energy =                            0.0000000000000000
    Total Energy =                       -193.1904468756965230
    Molecular point group: c1
  Basis Set: CC-PVTZ
  Basis Set:

  -Total Gradient:
     Atom            X                  Y                   Z
    ------   -----------------  -----------------  -----------------
       1        0.000481252516     0.000065014768    -0.000808606461
       2       -0.000513550122    -0.000230464689     0.001149308711
       3       -0.000157394927     0.000508278936    -0.000751422587
       4        0.000189605575    -0.000349022776     0.000411260133
       5        0.000017359539    -0.000013545338    -0.000014518625
       6        0.000005172060     0.000013335779     0.000018264851
       7       -0.000023468675     0.000016263148     0.000018662455
       8        0.000017352632     0.000002075599    -0.000019345431
       9       -0.000014435277    -0.000019532299     0.000005576508
      10        0.000006602874    -0.000001554773    -0.000002050305
      11       -0.000005765307     0.000008513981    -0.000007231346
      12       -0.000002730888     0.000000637662     0.000000102096

  **** Optimization is complete! (in 4 steps) ****
    Final optimized geometry and variables:
    Molecular point group: c1

    Geometry (in Angstrom), charge = 0, multiplicity = 1:

    H           -0.993090918061    -1.362490842440     0.004845046325
    O           -1.440982854155    -0.561571427234    -0.195163146709
    C           -0.727304084676     0.533575523906     0.312159678304
    C            0.679576508600     0.661090549104    -0.252825683860
    H           -1.305985004254     1.408766201036     0.050264371709
    H           -0.684813451136     0.486422884342     1.399141856506
    C            1.608209786400    -0.489390618019     0.125789596400
    H            0.616035662517     0.741520636435    -1.333120185602
    H            1.100455246526     1.594613439577     0.109646561174
    H            1.264216025793    -1.435705178895    -0.278408197605
    H            2.605893458954    -0.324721739049    -0.262622773913
    H            1.686338228315    -0.593453345829     1.203399204597

  Mulliken Charges: (a.u.)
   Center  Symbol    Alpha    Beta     Spin     Total
       1     H     0.39261  0.39261  0.00000  0.21478
       2     O     4.20518  4.20518  0.00000 -0.41037
       3     C     2.97163  2.97163  0.00000  0.05674
       4     C     3.08740  3.08740  0.00000 -0.17479
       5     H     0.45094  0.45094  0.00000  0.09811
       6     H     0.47227  0.47227  0.00000  0.05547
       7     C     3.15684  3.15684  0.00000 -0.31369
       8     H     0.45054  0.45054  0.00000  0.09892
       9     H     0.45609  0.45609  0.00000  0.08782
      10     H     0.45953  0.45953  0.00000  0.08094
      11     H     0.44441  0.44441  0.00000  0.11118
      12     H     0.45255  0.45255  0.00000  0.09490

   Total alpha = 17.00000, Total beta = 17.00000, Total charge = -0.00000
