  ==> Input File <==

--------------------------------------------------------------------------
set {
	reference rhf
	basis cc-pvtz
}

set_num_threads( 4 )
memory 2 gb

molecule MOL {
0 1

H	 0.717767	 3.580963	 1.067621
O	 1.456386	 3.059460	 0.808394
C	 1.078248	 1.828967	 0.419187
C	 2.073337	 0.953112	 0.009559
C	 -0.239865	 1.425319	 0.416746
H	 3.091846	 1.287331	 0.019223
C	 1.745831	 -0.319184	 -0.399529
H	 -1.027492	 2.079835	 0.727472
C	 -0.532034	 0.141680	 0.000000
H	 2.521534	 -0.989177	 -0.714398
C	 0.428954	 -0.747729	 -0.410776
N	 -1.937041	 -0.281114	 0.000000
H	 0.159858	 -1.732185	 -0.725667
O	 -2.159542	 -1.446261	 0.000000
O	 -2.764978	 0.565773	 0.000000

	symmetry c1
}
set optking {
	frozen_dihedral = ("
		11 9 12 14
	")
}

ee = optimize('scf')
oeprop('DIPOLE', 'QUADRUPOLE', 'MULLIKEN_CHARGES')
f=open( 'psi4out.xyz', 'w' )
f.write( "15  " )
f.write( str(ee) + "\n" )
f.write( MOL.save_string_xyz() )
f.close()
--------------------------------------------------------------------------

    Molecular point group: c1
  Charge       = 0
  Multiplicity = 1
  Basis Set: CC-PVTZ
  Basis Set:
  @DF-RHF Final Energy:  -509.21841944875149
    Total Energy =                       -509.2184194487515470
    Molecular point group: c1
  Basis Set: CC-PVTZ
  Basis Set:
  Basis Set: CC-PVTZ
  Basis Set:
  @DF-RHF Final Energy:  -509.21208507487631
    Total Energy =                       -509.2120850748757448
  Basis Set: CC-PVTZ
  Basis Set:
  Basis Set: CC-PVTZ
  Basis Set:
  @DF-RHF Final Energy:  -509.21833993307905
    Total Energy =                       -509.2183399330785960
  Basis Set: CC-PVTZ
  Basis Set:
  Basis Set: CC-PVTZ
  Basis Set:
  @DF-RHF Final Energy:  -509.21849772582266
    Total Energy =                       -509.2184977258220897
  Basis Set: CC-PVTZ
  Basis Set:
  Basis Set: CC-PVTZ
  Basis Set:
  @DF-RHF Final Energy:  -509.21849885123538
    Total Energy =                       -509.2184988512349264
  Basis Set: CC-PVTZ
  Basis Set:
  Charge       = 0
  Multiplicity = 1
  Basis Set: CC-PVTZ
  Basis Set:

    Orbital Energies (a.u.)
    -----------------------

    Doubly Occupied:

       1A    -20.608715     2A    -20.595580     3A    -20.595081
       4A    -15.850435     5A    -11.328106     6A    -11.309414
       7A    -11.263462     8A    -11.263099     9A    -11.258679
      10A    -11.256061    11A     -1.644423    12A     -1.441365
      13A     -1.427029    14A     -1.202915    15A     -1.095843
      16A     -1.048310    17A     -0.966935    18A     -0.882158
      19A     -0.832112    20A     -0.795071    21A     -0.758452
      22A     -0.742360    23A     -0.728171    24A     -0.710230
      25A     -0.676722    26A     -0.636152    27A     -0.621953
      28A     -0.598352    29A     -0.561398    30A     -0.547194
      31A     -0.522547    32A     -0.494887    33A     -0.493252
      34A     -0.459794    35A     -0.379744    36A     -0.346287

  @DF-RHF Final Energy:  -509.21850066399151

   => Energetics <=

    Nuclear Repulsion Energy =            504.7249633187676068
    One-Electron Energy =               -1696.0023526598115495
    Two-Electron Energy =                 682.0588886770526642
    DFT Exchange-Correlation Energy =       0.0000000000000000
    Empirical Dispersion Energy =           0.0000000000000000
    PCM Polarization Energy =               0.0000000000000000
    EFP Energy =                            0.0000000000000000
    Total Energy =                       -509.2185006639913354
    Molecular point group: c1
  Basis Set: CC-PVTZ
  Basis Set:

  -Total Gradient:
     Atom            X                  Y                   Z
    ------   -----------------  -----------------  -----------------
       1        0.000000892346    -0.000004077280     0.000010601453
       2        0.000000363110     0.000010661633    -0.000017049074
       3       -0.000004748872    -0.000007569363     0.000012601291
       4        0.000001001397     0.000000628281    -0.000004252084
       5        0.000005957779     0.000000229607     0.000008118484
       6       -0.000000634729     0.000000029152    -0.000002624673
       7        0.000004536143    -0.000003122378     0.000021298423
       8        0.000001048838     0.000002882269    -0.000004197707
       9        0.000214276402    -0.000841161504     0.002974301960
      10       -0.000000248551     0.000000083725    -0.000002280405
      11       -0.000152460501     0.000570929094    -0.001585218234
      12       -0.000117293602     0.000527086592    -0.003333120145
      13        0.000001614659     0.000002063403     0.000004999503
      14       -0.000040166110    -0.000160867269     0.001914692796
      15        0.000085861681    -0.000097795969     0.000002128411

  **** Optimization is complete! (in 6 steps) ****
    Final optimized geometry and variables:
    Molecular point group: c1

    Geometry (in Angstrom), charge = 0, multiplicity = 1:

    H            0.877464511339     3.045018049704     0.966807120469
    O            1.616480933581     2.521036717840     0.713886792346
    C            1.238249982530     1.291566672549     0.322309746747
    C            2.233059458578     0.416712927010    -0.090447491515
    C           -0.080459749768     0.888864173504     0.316033108670
    H            3.251121924815     0.752235880331    -0.083795812460
    C            1.905906693726    -0.855177002022    -0.501224316854
    H           -0.870288239542     1.547432725573     0.613544004269
    C           -0.369366106153    -0.398637967339    -0.088667296158
    H            2.681114109558    -1.521864382213    -0.824264925736
    C            0.590023133614    -1.287201917205    -0.503218052589
    N           -1.773941890154    -0.817016653266    -0.103593638085
    H            0.320663647518    -2.274020762251    -0.811805243454
    O           -1.997995577880    -1.980181963564    -0.118754761177
    O           -2.599269171377     0.034722002912    -0.086607430723

  Mulliken Charges: (a.u.)
   Center  Symbol    Alpha    Beta     Spin     Total
       1     H     0.38418  0.38418  0.00000  0.23165
       2     O     4.16841  4.16841  0.00000 -0.33682
       3     C     2.84420  2.84420  0.00000  0.31160
       4     C     3.09798  3.09798  0.00000 -0.19597
       5     C     3.13573  3.13573  0.00000 -0.27147
       6     H     0.41323  0.41323  0.00000  0.17354
       7     C     3.05648  3.05648  0.00000 -0.11297
       8     H     0.40950  0.40950  0.00000  0.18100
       9     C     2.96938  2.96938  0.00000  0.06125
      10     H     0.41599  0.41599  0.00000  0.16801
      11     C     3.09835  3.09835  0.00000 -0.19670
      12     N     3.25588  3.25588  0.00000  0.48825
      13     H     0.40153  0.40153  0.00000  0.19694
      14     O     4.17272  4.17272  0.00000 -0.34544
      15     O     4.17644  4.17644  0.00000 -0.35287

   Total alpha = 36.00000, Total beta = 36.00000, Total charge = -0.00000
