  ==> Input File <==

--------------------------------------------------------------------------
set {
	reference rhf
	basis cc-pvtz
}

set_num_threads( 4 )
memory 2 gb

molecule MOL {
0 1

O	 0.238357	 -0.011611	 2.067244
C	 -0.164842	 -0.562841	 1.101089
C	 -1.532661	 -1.167301	 0.961972
O	 0.550743	 -0.719877	 0.000412
H	 -2.050838	 -0.705418	 0.131573
H	 -2.087074	 -1.020377	 1.874426
H	 -1.442080	 -2.224012	 0.746120
C	 1.863204	 -0.194033	 0.000410
H	 2.031502	 0.409177	 -0.879273
H	 2.524488	 -1.045142	 0.000793
H	 2.031291	 0.409823	 0.879686

	symmetry c1
}
set optking {
	frozen_dihedral = ("
		2 4 8 9
	")
}

ee = optimize('scf')
oeprop('DIPOLE', 'QUADRUPOLE', 'MULLIKEN_CHARGES')
f=open( 'psi4out.xyz', 'w' )
f.write( "11  " )
f.write( str(ee) + "\n" )
f.write( MOL.save_string_xyz() )
f.close()
--------------------------------------------------------------------------

    Molecular point group: c1
  Charge       = 0
  Multiplicity = 1
  Basis Set: CC-PVTZ
  Basis Set:
  @DF-RHF Final Energy:  -266.93617233912880
    Total Energy =                       -266.9361723391288024
    Molecular point group: c1
  Basis Set: CC-PVTZ
  Basis Set:
  Basis Set: CC-PVTZ
  Basis Set:
  @DF-RHF Final Energy:  -266.93678590254211
    Total Energy =                       -266.9367859025419989
  Basis Set: CC-PVTZ
  Basis Set:
  Basis Set: CC-PVTZ
  Basis Set:
  @DF-RHF Final Energy:  -266.93690325376298
    Total Energy =                       -266.9369032537632620
  Basis Set: CC-PVTZ
  Basis Set:
  Basis Set: CC-PVTZ
  Basis Set:
  @DF-RHF Final Energy:  -266.93724797445032
    Total Energy =                       -266.9372479744503153
  Basis Set: CC-PVTZ
  Basis Set:
  Basis Set: CC-PVTZ
  Basis Set:
  @DF-RHF Final Energy:  -266.93726863399326
    Total Energy =                       -266.9372686339932557
  Basis Set: CC-PVTZ
  Basis Set:
  Charge       = 0
  Multiplicity = 1
  Basis Set: CC-PVTZ
  Basis Set:

    Orbital Energies (a.u.)
    -----------------------

    Doubly Occupied:

       1A    -20.597671     2A    -20.534588     3A    -11.370168
       4A    -11.278507     5A    -11.232611     6A     -1.471641
       7A     -1.368239     8A     -1.036984     9A     -0.954073
      10A     -0.779097    11A     -0.699335    12A     -0.682285
      13A     -0.680950    14A     -0.598186    15A     -0.592547
      16A     -0.561485    17A     -0.530976    18A     -0.520403
      19A     -0.458589    20A     -0.446156

  @DF-RHF Final Energy:  -266.93728246145315

   => Energetics <=

    Nuclear Repulsion Energy =            183.2450748493212132
    One-Electron Energy =                -727.5757291203328805
    Two-Electron Energy =                 277.3933718095584027
    DFT Exchange-Correlation Energy =       0.0000000000000000
    Empirical Dispersion Energy =           0.0000000000000000
    PCM Polarization Energy =               0.0000000000000000
    EFP Energy =                            0.0000000000000000
    Total Energy =                       -266.9372824614532647
    Molecular point group: c1
  Basis Set: CC-PVTZ
  Basis Set:

  -Total Gradient:
     Atom            X                  Y                   Z
    ------   -----------------  -----------------  -----------------
       1       -0.000019813232     0.000000887033     0.000012905385
       2       -0.000167942621     0.000520236337    -0.000206186055
       3       -0.000009051250     0.000002383890    -0.000007581120
       4        0.000240061734    -0.000621336825     0.000336094013
       5        0.000008632444     0.000000766813     0.000004089820
       6       -0.000006413093    -0.000002745249     0.000005837343
       7        0.000007142172     0.000003702891     0.000007150622
       8        0.000119237617    -0.000466785337    -0.000497619496
       9       -0.000202098320     0.000538235461     0.000339079875
      10        0.000020043829     0.000011024446    -0.000000141734
      11        0.000010200721     0.000013630542     0.000006371346

  **** Optimization is complete! (in 6 steps) ****
    Final optimized geometry and variables:
    Molecular point group: c1

    Geometry (in Angstrom), charge = 0, multiplicity = 1:

    O           -0.001872598722     0.506976970985     1.274325277652
    C           -0.377978030198    -0.033316696822     0.291747460031
    C           -1.743075103283    -0.635910031849     0.117161513839
    O            0.352710208898    -0.187088338836    -0.801059931660
    H           -2.242546488359    -0.166035844866    -0.720110103945
    H           -2.317115050638    -0.497609761234     1.018766849888
    H           -1.647415707608    -1.690435833004    -0.106839514125
    C            1.670914004950     0.327058194875    -0.838650260840
    H            1.768149856801     0.904098215677    -1.745817109083
    H            2.364780131215    -0.501018851261    -0.858526161201
    H            1.865829275753     0.948279457866     0.018317439641

  Mulliken Charges: (a.u.)
   Center  Symbol    Alpha    Beta     Spin     Total
       1     O     4.19704  4.19704  0.00000 -0.39408
       2     C     2.79796  2.79796  0.00000  0.40409
       3     C     3.13942  3.13942  0.00000 -0.27885
       4     O     4.15006  4.15006  0.00000 -0.30013
       5     H     0.44578  0.44578  0.00000  0.10844
       6     H     0.43800  0.43800  0.00000  0.12399
       7     H     0.44558  0.44558  0.00000  0.10884
       8     C     3.03698  3.03698  0.00000 -0.07397
       9     H     0.45143  0.45143  0.00000  0.09715
      10     H     0.45427  0.45427  0.00000  0.09146
      11     H     0.44347  0.44347  0.00000  0.11305

   Total alpha = 20.00000, Total beta = 20.00000, Total charge =  0.00000
