  ==> Input File <==

--------------------------------------------------------------------------
set {
	reference rhf
	basis 6-31G*
}

set_num_threads( 4 )
memory 2 gb

molecule MOL {
0 1

H	 -1.746691	 -0.962672	 0.080618
O	 -2.035884	 -0.060112	 0.102722
C	 -0.955155	 0.788182	 -0.092531
C	 0.353668	 0.040312	 -0.004810
H	 -0.985057	 1.290372	 -1.054184
H	 -0.974469	 1.533190	 0.688632
F	 0.394464	 -0.937475	 -0.903053
F	 1.368604	 0.853376	 -0.249821
F	 0.546173	 -0.502608	 1.179981

	symmetry c1
}
set optking {
	frozen_dihedral = ("
		1 2 3 5
	")
}

ee = optimize('scf')
oeprop('DIPOLE', 'QUADRUPOLE', 'MULLIKEN_CHARGES')
f=open( 'psi4out.xyz', 'w' )
f.write( "9  " )
f.write( str(ee) + "\n" )
f.write( MOL.save_string_xyz() )
f.close()
--------------------------------------------------------------------------

    Molecular point group: c1
  Charge       = 0
  Multiplicity = 1
  Basis Set: 6-31G*
  Basis Set:
  @DF-RHF Final Energy:  -450.65803009809622
    Total Energy =                       -450.6580300980962193
    Molecular point group: c1
  Basis Set: 6-31G*
  Basis Set:
  Basis Set: 6-31G*
  Basis Set:
  @DF-RHF Final Energy:  -450.65845462000118
    Total Energy =                       -450.6584546200011232
  Basis Set: 6-31G*
  Basis Set:
  Basis Set: 6-31G*
  Basis Set:
  @DF-RHF Final Energy:  -450.65861044048398
    Total Energy =                       -450.6586104404840398
  Basis Set: 6-31G*
  Basis Set:
  Basis Set: 6-31G*
  Basis Set:
  @DF-RHF Final Energy:  -450.65861605145756
    Total Energy =                       -450.6586160514575568
  Basis Set: 6-31G*
  Basis Set:
  Charge       = 0
  Multiplicity = 1
  Basis Set: 6-31G*
  Basis Set:

    Orbital Energies (a.u.)
    -----------------------

    Doubly Occupied:

       1A    -26.351271     2A    -26.350445     3A    -26.347984
       4A    -20.586459     5A    -11.509126     6A    -11.309429
       7A     -1.748433     8A     -1.647673     9A     -1.643965
      10A     -1.398087    11A     -1.052180    12A     -0.929696
      13A     -0.837858    14A     -0.836833    15A     -0.816351
      16A     -0.721300    17A     -0.719879    18A     -0.680686
      19A     -0.672710    20A     -0.671294    21A     -0.650467
      22A     -0.642756    23A     -0.621293    24A     -0.525495
      25A     -0.476069

  @DF-RHF Final Energy:  -450.65861699746159

   => Energetics <=

    Nuclear Repulsion Energy =            277.3144848017932986
    One-Electron Energy =               -1176.4507332265673085
    Two-Electron Energy =                 448.4776314273123603
    DFT Exchange-Correlation Energy =       0.0000000000000000
    Empirical Dispersion Energy =           0.0000000000000000
    PCM Polarization Energy =               0.0000000000000000
    EFP Energy =                            0.0000000000000000
    Total Energy =                       -450.6586169974617064
    Molecular point group: c1
  Basis Set: 6-31G*
  Basis Set:

  -Total Gradient:
     Atom            X                  Y                   Z
    ------   -----------------  -----------------  -----------------
       1        0.000345284326     0.000009121046     0.002131072225
       2       -0.000714040993     0.000337471921    -0.002422777181
       3        0.001288227301    -0.001770127769    -0.000509575242
       4       -0.000044069388    -0.000017463936     0.000125950329
       5       -0.000911009235     0.001423759783     0.000798916410
       6        0.000009264181     0.000000465072     0.000008139080
       7        0.000009953016    -0.000056391621    -0.000038856059
       8        0.000024166793     0.000025136890     0.000001775382
       9       -0.000007775994     0.000048028616    -0.000094644944

  **** Optimization is complete! (in 5 steps) ****
    Final optimized geometry and variables:
    Molecular point group: c1

    Geometry (in Angstrom), charge = 0, multiplicity = 1:

    H           -1.806555559997    -0.972135413201     0.062766219626
    O           -2.054984945054    -0.058632686392     0.090581209460
    C           -0.959621865006     0.780528204521    -0.094467089214
    C            0.355103766807     0.046982950536    -0.017421341391
    H           -1.013500852723     1.276603346714    -1.056155513969
    H           -0.956272801836     1.538038154826     0.678303803361
    F            0.407706236966    -0.937056468810    -0.906126484718
    F            1.361455585916     0.866177416855    -0.254660988204
    F            0.543106451079    -0.500181193350     1.171913329047

  Mulliken Charges: (a.u.)
   Center  Symbol    Alpha    Beta     Spin     Total
       1     H     0.27015  0.27015  0.00000  0.45969
       2     O     4.37174  4.37174  0.00000 -0.74349
       3     C     3.02378  3.02378  0.00000 -0.04755
       4     C     2.48692  2.48692  0.00000  1.02616
       5     H     0.40639  0.40639  0.00000  0.18722
       6     H     0.40274  0.40274  0.00000  0.19452
       7     F     4.68247  4.68247  0.00000 -0.36494
       8     F     4.67771  4.67771  0.00000 -0.35542
       9     F     4.67810  4.67810  0.00000 -0.35620

   Total alpha = 25.00000, Total beta = 25.00000, Total charge =  0.00000
