                              Psi4 1.0.54 Driver

  ==> Input File <==

--------------------------------------------------------------------------
set {
	reference rhf
	basis cc-pvtz
}

set_num_threads( 4 )
memory 2 gb

molecule MOL {
0 1

O	 -0.988175	 -1.402891	 0.050086
C	 -0.675048	 -0.248293	 -0.009686
C	 -1.742492	 0.826599	 -0.011538
N	 0.622280	 0.144970	 -0.099307
H	 -1.692153	 1.431066	 -0.908439
H	 -2.698310	 0.331559	 0.031353
H	 -1.642148	 1.483784	 0.843455
C	 1.000686	 1.073764	 -1.143385
C	 1.718242	 -0.536930	 0.546939
H	 1.734833	 1.770762	 -0.758098
H	 0.134348	 1.615930	 -1.476092
H	 1.435781	 0.555685	 -1.994219
H	 2.480501	 0.184930	 0.810596
H	 1.404725	 -1.024838	 1.453884
H	 2.174243	 -1.279929	 -0.103491

	symmetry c1
}
set optking {
	frozen_dihedral = ("
		8 4 2 3
	")
}

ee,wfn = optimize('scf', return_wfn=True)
oeprop( wfn, 'DIPOLE', 'QUADRUPOLE', 'MULLIKEN_CHARGES')
f=open( 'psi4out.xyz', 'w' )
f.write( "15  " )
f.write( str(ee) + "\n" )
f.write( MOL.save_string_xyz() )
f.close()
--------------------------------------------------------------------------

    Molecular point group: c1
  Charge       = 0
  Multiplicity = 1
  Basis Set: CC-PVTZ
  Basis Set:
  @DF-RHF Final Energy:  -286.11859713687943
    Total Energy =                       -286.1185971368796572
    Molecular point group: c1
  Basis Set: CC-PVTZ
  Basis Set:
  Basis Set: CC-PVTZ
  Basis Set:
  @DF-RHF Final Energy:  -286.07629450384377
    Total Energy =                       -286.0762945038438829
  Basis Set: CC-PVTZ
  Basis Set:
  Basis Set: CC-PVTZ
  Basis Set:
  @DF-RHF Final Energy:  -286.12574406722547
    Total Energy =                       -286.1257440672256394
  Basis Set: CC-PVTZ
  Basis Set:
  Basis Set: CC-PVTZ
  Basis Set:
  @DF-RHF Final Energy:  -286.12995717056162
    Total Energy =                       -286.1299571705616813
  Basis Set: CC-PVTZ
  Basis Set:
  @DF-RHF Final Energy:  -286.01394202064853
    Total Energy =                       -286.0139420206486989
  @DF-RHF Final Energy:  -286.11304383547940
    Total Energy =                       -286.1130438354791750
  @DF-RHF Final Energy:  -286.13067535183740
    Total Energy =                       -286.1306753518373398
  @DF-RHF Final Energy:  -286.13109107941784
    Total Energy =                       -286.1310910794179563
  @DF-RHF Final Energy:  -286.13131887103287
    Total Energy =                       -286.1313188710328745
  @DF-RHF Final Energy:  -286.13134220220945
    Total Energy =                       -286.1313422022093960
  Basis Set: CC-PVTZ
  Basis Set:
  @DF-RHF Final Energy:  -286.13143024056274
    Total Energy =                       -286.1314302405626222
  Basis Set: CC-PVTZ
  Basis Set:
  Basis Set: CC-PVTZ
  Basis Set:
  @DF-RHF Final Energy:  -286.13144240067624
    Total Energy =                       -286.1314424006763488
  Basis Set: CC-PVTZ
  Basis Set:
  Basis Set: CC-PVTZ
  Basis Set:
  @DF-RHF Final Energy:  -286.13144677215735
    Total Energy =                       -286.1314467721574601
  Basis Set: CC-PVTZ
  Basis Set:
  Charge       = 0
  Multiplicity = 1
  Basis Set: CC-PVTZ
  Basis Set:

    Orbital Energies (a.u.)
    -----------------------

    Doubly Occupied:

       1A    -20.518984     2A    -15.573910     3A    -11.337346
       4A    -11.262450     5A    -11.243772     6A    -11.226601
       7A     -1.398661     8A     -1.243693     9A     -1.013969
      10A     -0.968768    11A     -0.913016    12A     -0.737519
      13A     -0.682774    14A     -0.660349    15A     -0.652143
      16A     -0.596922    17A     -0.580800    18A     -0.569920
      19A     -0.559577    20A     -0.541348    21A     -0.526810
      22A     -0.502315    23A     -0.422636    24A     -0.379764

  @DF-RHF Final Energy:  -286.13144744278304

   => Energetics <=

    Nuclear Repulsion Energy =            253.2951020804036943
    One-Electron Energy =                -890.6250070579853855
    Two-Electron Energy =                 351.1984575347986492
    DFT Exchange-Correlation Energy =       0.0000000000000000
    Empirical Dispersion Energy =           0.0000000000000000
    PCM Polarization Energy =               0.0000000000000000
    EFP Energy =                            0.0000000000000000
    Total Energy =                       -286.1314474427830419
    Molecular point group: c1
  Basis Set: CC-PVTZ
  Basis Set:

  -Total Gradient:
     Atom            X                  Y                   Z
    ------   -----------------  -----------------  -----------------
       1        0.000014546768     0.000054473421     0.000004045146
       2        0.005279743149     0.003892641760    -0.007775580954
       3       -0.002451567722    -0.003111139923     0.003693693132
       4       -0.006139127006     0.000597180504     0.008517650643
       5       -0.000018035629    -0.000014419538     0.000011280124
       6        0.000000468263    -0.000004013604    -0.000000942679
       7       -0.000000557341    -0.000013932087    -0.000009058621
       8        0.003357388010    -0.001478512604    -0.004468321357
       9       -0.000062139203     0.000042097872     0.000047668132
      10        0.000003606281     0.000010467363    -0.000006049957
      11       -0.000000053164     0.000007912779     0.000004222165
      12        0.000001115039     0.000004264519    -0.000004791672
      13       -0.000001799960    -0.000001271126    -0.000006444598
      14        0.000009310877     0.000006390335    -0.000012092629
      15        0.000007101641     0.000007860331     0.000004723123

  **** Optimization is complete! (in 14 steps) ****
    Final optimized geometry and variables:
    Molecular point group: c1

    Geometry (in Angstrom), charge = 0, multiplicity = 1:

    O           -0.822952686600    -1.001101659102    -1.046533488818
    C           -0.629381519560    -0.085856420316    -0.307299399625
    C           -1.684533165755     0.982240851016    -0.107621661310
    N            0.487201377540    -0.016443086389     0.498677911462
    H           -1.473383351784     1.852487896113    -0.718735663488
    H           -2.628670673471     0.569508199876    -0.425463464640
    H           -1.742923749432     1.294900083482     0.925165473641
    C            1.183431460941     1.253278903289     0.598956596392
    C            1.393833218703    -1.145694720698     0.392799347515
    H            1.845763258028     1.231352700512     1.453343456505
    H            0.490652603246     2.068165361691     0.740556365246
    H            1.779793633806     1.457649149564    -0.287905788964
    H            2.090344733864    -1.105051442397     1.219631398560
    H            0.839459652538    -2.067649107776     0.443505599204
    H            1.954810374510    -1.138769310023    -0.537931161138

  Mulliken Charges: (a.u.)
   Center  Symbol    Alpha    Beta     Spin     Total
       1     O     4.20232  4.20232  0.00000 -0.40463
       2     C     2.84157  2.84157  0.00000  0.31686
       3     C     3.15877  3.15877  0.00000 -0.31753
       4     N     3.58510  3.58510  0.00000 -0.17019
       5     H     0.44703  0.44703  0.00000  0.10594
       6     H     0.42962  0.42962  0.00000  0.14076
       7     H     0.44631  0.44631  0.00000  0.10739
       8     C     3.09530  3.09530  0.00000 -0.19059
       9     C     3.09324  3.09324  0.00000 -0.18647
      10     H     0.44782  0.44782  0.00000  0.10437
      11     H     0.44648  0.44648  0.00000  0.10705
      12     H     0.45673  0.45673  0.00000  0.08655
      13     H     0.45538  0.45538  0.00000  0.08924
      14     H     0.43617  0.43617  0.00000  0.12766
      15     H     0.45820  0.45820  0.00000  0.08361

   Total alpha = 24.00000, Total beta = 24.00000, Total charge = -0.00000

*** Psi4 exiting successfully. Buy a developer a beer!
