  ==> Input File <==

--------------------------------------------------------------------------
set {
	reference rhf
	basis 6-31G*
}

set_num_threads( 4 )
memory 2 gb

molecule MOL {
0 1

H	 -1.488269	 3.599891	 1.261866
O	 -1.329470	 2.677471	 1.121819
C	 -0.190386	 2.510676	 0.315697
C	 0.031547	 1.023609	 0.088541
H	 0.686244	 2.933502	 0.803167
H	 -0.314616	 3.029187	 -0.632361
C	 -1.134819	 0.293262	 -0.585751
H	 0.226497	 0.563050	 1.052993
H	 0.935203	 0.904081	 -0.506723
C	 -1.917817	 -0.639439	 0.339494
H	 -0.758119	 -0.268455	 -1.433105
H	 -1.813832	 1.041889	 -0.986690
H	 -2.777680	 -1.057197	 -0.174994
H	 -1.310268	 -1.471279	 0.680599
H	 -2.283753	 -0.111424	 1.216626

	symmetry c1
}
set optking {
	frozen_dihedral = ("
		8 4 7 11
	")
}

ee = optimize('scf')
oeprop('DIPOLE', 'QUADRUPOLE', 'MULLIKEN_CHARGES')
f=open( 'psi4out.xyz', 'w' )
f.write( "15  " )
f.write( str(ee) + "\n" )
f.write( MOL.save_string_xyz() )
f.close()
--------------------------------------------------------------------------

    Molecular point group: c1
  Charge       = 0
  Multiplicity = 1
  Basis Set: 6-31G*
  Basis Set:
  @DF-RHF Final Energy:  -232.14013137965344
    Total Energy =                       -232.1401313796534964
    Molecular point group: c1
  Basis Set: 6-31G*
  Basis Set:
  Basis Set: 6-31G*
  Basis Set:
  @DF-RHF Final Energy:  -232.14061264530631
    Total Energy =                       -232.1406126453064189
  Basis Set: 6-31G*
  Basis Set:
  Basis Set: 6-31G*
  Basis Set:
  @DF-RHF Final Energy:  -232.14068942304752
    Total Energy =                       -232.1406894230472062
  Basis Set: 6-31G*
  Basis Set:
  Basis Set: 6-31G*
  Basis Set:
  @DF-RHF Final Energy:  -232.14069268012128
    Total Energy =                       -232.1406926801211625
  Basis Set: 6-31G*
  Basis Set:
  Basis Set: 6-31G*
  Basis Set:
  @DF-RHF Final Energy:  -232.14069466184222
    Total Energy =                       -232.1406946618421330
  Basis Set: 6-31G*
  Basis Set:
  Charge       = 0
  Multiplicity = 1
  Basis Set: 6-31G*
  Basis Set:

    Orbital Energies (a.u.)
    -----------------------

    Doubly Occupied:

       1A    -20.554220     2A    -11.268315     3A    -11.211905
       4A    -11.208996     5A    -11.197922     6A     -1.360722
       7A     -1.060514     8A     -0.971095     9A     -0.855368
      10A     -0.784489    11A     -0.705545    12A     -0.640130
      13A     -0.599987    14A     -0.590895    15A     -0.544668
      16A     -0.532609    17A     -0.506023    18A     -0.472431
      19A     -0.463418    20A     -0.451713    21A     -0.430954

  @DF-RHF Final Energy:  -232.14069502248492

   => Energetics <=

    Nuclear Repulsion Energy =            191.4757123081516283
    One-Electron Energy =                -694.4089773222383428
    Two-Electron Energy =                 270.7925699916015105
    DFT Exchange-Correlation Energy =       0.0000000000000000
    Empirical Dispersion Energy =           0.0000000000000000
    PCM Polarization Energy =               0.0000000000000000
    EFP Energy =                            0.0000000000000000
    Total Energy =                       -232.1406950224852039
    Molecular point group: c1
  Basis Set: 6-31G*
  Basis Set:

  -Total Gradient:
     Atom            X                  Y                   Z
    ------   -----------------  -----------------  -----------------
       1       -0.000009951498    -0.000001804063     0.000002597305
       2        0.000036648725    -0.000001833992     0.000021006147
       3       -0.000071175783     0.000001265297    -0.000064491659
       4        0.001373463256    -0.001113973723    -0.001200555503
       5       -0.000010511231    -0.000014073723    -0.000005732876
       6        0.000014152385     0.000005114694     0.000009357434
       7        0.000050495484    -0.001521219192     0.001480455452
       8       -0.001188823154     0.001142259165     0.000774958037
       9        0.000009580037    -0.000012338175    -0.000011452930
      10        0.000013561753     0.000006313423     0.000033152296
      11       -0.000232812771     0.001474221906    -0.001062657688
      12        0.000019461702     0.000008624155     0.000027753946
      13        0.000023556064     0.000011146522     0.000010183791
      14       -0.000004219715     0.000006347837    -0.000017630140
      15       -0.000023425253     0.000009949864     0.000003056387

  **** Optimization is complete! (in 6 steps) ****
    Final optimized geometry and variables:
    Molecular point group: c1

    Geometry (in Angstrom), charge = 0, multiplicity = 1:

    H           -0.582474059401     2.345150755205     0.984578187224
    O           -0.381325981021     1.426913342131     0.873906105215
    C            0.732269162950     1.282067815670     0.028720384074
    C            0.970418364687    -0.200571531845    -0.203020024344
    H            1.614338181331     1.732408537820     0.480764449217
    H            0.557061440988     1.783705580435    -0.922055377237
    C           -0.213572812454    -0.912357641540    -0.892212095898
    H            1.165430017758    -0.653601366537     0.764856860932
    H            1.877797620387    -0.305269379328    -0.791700883137
    C           -1.004256566480    -1.825679542939     0.043280749754
    H            0.147557618509    -1.484276257418    -1.742602288164
    H           -0.888120690339    -0.166893077358    -1.303535771583
    H           -1.837229841781    -2.290941454016    -0.475714957891
    H           -0.375980764748    -2.619724056341     0.437956658540
    H           -1.399582394966    -1.262560795956     0.881365113372

  Mulliken Charges: (a.u.)
   Center  Symbol    Alpha    Beta     Spin     Total
       1     H     0.28043  0.28043  0.00000  0.43915
       2     O     4.36951  4.36951  0.00000 -0.73902
       3     C     2.99953  2.99953  0.00000  0.00093
       4     C     3.16287  3.16287  0.00000 -0.32575
       5     H     0.42979  0.42979  0.00000  0.14041
       6     H     0.43240  0.43240  0.00000  0.13521
       7     C     3.15197  3.15197  0.00000 -0.30394
       8     H     0.41291  0.41291  0.00000  0.17419
       9     H     0.42102  0.42102  0.00000  0.15797
      10     C     3.24141  3.24141  0.00000 -0.48282
      11     H     0.42349  0.42349  0.00000  0.15301
      12     H     0.41718  0.41718  0.00000  0.16564
      13     H     0.42368  0.42368  0.00000  0.15263
      14     H     0.42523  0.42523  0.00000  0.14953
      15     H     0.40857  0.40857  0.00000  0.18285

   Total alpha = 21.00000, Total beta = 21.00000, Total charge =  0.00000
