  ==> Input File <==

--------------------------------------------------------------------------
set {
	reference rhf
	basis 6-31G*
}

set_num_threads( 4 )
memory 2 gb

molecule MOL {
0 1

H	 1.302825	 -1.368917	 1.815806
O	 0.984953	 -0.938614	 1.035109
C	 0.555786	 0.361361	 1.352987
C	 0.031547	 1.023609	 0.088541
H	 1.382096	 0.948896	 1.749097
H	 -0.216067	 0.331797	 2.118801
C	 -1.134819	 0.293262	 -0.585751
H	 0.855244	 1.099610	 -0.615757
H	 -0.265111	 2.040897	 0.338217
C	 -1.917817	 -0.639439	 0.339494
H	 -0.758119	 -0.268455	 -1.433105
H	 -1.813832	 1.041889	 -0.986690
H	 -2.777680	 -1.057197	 -0.174994
H	 -1.310268	 -1.471279	 0.680599
H	 -2.283753	 -0.111424	 1.216626

	symmetry c1
}
set optking {
	frozen_dihedral = ("
		8 4 7 11
	")
}

ee = optimize('scf')
oeprop('DIPOLE', 'QUADRUPOLE', 'MULLIKEN_CHARGES')
f=open( 'psi4out.xyz', 'w' )
f.write( "15  " )
f.write( str(ee) + "\n" )
f.write( MOL.save_string_xyz() )
f.close()
--------------------------------------------------------------------------

    Molecular point group: c1
  Charge       = 0
  Multiplicity = 1
  Basis Set: 6-31G*
  Basis Set:
  @DF-RHF Final Energy:  -232.13686192161077
    Total Energy =                       -232.1368619216110005
    Molecular point group: c1
  Basis Set: 6-31G*
  Basis Set:
  Basis Set: 6-31G*
  Basis Set:
  @DF-RHF Final Energy:  -232.13830680089848
    Total Energy =                       -232.1383068008985333
  Basis Set: 6-31G*
  Basis Set:
  Basis Set: 6-31G*
  Basis Set:
  @DF-RHF Final Energy:  -232.13868377465471
    Total Energy =                       -232.1386837746546803
  Basis Set: 6-31G*
  Basis Set:
  Basis Set: 6-31G*
  Basis Set:
  @DF-RHF Final Energy:  -232.13880333718009
    Total Energy =                       -232.1388033371799793
  Basis Set: 6-31G*
  Basis Set:
  Basis Set: 6-31G*
  Basis Set:
  @DF-RHF Final Energy:  -232.13884477033636
    Total Energy =                       -232.1388447703364477
  Basis Set: 6-31G*
  Basis Set:
  Charge       = 0
  Multiplicity = 1
  Basis Set: 6-31G*
  Basis Set:

    Orbital Energies (a.u.)
    -----------------------

    Doubly Occupied:

       1A    -20.553820     2A    -11.267063     3A    -11.212671
       4A    -11.210288     5A    -11.201761     6A     -1.360003
       7A     -1.060445     8A     -0.969544     9A     -0.870050
      10A     -0.770072    11A     -0.705373    12A     -0.648854
      13A     -0.607733    14A     -0.569403    15A     -0.559408
      16A     -0.530132    17A     -0.514657    18A     -0.473864
      19A     -0.459118    20A     -0.451746    21A     -0.430490

  @DF-RHF Final Energy:  -232.13884400278675

   => Energetics <=

    Nuclear Repulsion Energy =            193.1794759487497117
    One-Electron Energy =                -697.7836517042458127
    Two-Electron Energy =                 272.4653317527093463
    DFT Exchange-Correlation Energy =       0.0000000000000000
    Empirical Dispersion Energy =           0.0000000000000000
    PCM Polarization Energy =               0.0000000000000000
    EFP Energy =                            0.0000000000000000
    Total Energy =                       -232.1388440027867546
    Molecular point group: c1
  Basis Set: 6-31G*
  Basis Set:

  -Total Gradient:
     Atom            X                  Y                   Z
    ------   -----------------  -----------------  -----------------
       1        0.000010320885     0.000016027456     0.000002596859
       2        0.000019817235     0.000037052794    -0.000042858791
       3       -0.000043004457    -0.000006219779     0.000126077622
       4       -0.002805216103     0.007579409206    -0.003494577915
       5       -0.000008374000    -0.000015898120    -0.000018785509
       6       -0.000002677387     0.000023010652     0.000019908018
       7        0.001558175150    -0.007108144659     0.005055798079
       8        0.002118438050    -0.005217310251     0.002071684805
       9        0.000022390015    -0.000038435707     0.000008890569
      10       -0.000008360818     0.000057508174     0.000003827519
      11       -0.000817113840     0.004710581948    -0.003666311310
      12       -0.000011668727    -0.000010072823    -0.000027595771
      13       -0.000002199999     0.000020276183     0.000018917510
      14       -0.000082909868    -0.000074702006    -0.000131717182
      15        0.000052383860     0.000026916934     0.000074145499

  **** Optimization is complete! (in 6 steps) ****
    Final optimized geometry and variables:
    Molecular point group: c1

    Geometry (in Angstrom), charge = 0, multiplicity = 1:

    H            1.734250196468    -1.310939369447     1.285786655943
    O            1.385632274100    -0.878850852357     0.519039331208
    C            0.840937198122     0.365689469450     0.882514869930
    C            0.271954719132     1.023904777940    -0.366000520302
    H            1.613682361194     1.008471205699     1.300654338318
    H            0.075455125773     0.241412472390     1.644367424535
    C           -0.895328304136     0.274032358445    -1.048595640723
    H            1.103557061439     1.086717839063    -1.060718499223
    H           -0.027253736723     2.034701026331    -0.103551271631
    C           -1.767395102936    -0.601747383175    -0.150305527288
    H           -0.510238248700    -0.304478984782    -1.881659059327
    H           -1.534475296210     1.021993691039    -1.513764086613
    H           -2.587965656188    -1.022705211026    -0.723177356353
    H           -1.202697116337    -1.422291740122     0.274825821776
    H           -2.201726371376    -0.028494122871     0.664768131254

  Mulliken Charges: (a.u.)
   Center  Symbol    Alpha    Beta     Spin     Total
       1     H     0.28079  0.28079  0.00000  0.43842
       2     O     4.36970  4.36970  0.00000 -0.73940
       3     C     3.00179  3.00179  0.00000 -0.00359
       4     C     3.16210  3.16210  0.00000 -0.32420
       5     H     0.42874  0.42874  0.00000  0.14252
       6     H     0.42980  0.42980  0.00000  0.14040
       7     C     3.14996  3.14996  0.00000 -0.29993
       8     H     0.41240  0.41240  0.00000  0.17520
       9     H     0.42232  0.42232  0.00000  0.15536
      10     C     3.24696  3.24696  0.00000 -0.49391
      11     H     0.41508  0.41508  0.00000  0.16985
      12     H     0.42414  0.42414  0.00000  0.15171
      13     H     0.42025  0.42025  0.00000  0.15949
      14     H     0.40990  0.40990  0.00000  0.18019
      15     H     0.42606  0.42606  0.00000  0.14788

   Total alpha = 21.00000, Total beta = 21.00000, Total charge = -0.00000
