  ==> Input File <==

--------------------------------------------------------------------------
set {
	reference rhf
	basis 6-31G*
}

set_num_threads( 1 )
memory 2 gb

molecule MOL {
0 1

O	 -0.291628	 1.323815	 -0.000732
C	 -0.449655	 0.146360	 0.000961
C	 -1.783294	 -0.549321	 -0.000296
O	 0.550821	 -0.724572	 0.000672
H	 -1.863538	 -1.185371	 -0.874187
H	 -2.574672	 0.185258	 -0.002793
H	 -1.866414	 -1.182381	 0.875436
C	 0.500625	 -1.759347	 -0.965248
H	 -0.384750	 -2.363348	 -0.828686
H	 1.387064	 -2.353459	 -0.807114
H	 0.499126	 -1.346530	 -1.963709

	symmetry c1
}
set optking {
	frozen_dihedral = ("
		2 4 8 9
	")
}

ee = energy('scf')
oeprop('DIPOLE', 'QUADRUPOLE', 'MULLIKEN_CHARGES')
f=open( 'psi4out.xyz', 'w' )
f.write( "11  " )
f.write( str(ee) + "\n" )
f.write( MOL.save_string_xyz() )
f.close()
--------------------------------------------------------------------------

    Molecular point group: c1

    Geometry (in Angstrom), charge = 0, multiplicity = 1:

       Center              X                  Y                   Z               Mass
    ------------   -----------------  -----------------  -----------------  -----------------
           O         -0.001462931654     1.657071125673     0.204641426111    15.994914619560
           C         -0.159489931654     0.479616125673     0.206334426111    12.000000000000
           C         -1.493128931654    -0.216064874327     0.205077426111    12.000000000000
           O          0.840986068346    -0.391315874327     0.206045426111    15.994914619560
           H         -1.573372931654    -0.852114874327    -0.668813573889     1.007825032070
           H         -2.284506931654     0.518514125673     0.202580426111     1.007825032070
           H         -1.576248931654    -0.849124874327     1.080809426111     1.007825032070
           C          0.790790068346    -1.426090874327    -0.759874573889    12.000000000000
           H         -0.094584931654    -2.030091874327    -0.623312573889     1.007825032070
           H          1.677229068346    -2.020202874327    -0.601740573889     1.007825032070
           H          0.789291068346    -1.013273874327    -1.758335573889     1.007825032070

  Charge       = 0
  Multiplicity = 1
  Basis Set: 6-31G*
  Basis Set:

    Orbital Energies (a.u.)
    -----------------------

    Doubly Occupied:

       1A    -20.598363     2A    -20.552646     3A    -11.378649
       4A    -11.299415     5A    -11.238564     6A     -1.467718
       7A     -1.371449     8A     -1.024344     9A     -0.984635
      10A     -0.784384    11A     -0.696929    12A     -0.690018
      13A     -0.680022    14A     -0.621481    15A     -0.588858
      16A     -0.572662    17A     -0.551788    18A     -0.499386
      19A     -0.460948    20A     -0.439071

  @DF-RHF Final Energy:  -266.81121516820434

   => Energetics <=

    Nuclear Repulsion Energy =            184.2919417313424333
    One-Electron Energy =                -729.2035507151160800
    Two-Electron Energy =                 278.1003938155702144
    DFT Exchange-Correlation Energy =       0.0000000000000000
    Empirical Dispersion Energy =           0.0000000000000000
    PCM Polarization Energy =               0.0000000000000000
    EFP Energy =                            0.0000000000000000
    Total Energy =                       -266.8112151682034892

  Mulliken Charges: (a.u.)
   Center  Symbol    Alpha    Beta     Spin     Total
       1     O     4.25827  4.25827  0.00000 -0.51654
       2     C     2.62044  2.62044  0.00000  0.75912
       3     C     3.30549  3.30549  0.00000 -0.61099
       4     O     4.29570  4.29570  0.00000 -0.59141
       5     H     0.40503  0.40503  0.00000  0.18993
       6     H     0.39287  0.39287  0.00000  0.21425
       7     H     0.39793  0.39793  0.00000  0.20415
       8     C     3.10044  3.10044  0.00000 -0.20088
       9     H     0.41550  0.41550  0.00000  0.16899
      10     H     0.39765  0.39765  0.00000  0.20470
      11     H     0.41066  0.41066  0.00000  0.17867

   Total alpha = 20.00000, Total beta = 20.00000, Total charge = -0.00000
