  ==> Input File <==

--------------------------------------------------------------------------
set {
	reference rhf
	basis 6-31G*
}

set_num_threads( 4 )
memory 2 gb

molecule MOL {
0 1

O	 -2.439739	 -0.935931	 -0.423848
C	 -1.921153	 0.064240	 -0.045697
C	 -2.624470	 1.379923	 0.150949
O	 -0.632575	 0.154573	 0.251549
H	 -2.168117	 2.136577	 -0.476876
H	 -3.669540	 1.273223	 -0.098610
H	 -2.519365	 1.700893	 1.180846
C	 0.160891	 -1.019931	 0.106212
C	 1.589627	 -0.672828	 0.480843
H	 0.089836	 -1.367806	 -0.916050
H	 -0.238459	 -1.792301	 0.749618
C	 2.246377	 0.346236	 -0.452210
H	 2.163194	 -1.597435	 0.473358
H	 1.604769	 -0.303424	 1.502885
C	 3.069726	 1.387966	 0.304027
H	 2.886625	 -0.176475	 -1.159993
H	 1.479683	 0.843461	 -1.037280
H	 3.523859	 2.098910	 -0.378874
H	 3.867878	 0.921089	 0.874341
H	 2.450501	 1.947244	 0.999617

	symmetry c1
}
set optking {
	frozen_dihedral = ("
		16 12 9 8
	")
}

ee = optimize('scf')
oeprop('DIPOLE', 'QUADRUPOLE', 'MULLIKEN_CHARGES')
f=open( 'psi4out.xyz', 'w' )
f.write( "20  " )
f.write( str(ee) + "\n" )
f.write( MOL.save_string_xyz() )
f.close()
--------------------------------------------------------------------------

    Molecular point group: c1
  Charge       = 0
  Multiplicity = 1
  Basis Set: 6-31G*
  Basis Set:
  @DF-RHF Final Energy:  -383.94130623389543
    Total Energy =                       -383.9413062338954887
    Molecular point group: c1
  Basis Set: 6-31G*
  Basis Set:
  Basis Set: 6-31G*
  Basis Set:
  @DF-RHF Final Energy:  -383.94145965925361
    Total Energy =                       -383.9414596592538373
  Basis Set: 6-31G*
  Basis Set:
  Basis Set: 6-31G*
  Basis Set:
  @DF-RHF Final Energy:  -383.94142480394669
    Total Energy =                       -383.9414248039465747
  Basis Set: 6-31G*
  Basis Set:
  Basis Set: 6-31G*
  Basis Set:
  @DF-RHF Final Energy:  -383.94162033493802
    Total Energy =                       -383.9416203349381931
  Basis Set: 6-31G*
  Basis Set:
  Basis Set: 6-31G*
  Basis Set:
  @DF-RHF Final Energy:  -383.94162136958880
    Total Energy =                       -383.9416213695888018
  Basis Set: 6-31G*
  Basis Set:
  Basis Set: 6-31G*
  Basis Set:
  @DF-RHF Final Energy:  -383.94162314505240
    Total Energy =                       -383.9416231450524037
  Basis Set: 6-31G*
  Basis Set:
  Charge       = 0
  Multiplicity = 1
  Basis Set: 6-31G*
  Basis Set:

    Orbital Energies (a.u.)
    -----------------------

    Doubly Occupied:

       1A    -20.602215     2A    -20.544374     3A    -11.374848
       4A    -11.282430     5A    -11.233670     6A    -11.225126
       7A    -11.220659     8A    -11.212282     9A     -1.468300
      10A     -1.362618    11A     -1.084017    12A     -1.027722
      13A     -0.981226    14A     -0.879814    15A     -0.809994
      16A     -0.776835    17A     -0.690438    18A     -0.683293
      19A     -0.666873    20A     -0.625701    21A     -0.604266
      22A     -0.593165    23A     -0.574540    24A     -0.551997
      25A     -0.537241    26A     -0.534092    27A     -0.513212
      28A     -0.480619    29A     -0.474261    30A     -0.470224
      31A     -0.449175    32A     -0.438800

  @DF-RHF Final Energy:  -383.94162331167604

   => Energetics <=

    Nuclear Repulsion Energy =            387.4426886953458506
    One-Electron Energy =               -1290.8205734987152482
    Two-Electron Energy =                 519.4362614916933580
    DFT Exchange-Correlation Energy =       0.0000000000000000
    Empirical Dispersion Energy =           0.0000000000000000
    PCM Polarization Energy =               0.0000000000000000
    EFP Energy =                            0.0000000000000000
    Total Energy =                       -383.9416233116760395
    Molecular point group: c1
  Basis Set: 6-31G*
  Basis Set:

  -Total Gradient:
     Atom            X                  Y                   Z
    ------   -----------------  -----------------  -----------------
       1        0.000012890115     0.000005818944    -0.000009073187
       2       -0.000010998135    -0.000001704691     0.000016513624
       3       -0.000001772634     0.000001533649    -0.000000985745
       4       -0.000005405777    -0.000011869618    -0.000009766386
       5       -0.000002197089     0.000001516432    -0.000001033851
       6        0.000000011352     0.000001129576    -0.000000780411
       7        0.000002141671    -0.000000308328    -0.000000886604
       8       -0.000827240507     0.001791190992     0.001397529583
       9        0.001720685102    -0.002429302146    -0.001429827402
      10       -0.000005321281    -0.000001710332    -0.000008659564
      11        0.000006833360    -0.000001650786    -0.000008298897
      12       -0.003374362949     0.000344138412    -0.002029367725
      13        0.000004770233     0.000008657372    -0.000003750907
      14       -0.000005234986     0.000002071772     0.000002850037
      15       -0.000000920853     0.000002624036     0.000003451207
      16        0.002474834749     0.000294621094     0.002073394226
      17        0.000009224698    -0.000005003162     0.000008536649
      18       -0.000002084647     0.000002147530    -0.000001524073
      19        0.000002736702    -0.000000259516    -0.000001939102
      20        0.000001410877    -0.000003641228     0.000003618527

  **** Optimization is complete! (in 7 steps) ****
    Final optimized geometry and variables:
    Molecular point group: c1

    Geometry (in Angstrom), charge = 0, multiplicity = 1:

    O           -2.358988715264    -1.027300090029    -0.492130006900
    C           -1.842277238464    -0.032912406767    -0.096718972875
    C           -2.546945970032     1.279438048616     0.117279037842
    O           -0.556291808205     0.051674731727     0.213805236786
    H           -2.086104477624     2.046612473337    -0.494253275016
    H           -3.590152394889     1.176973730566    -0.141687870298
    H           -2.449271868420     1.582725965520     1.153272174186
    C            0.238495986357    -1.120545273647     0.058548497697
    C            1.663366227954    -0.764455610572     0.441037081819
    H            0.167894624781    -1.460308612649    -0.966535275591
    H           -0.159133330938    -1.898767612799     0.695994897278
    C            2.327374194104     0.259646110436    -0.500611051838
    H            2.243963584293    -1.682060391848     0.473292375556
    H            1.643606584736    -0.377453778000     1.455918566032
    C            3.167190714836     1.294828882473     0.249268946083
    H            2.974997692151    -0.260234410968    -1.201213187977
    H            1.570446267274     0.772509756836    -1.083846418420
    H            3.650960745027     1.980721485301    -0.439273167302
    H            3.943945004477     0.816856142518     0.839965037186
    H            2.550203213631     1.879655578341     0.924984536182

  Mulliken Charges: (a.u.)
   Center  Symbol    Alpha    Beta     Spin     Total
       1     O     4.28299  4.28299  0.00000 -0.56598
       2     C     2.61949  2.61949  0.00000  0.76102
       3     C     3.28166  3.28166  0.00000 -0.56332
       4     O     4.30805  4.30805  0.00000 -0.61609
       5     H     0.40082  0.40082  0.00000  0.19835
       6     H     0.39680  0.39680  0.00000  0.20640
       7     H     0.40052  0.40052  0.00000  0.19896
       8     C     3.00543  3.00543  0.00000 -0.01087
       9     C     3.16673  3.16673  0.00000 -0.33346
      10     H     0.41034  0.41034  0.00000  0.17932
      11     H     0.40907  0.40907  0.00000  0.18186
      12     C     3.15594  3.15594  0.00000 -0.31187
      13     H     0.41528  0.41528  0.00000  0.16945
      14     H     0.41269  0.41269  0.00000  0.17461
      15     C     3.24108  3.24108  0.00000 -0.48215
      16     H     0.42023  0.42023  0.00000  0.15954
      17     H     0.41288  0.41288  0.00000  0.17424
      18     H     0.41937  0.41937  0.00000  0.16125
      19     H     0.42183  0.42183  0.00000  0.15634
      20     H     0.41880  0.41880  0.00000  0.16241

   Total alpha = 32.00000, Total beta = 32.00000, Total charge =  0.00000
