                              Psi4 1.0.54 Driver

  ==> Input File <==

--------------------------------------------------------------------------
set {
	reference rhf
	basis cc-pvtz
}

set_num_threads( 4 )
memory 2 gb

molecule MOL {
0 1

H	 1.191322	 1.313804	 -3.917495
O	 2.116579	 1.175692	 -3.835919
C	 2.618937	 1.888612	 -2.736530
C	 2.226620	 1.289114	 -1.394377
H	 3.695494	 1.870867	 -2.839920
H	 2.307786	 2.930357	 -2.785530
C	 0.729387	 1.339723	 -1.098432
H	 2.571355	 0.259914	 -1.361800
H	 2.765103	 1.827217	 -0.617924
C	 0.377500	 0.759347	 0.270573
H	 0.192872	 0.797136	 -1.869635
H	 0.387446	 2.372215	 -1.146624
C	 -1.101371	 0.851629	 0.650940
H	 0.693791	 -0.280206	 0.309521
H	 0.959283	 1.280247	 1.025994
C	 -2.041121	 -0.006551	 -0.194127
H	 -1.204898	 0.555342	 1.691144
H	 -1.420286	 1.890344	 0.600741
C	 -3.489218	 0.042606	 0.286507
H	 -1.694537	 -1.037633	 -0.179323
H	 -2.005853	 0.311392	 -1.231754
C	 -4.219984	 1.311773	 -0.139038
H	 -4.022855	 -0.824300	 -0.093339
H	 -3.510372	 -0.038577	 1.370031
H	 -4.244251	 1.405725	 -1.219696
H	 -5.244345	 1.313233	 0.215630
H	 -3.732090	 2.196311	 0.257073

	symmetry c1
}
set optking {
	frozen_dihedral = ("
		20 16 19 22
	")
}

ee,wfn = optimize('scf', return_wfn=True)
oeprop( wfn, 'DIPOLE', 'QUADRUPOLE', 'MULLIKEN_CHARGES')
f=open( 'psi4out.xyz', 'w' )
f.write( "27  " )
f.write( str(ee) + "\n" )
f.write( MOL.save_string_xyz() )
f.close()
--------------------------------------------------------------------------

    Molecular point group: c1
  Charge       = 0
  Multiplicity = 1
  Basis Set: CC-PVTZ
  Basis Set:
  @DF-RHF Final Energy:  -388.42539439119116
    Total Energy =                       -388.4253943911913893
    Molecular point group: c1
  Basis Set: CC-PVTZ
  Basis Set:
  Basis Set: CC-PVTZ
  Basis Set:
  @DF-RHF Final Energy:  -388.42560787337720
    Total Energy =                       -388.4256078733774302
  Basis Set: CC-PVTZ
  Basis Set:
  Basis Set: CC-PVTZ
  Basis Set:
  @DF-RHF Final Energy:  -388.42562956801606
    Total Energy =                       -388.4256295680165749
  Basis Set: CC-PVTZ
  Basis Set:
  Basis Set: CC-PVTZ
  Basis Set:
  @DF-RHF Final Energy:  -388.42562780051230
    Total Energy =                       -388.4256278005126433
  Basis Set: CC-PVTZ
  Basis Set:
  Basis Set: CC-PVTZ
  Basis Set:
  @DF-RHF Final Energy:  -388.42563061922056
    Total Energy =                       -388.4256306192204420
  Basis Set: CC-PVTZ
  Basis Set:
  Charge       = 0
  Multiplicity = 1
  Basis Set: CC-PVTZ
  Basis Set:

    Orbital Energies (a.u.)
    -----------------------

    Doubly Occupied:

       1A    -20.545338     2A    -11.264964     3A    -11.216715
       4A    -11.214679     5A    -11.214156     6A    -11.213214
       7A    -11.213120     8A    -11.211985     9A    -11.207515
      10A     -1.363232    11A     -1.095979    12A     -1.061895
      13A     -1.011121    14A     -0.948110    15A     -0.892217
      16A     -0.826815    17A     -0.800310    18A     -0.772369
      19A     -0.696245    20A     -0.650702    21A     -0.627266
      22A     -0.616020    23A     -0.614274    24A     -0.591105
      25A     -0.580611    26A     -0.554846    27A     -0.535172
      28A     -0.527074    29A     -0.514877    30A     -0.493735
      31A     -0.486212    32A     -0.476547    33A     -0.470352
      34A     -0.455058    35A     -0.451418    36A     -0.442839
      37A     -0.425587

  @DF-RHF Final Energy:  -388.42563064293773

   => Energetics <=

    Nuclear Repulsion Energy =            463.5352175069894543
    One-Electron Energy =               -1445.3543491840584920
    Two-Electron Energy =                 593.3935010341313046
    DFT Exchange-Correlation Energy =       0.0000000000000000
    Empirical Dispersion Energy =           0.0000000000000000
    PCM Polarization Energy =               0.0000000000000000
    EFP Energy =                            0.0000000000000000
    Total Energy =                       -388.4256306429376764
    Molecular point group: c1
  Basis Set: CC-PVTZ
  Basis Set:

  -Total Gradient:
     Atom            X                  Y                   Z
    ------   -----------------  -----------------  -----------------
       1       -0.000006497142    -0.000001290160     0.000001088379
       2       -0.000005334181     0.000001934528     0.000000302907
       3        0.000011662991    -0.000014209373    -0.000000027798
       4       -0.000001952618     0.000004180196    -0.000003510251
       5        0.000002406510     0.000000974027     0.000000930670
       6       -0.000001705355    -0.000002529674     0.000002748684
       7       -0.000006037923     0.000008531242     0.000003749442
       8        0.000004834669     0.000001202138     0.000000018434
       9       -0.000001966459     0.000003399172    -0.000002071242
      10        0.000004187893     0.000000484526     0.000013143191
      11       -0.000000908048     0.000003984456    -0.000007143755
      12        0.000001239897     0.000004208869     0.000001242522
      13       -0.000001248567    -0.000022295420    -0.000015010533
      14       -0.000001802831     0.000000529373     0.000006071226
      15        0.000005061329     0.000001814819    -0.000002810088
      16        0.000571941001     0.000019176734     0.001837881025
      17        0.000000375872     0.000000600120    -0.000002791921
      18        0.000000544750    -0.000000686472    -0.000001157455
      19        0.000453635039     0.000887804574     0.001329402018
      20       -0.000590297147    -0.000234176172    -0.001907538483
      21        0.000007959023     0.000004149344    -0.000002829832
      22       -0.000429215361    -0.000674928750    -0.001256840520
      23       -0.000012151850     0.000000752206     0.000003442886
      24       -0.000004145786     0.000003299149     0.000000661725
      25        0.000002412525     0.000001288687     0.000001496957
      26       -0.000006783261     0.000007686972    -0.000000903141
      27        0.000003785039    -0.000005885112     0.000000454951

  **** Optimization is complete! (in 6 steps) ****
    Final optimized geometry and variables:
    Molecular point group: c1

    Geometry (in Angstrom), charge = 0, multiplicity = 1:

    H            1.468253380586     0.388747537440    -2.948648927868
    O            2.391811427546     0.236202729094    -2.875480051223
    C            2.910999742291     0.921451122309    -1.766415481936
    C            2.519239462102     0.302314936124    -0.433127717005
    H            3.986517100674     0.891251322806    -1.877372600199
    H            2.613611451860     1.967948819143    -1.793902298425
    C            1.024037461721     0.362063225947    -0.128962408752
    H            2.854025243711    -0.730538553401    -0.420446443527
    H            3.066768362452     0.821348069813     0.349926610946
    C            0.673936745525    -0.232424762683     1.234460611612
    H            0.478909271186    -0.165455125480    -0.904478754092
    H            0.691188907527     1.398020707662    -0.162051509976
    C           -0.801713418306    -0.129058584799     1.625544161970
    H            0.979359025603    -1.275640825247     1.258411485772
    H            1.265907980184     0.272867190448     1.992518522315
    C           -1.749211999913    -0.982955143069     0.783150482609
    H           -0.901051832511    -0.431941317802     2.664210395357
    H           -1.106465890792     0.913000115511     1.584547041749
    C           -3.211124312958    -0.931750952415     1.237825601344
    H           -1.408830184555    -2.014724550910     0.801332247360
    H           -1.701327515565    -0.677269925927    -0.257945174608
    C           -3.953644281944     0.333721109098     0.815130077276
    H           -3.734077853622    -1.787795733110     0.822813486648
    H           -3.260140025285    -1.042618702292     2.317450493767
    H           -3.959533561273     0.434741690316    -0.265128718913
    H           -4.984546991877     0.308313950239     1.149506252499
    H           -3.499661674017     1.227476676159     1.227713284288

  Mulliken Charges: (a.u.)
   Center  Symbol    Alpha    Beta     Spin     Total
       1     H     0.39227  0.39227  0.00000  0.21546
       2     O     4.20552  4.20552  0.00000 -0.41104
       3     C     2.97997  2.97997  0.00000  0.04007
       4     C     3.08907  3.08907  0.00000 -0.17813
       5     H     0.44858  0.44858  0.00000  0.10284
       6     H     0.46967  0.46967  0.00000  0.06067
       7     C     3.10271  3.10271  0.00000 -0.20543
       8     H     0.45075  0.45075  0.00000  0.09849
       9     H     0.45525  0.45525  0.00000  0.08949
      10     C     3.09744  3.09744  0.00000 -0.19489
      11     H     0.45582  0.45582  0.00000  0.08835
      12     H     0.45373  0.45373  0.00000  0.09254
      13     C     3.09929  3.09929  0.00000 -0.19859
      14     H     0.45170  0.45170  0.00000  0.09660
      15     H     0.44799  0.44799  0.00000  0.10402
      16     C     3.09614  3.09614  0.00000 -0.19228
      17     H     0.44758  0.44758  0.00000  0.10484
      18     H     0.45286  0.45286  0.00000  0.09429
      19     C     3.08881  3.08881  0.00000 -0.17762
      20     H     0.44780  0.44780  0.00000  0.10441
      21     H     0.45611  0.45611  0.00000  0.08779
      22     C     3.15024  3.15024  0.00000 -0.30047
      23     H     0.44830  0.44830  0.00000  0.10341
      24     H     0.45503  0.45503  0.00000  0.08993
      25     H     0.45567  0.45567  0.00000  0.08865
      26     H     0.44678  0.44678  0.00000  0.10644
      27     H     0.45492  0.45492  0.00000  0.09016

   Total alpha = 37.00000, Total beta = 37.00000, Total charge =  0.00000

*** Psi4 exiting successfully. Buy a developer a beer!
