                              Psi4 1.0.54 Driver

  ==> Input File <==

--------------------------------------------------------------------------
set {
	reference rhf
	basis cc-pvtz
}

set_num_threads( 4 )
memory 2 gb

molecule MOL {
0 1

H	 2.223307	 -0.281026	 0.570708
O	 1.583947	 -0.677544	 -0.001533
C	 0.489979	 0.078084	 0.002623
C	 -0.763662	 -0.754014	 0.000816
O	 0.539051	 1.259395	 -0.000088
C	 -2.038001	 0.074705	 -0.000833
H	 -0.712945	 -1.405886	 -0.864342
H	 -0.715137	 -1.405770	 0.866182
H	 -2.087267	 0.710831	 -0.874232
H	 -2.903419	 -0.576199	 -0.001922
H	 -2.089467	 0.710909	 0.872389

	symmetry c1
}
set optking {
	frozen_dihedral = ("
		1 2 3 5
	")
}

ee,wfn = optimize('scf', return_wfn=True)
oeprop( wfn, 'DIPOLE', 'QUADRUPOLE', 'MULLIKEN_CHARGES')
f=open( 'psi4out.xyz', 'w' )
f.write( "11  " )
f.write( str(ee) + "\n" )
f.write( MOL.save_string_xyz() )
f.close()
--------------------------------------------------------------------------

    Molecular point group: c1
  Charge       = 0
  Multiplicity = 1
  Basis Set: CC-PVTZ
  Basis Set:
  @DF-RHF Final Energy:  -266.94509149662167
    Total Energy =                       -266.9450914966216146
    Molecular point group: c1
  Basis Set: CC-PVTZ
  Basis Set:
  Basis Set: CC-PVTZ
  Basis Set:
  @DF-RHF Final Energy:  -266.94196245184253
    Total Energy =                       -266.9419624518428122
  Basis Set: CC-PVTZ
  Basis Set:
  Basis Set: CC-PVTZ
  Basis Set:
  @DF-RHF Final Energy:  -266.94569709574944
    Total Energy =                       -266.9456970957493809
  Basis Set: CC-PVTZ
  Basis Set:
  Basis Set: CC-PVTZ
  Basis Set:
  @DF-RHF Final Energy:  -266.94577512956749
    Total Energy =                       -266.9457751295674370
  Basis Set: CC-PVTZ
  Basis Set:
  Basis Set: CC-PVTZ
  Basis Set:
  @DF-RHF Final Energy:  -266.94578437442431
    Total Energy =                       -266.9457843744243064
  Basis Set: CC-PVTZ
  Basis Set:
  Charge       = 0
  Multiplicity = 1
  Basis Set: CC-PVTZ
  Basis Set:

    Orbital Energies (a.u.)
    -----------------------

    Doubly Occupied:

       1A    -20.598471     2A    -20.545251     3A    -11.374650
       4A    -11.242532     5A    -11.218601     6A     -1.472361
       7A     -1.371366     8A     -1.065597     9A     -0.916635
      10A     -0.804648    11A     -0.708377    12A     -0.689156
      13A     -0.662465    14A     -0.609258    15A     -0.580620
      16A     -0.530246    17A     -0.527188    18A     -0.505715
      19A     -0.487873    20A     -0.448786

  @DF-RHF Final Energy:  -266.94578514925547

   => Energetics <=

    Nuclear Repulsion Energy =            179.8739044891189565
    One-Electron Energy =                -720.9197849100089570
    Two-Electron Energy =                 274.1000952716345296
    DFT Exchange-Correlation Energy =       0.0000000000000000
    Empirical Dispersion Energy =           0.0000000000000000
    PCM Polarization Energy =               0.0000000000000000
    EFP Energy =                            0.0000000000000000
    Total Energy =                       -266.9457851492554141
    Molecular point group: c1
  Basis Set: CC-PVTZ
  Basis Set:

  -Total Gradient:
     Atom            X                  Y                   Z
    ------   -----------------  -----------------  -----------------
       1       -0.003095536307    -0.005998210161     0.008499858635
       2        0.003241139921     0.007504599795    -0.015073267535
       3        0.000938579153    -0.001761124884     0.016305998655
       4        0.000063157982    -0.000003410836     0.000069193165
       5       -0.001149777329     0.000219159325    -0.009704844578
       6        0.000009859927    -0.000008460176    -0.000020856644
       7       -0.000032853713     0.000051014253    -0.000065371907
       8        0.000020692105    -0.000009434103    -0.000024241810
       9        0.000003376038    -0.000000754294     0.000004043223
      10        0.000004349951     0.000002975714     0.000005067886
      11       -0.000002987733     0.000003645368     0.000004420912

  **** Optimization is complete! (in 6 steps) ****
    Final optimized geometry and variables:
    Molecular point group: c1

    Geometry (in Angstrom), charge = 0, multiplicity = 1:

    H            2.298306876276    -0.310885363501     0.391364406016
    O            1.590316839065    -0.673245993765    -0.117266101320
    C            0.491289783644     0.083143671248     0.021967160520
    C           -0.761949396755    -0.749133507275     0.020759792922
    O            0.534184102351     1.261145228435     0.051526811187
    C           -2.039750302051     0.073527204319     0.006749325925
    H           -0.702568097688    -1.409580418527    -0.837419591369
    H           -0.714791305260    -1.394664466749     0.891720358668
    H           -2.088250806420     0.701073819297    -0.873156925605
    H           -2.903084426435    -0.580313002450     0.008397853937
    H           -2.097328844157     0.718333007010     0.873318556252

  Mulliken Charges: (a.u.)
   Center  Symbol    Alpha    Beta     Spin     Total
       1     H     0.38071  0.38071  0.00000  0.23859
       2     O     4.16918  4.16918  0.00000 -0.33836
       3     C     2.80382  2.80382  0.00000  0.39236
       4     C     3.09988  3.09988  0.00000 -0.19977
       5     O     4.17945  4.17945  0.00000 -0.35890
       6     C     3.13933  3.13933  0.00000 -0.27867
       7     H     0.43886  0.43886  0.00000  0.12228
       8     H     0.44323  0.44323  0.00000  0.11353
       9     H     0.44762  0.44762  0.00000  0.10476
      10     H     0.44979  0.44979  0.00000  0.10042
      11     H     0.44812  0.44812  0.00000  0.10376

   Total alpha = 20.00000, Total beta = 20.00000, Total charge = -0.00000

*** Psi4 exiting successfully. Buy a developer a beer!
