  ==> Input File <==

--------------------------------------------------------------------------
set {
	reference rhf
	basis cc-pvtz
}

set_num_threads( 4 )
memory 2 gb

molecule MOL {
0 1

H	 2.193378	 1.777557	 1.305291
N	 1.330669	 1.279933	 1.244517
C	 1.263552	 0.494993	 0.021953
H	 0.597275	 1.957136	 1.273931
C	 -0.016533	 -0.325589	 -0.026925
H	 2.117645	 -0.173874	 0.010339
H	 1.332476	 1.106074	 -0.879055
C	 -1.280353	 0.525521	 0.047747
H	 -0.016686	 -0.912532	 -0.939714
H	 -0.014099	 -1.037598	 0.796369
C	 -2.560681	 -0.301323	 -0.007747
H	 -1.279957	 1.241025	 -0.770189
H	 -1.270445	 1.110526	 0.963468
H	 -2.617064	 -0.872870	 -0.928010
H	 -3.439525	 0.331102	 0.043462
H	 -2.609427	 -1.002736	 0.818585

	symmetry c1
}
set optking {
	frozen_dihedral = ("
		6 3 5 9
	")
}

ee = optimize('scf')
oeprop('DIPOLE', 'QUADRUPOLE', 'MULLIKEN_CHARGES')
f=open( 'psi4out.xyz', 'w' )
f.write( "16  " )
f.write( str(ee) + "\n" )
f.write( MOL.save_string_xyz() )
f.close()
--------------------------------------------------------------------------

    Molecular point group: c1
  Charge       = 0
  Multiplicity = 1
  Basis Set: CC-PVTZ
  Basis Set:
  @DF-RHF Final Energy:  -212.39853230620466
    Total Energy =                       -212.3985323062044017
    Molecular point group: c1
  Basis Set: CC-PVTZ
  Basis Set:
  Basis Set: CC-PVTZ
  Basis Set:
  @DF-RHF Final Energy:  -212.39896414393402
    Total Energy =                       -212.3989641439339948
  Basis Set: CC-PVTZ
  Basis Set:
  Basis Set: CC-PVTZ
  Basis Set:
  @DF-RHF Final Energy:  -212.39923859071911
    Total Energy =                       -212.3992385907192215
  Basis Set: CC-PVTZ
  Basis Set:
  Basis Set: CC-PVTZ
  Basis Set:
  @DF-RHF Final Energy:  -212.39925576160232
    Total Energy =                       -212.3992557616023191
  Basis Set: CC-PVTZ
  Basis Set:
  Basis Set: CC-PVTZ
  Basis Set:
  @DF-RHF Final Energy:  -212.39925766349103
    Total Energy =                       -212.3992576634911984
  Basis Set: CC-PVTZ
  Basis Set:
  Charge       = 0
  Multiplicity = 1
  Basis Set: CC-PVTZ
  Basis Set:

    Orbital Energies (a.u.)
    -----------------------

    Doubly Occupied:

       1A    -15.526628     2A    -11.238674     3A    -11.211854
       4A    -11.207404     5A    -11.205301     6A     -1.178492
       7A     -1.057737     8A     -0.961504     9A     -0.851586
      10A     -0.780203    11A     -0.665618    12A     -0.649377
      13A     -0.595809    14A     -0.586569    15A     -0.549099
      16A     -0.525298    17A     -0.514912    18A     -0.471705
      19A     -0.466858    20A     -0.453089    21A     -0.383907

  @DF-RHF Final Energy:  -212.39925800140395

   => Energetics <=

    Nuclear Repulsion Energy =            189.2675287194262523
    One-Electron Energy =                -661.1703305974737077
    Two-Electron Energy =                 259.5035438766433913
    DFT Exchange-Correlation Energy =       0.0000000000000000
    Empirical Dispersion Energy =           0.0000000000000000
    PCM Polarization Energy =               0.0000000000000000
    EFP Energy =                            0.0000000000000000
    Total Energy =                       -212.3992580014040641
    Molecular point group: c1
  Basis Set: CC-PVTZ
  Basis Set:

  -Total Gradient:
     Atom            X                  Y                   Z
    ------   -----------------  -----------------  -----------------
       1       -0.000008861303     0.000002667258    -0.000001689724
       2       -0.000024009723     0.000013105978     0.000005753203
       3       -0.000108374359     0.000214790226    -0.001618438888
       4       -0.000002741416     0.000011149448     0.000014801132
       5        0.000699650454    -0.001118795930     0.000980463610
       6        0.000009839745    -0.000042656126     0.001197774843
       7       -0.000001224932    -0.000007999440    -0.000000679569
       8        0.000005385407     0.000015117991    -0.000036191692
       9       -0.000572779067     0.000912424988    -0.000564406762
      10        0.000014860089    -0.000008633192     0.000003232990
      11       -0.000009912867    -0.000000512866     0.000015728896
      12       -0.000004787478     0.000006567238     0.000002374767
      13       -0.000003088081     0.000000155887     0.000000113264
      14        0.000003838314     0.000009860894    -0.000001252550
      15        0.000000741472    -0.000003495399     0.000003124449
      16        0.000001463745    -0.000003746956    -0.000000707970

  **** Optimization is complete! (in 6 steps) ****
    Final optimized geometry and variables:
    Molecular point group: c1

    Geometry (in Angstrom), charge = 0, multiplicity = 1:

    H            2.537346656509     1.331440075962     1.041603673892
    N            1.621034990466     0.944024774633     0.967625295488
    C            1.493881462380     0.147894421165    -0.245074857365
    H            0.981096161620     1.709193252998     0.970596106693
    C            0.209823410904    -0.672524157474    -0.259020603183
    H            2.336908538111    -0.532880258003    -0.269335185708
    H            1.545266689138     0.750341159083    -1.153143024202
    C           -1.070541741459     0.158449518433    -0.203895636167
    H            0.198057916504    -1.264825837332    -1.170718606016
    H            0.226771317686    -1.365126562561     0.576459958612
    C           -2.331452879332    -0.693158159363    -0.311565765122
    H           -1.061265705275     0.889616240750    -1.009251643868
    H           -1.103524276747     0.718029823256     0.725018706941
    H           -2.355824047469    -1.240402446999    -1.248084681019
    H           -3.224950314050    -0.081303991262    -0.262548731126
    H           -2.381865811951    -1.417331760783     0.494567528962

  Mulliken Charges: (a.u.)
   Center  Symbol    Alpha    Beta     Spin     Total
       1     H     0.42901  0.42901  0.00000  0.14199
       2     N     3.69117  3.69117  0.00000 -0.38235
       3     C     3.03930  3.03930  0.00000 -0.07860
       4     H     0.42887  0.42887  0.00000  0.14226
       5     C     3.07741  3.07741  0.00000 -0.15483
       6     H     0.45196  0.45196  0.00000  0.09608
       7     H     0.46449  0.46449  0.00000  0.07102
       8     C     3.09189  3.09189  0.00000 -0.18377
       9     H     0.45615  0.45615  0.00000  0.08770
      10     H     0.45316  0.45316  0.00000  0.09367
      11     C     3.14938  3.14938  0.00000 -0.29875
      12     H     0.45565  0.45565  0.00000  0.08871
      13     H     0.45321  0.45321  0.00000  0.09358
      14     H     0.45550  0.45550  0.00000  0.08901
      15     H     0.44920  0.44920  0.00000  0.10160
      16     H     0.45366  0.45366  0.00000  0.09268

   Total alpha = 21.00000, Total beta = 21.00000, Total charge = -0.00000
