                              Psi4 1.0.54 Driver

  ==> Input File <==

--------------------------------------------------------------------------
set {
	reference rhf
	basis cc-pvtz
}

set_num_threads( 4 )
memory 2 gb

molecule MOL {
0 1

H	 0.370306	 2.782825	 1.810796
C	 -0.005321	 1.874160	 2.300815
C	 -1.283428	 1.326489	 1.726019
O	 0.583157	 1.408348	 3.214062
C	 -1.216901	 1.136108	 0.207794
H	 -1.520864	 0.400930	 2.234249
H	 -2.063475	 2.047033	 1.961914
C	 -0.247837	 0.040196	 -0.230469
H	 -2.212760	 0.901724	 -0.152301
H	 -0.940347	 2.077297	 -0.261113
C	 1.181757	 0.280428	 0.247371
H	 -0.259600	 -0.030819	 -1.314870
H	 -0.591284	 -0.923375	 0.136958
C	 2.151032	 -0.811012	 -0.202643
H	 1.515939	 1.247397	 -0.115449
H	 1.191514	 0.341223	 1.333422
C	 3.580021	 -0.656538	 0.320835
H	 2.170545	 -0.847575	 -1.289412
H	 1.766632	 -1.772905	 0.124928
C	 4.327657	 0.562694	 -0.213579
H	 4.138806	 -1.549270	 0.057813
H	 3.561991	 -0.620783	 1.406976
H	 4.355973	 0.557257	 -1.298551
H	 3.867136	 1.491650	 0.100501
H	 5.351524	 0.571613	 0.142204

	symmetry c1
}
set optking {
	frozen_dihedral = ("
		3 5 8 12
	")
}

ee,wfn = optimize('scf', return_wfn=True)
oeprop( wfn, 'DIPOLE', 'QUADRUPOLE', 'MULLIKEN_CHARGES')
f=open( 'psi4out.xyz', 'w' )
f.write( "25  " )
f.write( str(ee) + "\n" )
f.write( MOL.save_string_xyz() )
f.close()
--------------------------------------------------------------------------

    Molecular point group: c1
  Charge       = 0
  Multiplicity = 1
  Basis Set: CC-PVTZ
  Basis Set:
  @DF-RHF Final Energy:  -387.25040263258774
    Total Energy =                       -387.2504026325877931
    Molecular point group: c1
  Basis Set: CC-PVTZ
  Basis Set:
  Basis Set: CC-PVTZ
  Basis Set:
  @DF-RHF Final Energy:  -387.25365111040276
    Total Energy =                       -387.2536511104029842
  Basis Set: CC-PVTZ
  Basis Set:
  Basis Set: CC-PVTZ
  Basis Set:
  @DF-RHF Final Energy:  -387.25629860739127
    Total Energy =                       -387.2562986073913862
  Basis Set: CC-PVTZ
  Basis Set:
  Basis Set: CC-PVTZ
  Basis Set:
  @DF-RHF Final Energy:  -387.25664862558921
    Total Energy =                       -387.2566486255889231
  Basis Set: CC-PVTZ
  Basis Set:
  @DF-RHF Final Energy:  -387.25674891396795
    Total Energy =                       -387.2567489139679537
  @DF-RHF Final Energy:  -387.25692349435781
    Total Energy =                       -387.2569234943576930
  @DF-RHF Final Energy:  -387.25705217988360
    Total Energy =                       -387.2570521798832033
  @DF-RHF Final Energy:  -387.25714703689960
    Total Energy =                       -387.2571470368998234
  @DF-RHF Final Energy:  -387.25721837394241
    Total Energy =                       -387.2572183739425782
  @DF-RHF Final Energy:  -387.25726973119947
    Total Energy =                       -387.2572697311993579
  Basis Set: CC-PVTZ
  Basis Set:
  @DF-RHF Final Energy:  -387.25730398338635
    Total Energy =                       -387.2573039833864641
  Basis Set: CC-PVTZ
  Basis Set:
  Basis Set: CC-PVTZ
  Basis Set:
  @DF-RHF Final Energy:  -387.25732680811922
    Total Energy =                       -387.2573268081195010
  Basis Set: CC-PVTZ
  Basis Set:
  Basis Set: CC-PVTZ
  Basis Set:
  @DF-RHF Final Energy:  -387.25732851182454
    Total Energy =                       -387.2573285118243120
  Basis Set: CC-PVTZ
  Basis Set:
  Charge       = 0
  Multiplicity = 1
  Basis Set: CC-PVTZ
  Basis Set:

    Orbital Energies (a.u.)
    -----------------------

    Doubly Occupied:

       1A    -20.550266     2A    -11.321632     3A    -11.234391
       4A    -11.232990     5A    -11.221757     6A    -11.215150
       7A    -11.213912     8A    -11.213067     9A    -11.205871
      10A     -1.406133    11A     -1.103863    12A     -1.067949
      13A     -1.010993    14A     -0.945803    15A     -0.880874
      16A     -0.812711    17A     -0.788990    18A     -0.779900
      19A     -0.665867    20A     -0.657218    21A     -0.640901
      22A     -0.625902    23A     -0.610804    24A     -0.586877
      25A     -0.563324    26A     -0.560181    27A     -0.540548
      28A     -0.525980    29A     -0.508743    30A     -0.504554
      31A     -0.483827    32A     -0.472897    33A     -0.461384
      34A     -0.455396    35A     -0.443803    36A     -0.411330

  @DF-RHF Final Energy:  -387.25732949966567

   => Energetics <=

    Nuclear Repulsion Energy =            454.8557667290703534
    One-Electron Energy =               -1426.3746116853685635
    Two-Electron Energy =                 584.2615154566325373
    DFT Exchange-Correlation Energy =       0.0000000000000000
    Empirical Dispersion Energy =           0.0000000000000000
    PCM Polarization Energy =               0.0000000000000000
    EFP Energy =                            0.0000000000000000
    Total Energy =                       -387.2573294996656159
    Molecular point group: c1
  Basis Set: CC-PVTZ
  Basis Set:

  -Total Gradient:
     Atom            X                  Y                   Z
    ------   -----------------  -----------------  -----------------
       1        0.000004988023     0.000005243284     0.000009566181
       2       -0.000018210626     0.000019139431     0.000002533951
       3        0.000865255355     0.000961502607    -0.000057425785
       4        0.000003773888    -0.000001090067    -0.000007033478
       5       -0.001011013293    -0.001104490292     0.000089461541
       6        0.000002928655     0.000002276131    -0.000005111472
       7        0.000000875212    -0.000013417660    -0.000020133391
       8       -0.001035922351    -0.001119270498     0.000134247126
       9       -0.000005258900     0.000005946735     0.000003672824
      10        0.000003553582    -0.000003741016     0.000004642898
      11        0.000023308627    -0.000032250131    -0.000017828383
      12        0.001159076728     0.001274602149    -0.000148690434
      13        0.000000865821     0.000006908751     0.000001934217
      14        0.000002261481    -0.000002641012     0.000015886444
      15        0.000002413168     0.000008186269     0.000010813153
      16       -0.000000698415     0.000002832499    -0.000000070244
      17        0.000006205848    -0.000005817575    -0.000024873162
      18        0.000003092938    -0.000007441862     0.000002923110
      19        0.000000119129     0.000000355027     0.000001065254
      20       -0.000002772484    -0.000003042975     0.000007110769
      21        0.000009179597     0.000003014842    -0.000001069700
      22       -0.000005352299    -0.000001678478    -0.000005395031
      23       -0.000001679648    -0.000002474211     0.000004508927
      24       -0.000006495716     0.000004643303     0.000000393222
      25       -0.000000494318     0.000002704747    -0.000001128541

  **** Optimization is complete! (in 14 steps) ****
    Final optimized geometry and variables:
    Molecular point group: c1

    Geometry (in Angstrom), charge = 0, multiplicity = 1:

    H           -1.197968662094     2.414424872841     0.795587642330
    C           -1.369967590938     1.531035966118     1.424732545945
    C           -2.365921500106     0.543772863048     0.876853118413
    O           -0.818024533643     1.428123394278     2.465012268997
    C           -2.212386596495     0.230673413894    -0.617015724384
    H           -2.337779485440    -0.351024763722     1.485734391941
    H           -3.337440270791     1.009477797299     1.032651990030
    C           -1.137081995715    -0.798012390379    -0.976285834882
    H           -3.164529032950    -0.133747111959    -0.984643216961
    H           -2.021227787106     1.156710787671    -1.154711340638
    C            0.286206767356    -0.447840897669    -0.543252156408
    H           -1.143290761036    -0.916721617949    -2.056084314518
    H           -1.412493549874    -1.761843876742    -0.556773152982
    C            1.313625318565    -1.453831019966    -1.060714301589
    H            0.532013483035     0.547229721408    -0.903356624527
    H            0.350034565694    -0.410233425770     0.539234899899
    C            2.744783898335    -1.215692745274    -0.576413980944
    H            1.299221246870    -1.455465624825    -2.148306786050
    H            1.007657637179    -2.449956969336    -0.752633085707
    C            3.382080578412     0.076665531025    -1.080932532574
    H            3.357258438261    -2.053350502249    -0.895632522647
    H            2.761243875318    -1.224828540474     0.509868668483
    H            3.368348834131     0.120697465086    -2.165495774159
    H            2.869571604150     0.954564827984    -0.706642639809
    H            4.415710673967     0.144610690228    -0.761854321966

  Mulliken Charges: (a.u.)
   Center  Symbol    Alpha    Beta     Spin     Total
       1     H     0.46290  0.46290  0.00000  0.07421
       2     C     2.90085  2.90085  0.00000  0.19829
       3     C     3.09382  3.09382  0.00000 -0.18763
       4     O     4.16972  4.16972  0.00000 -0.33944
       5     C     3.11855  3.11855  0.00000 -0.23711
       6     H     0.44037  0.44037  0.00000  0.11926
       7     H     0.43854  0.43854  0.00000  0.12292
       8     C     3.09048  3.09048  0.00000 -0.18095
       9     H     0.43885  0.43885  0.00000  0.12230
      10     H     0.44986  0.44986  0.00000  0.10027
      11     C     3.11097  3.11097  0.00000 -0.22194
      12     H     0.44742  0.44742  0.00000  0.10515
      13     H     0.44889  0.44889  0.00000  0.10222
      14     C     3.09694  3.09694  0.00000 -0.19387
      15     H     0.45081  0.45081  0.00000  0.09838
      16     H     0.43996  0.43996  0.00000  0.12007
      17     C     3.09019  3.09019  0.00000 -0.18038
      18     H     0.45364  0.45364  0.00000  0.09272
      19     H     0.44931  0.44931  0.00000  0.10139
      20     C     3.15295  3.15295  0.00000 -0.30590
      21     H     0.44873  0.44873  0.00000  0.10253
      22     H     0.45198  0.45198  0.00000  0.09604
      23     H     0.45589  0.45589  0.00000  0.08822
      24     H     0.45270  0.45270  0.00000  0.09460
      25     H     0.44568  0.44568  0.00000  0.10865

   Total alpha = 36.00000, Total beta = 36.00000, Total charge = -0.00000

*** Psi4 exiting successfully. Buy a developer a beer!
