  ==> Input File <==

--------------------------------------------------------------------------
set {
	reference rhf
	basis 6-31G*
}

set_num_threads( 4 )
memory 2 gb

molecule MOL {
0 1

H	 3.301248	 -0.421704	 -0.018187
C	 2.241050	 -0.241745	 -0.014277
C	 1.463567	 -0.721459	 1.032745
C	 1.659207	 0.466474	 -1.052480
H	 1.922569	 -1.270328	 1.834982
C	 0.101728	 -0.492130	 1.040894
H	 2.263820	 0.835985	 -1.860656
C	 0.292878	 0.695878	 -1.043141
H	 -0.516661	 -0.854322	 1.840621
C	 -0.488460	 0.219100	 0.000000
H	 -0.165235	 1.245741	 -1.847336
C	 -1.949954	 0.470334	 0.000000
O	 -2.781584	 -0.381627	 0.000000
H	 -2.238022	 1.526388	 0.000000

	symmetry c1
}
set optking {
	frozen_dihedral = ("
		8 10 12 14
	")
}

ee = optimize('scf')
oeprop('DIPOLE', 'QUADRUPOLE', 'MULLIKEN_CHARGES')
f=open( 'psi4out.xyz', 'w' )
f.write( "14  " )
f.write( str(ee) + "\n" )
f.write( MOL.save_string_xyz() )
f.close()
--------------------------------------------------------------------------

    Molecular point group: c1
  Charge       = 0
  Multiplicity = 1
  Basis Set: 6-31G*
  Basis Set:
  @DF-RHF Final Energy:  -343.42231484449189
    Total Energy =                       -343.4223148444917797
    Molecular point group: c1
  Basis Set: 6-31G*
  Basis Set:
  Basis Set: 6-31G*
  Basis Set:
  @DF-RHF Final Energy:  -343.42051702884584
    Total Energy =                       -343.4205170288457794
  Basis Set: 6-31G*
  Basis Set:
  Basis Set: 6-31G*
  Basis Set:
  @DF-RHF Final Energy:  -343.42314999614723
    Total Energy =                       -343.4231499961471741
  Basis Set: 6-31G*
  Basis Set:
  Basis Set: 6-31G*
  Basis Set:
  @DF-RHF Final Energy:  -343.42323556977544
    Total Energy =                       -343.4232355697756702
  Basis Set: 6-31G*
  Basis Set:
  Basis Set: 6-31G*
  Basis Set:
  @DF-RHF Final Energy:  -343.42323681673810
    Total Energy =                       -343.4232368167379263
  Basis Set: 6-31G*
  Basis Set:
  Charge       = 0
  Multiplicity = 1
  Basis Set: 6-31G*
  Basis Set:

    Orbital Energies (a.u.)
    -----------------------

    Doubly Occupied:

       1A    -20.569191     2A    -11.334315     3A    -11.250386
       4A    -11.249003     5A    -11.246432     6A    -11.245740
       7A    -11.243753     8A    -11.242452     9A     -1.408590
      10A     -1.169253    11A     -1.044958    12A     -1.029413
      13A     -0.887312    14A     -0.841325    15A     -0.793468
      16A     -0.720546    17A     -0.676502    18A     -0.651766
      19A     -0.632483    20A     -0.616691    21A     -0.601026
      22A     -0.539069    23A     -0.526914    24A     -0.507969
      25A     -0.502371    26A     -0.422173    27A     -0.347203
      28A     -0.345842

  @DF-RHF Final Energy:  -343.42323710314736

   => Energetics <=

    Nuclear Repulsion Energy =            322.8984165225820107
    One-Electron Energy =               -1105.3510174534037560
    Two-Electron Energy =                 439.0293638276743877
    DFT Exchange-Correlation Energy =       0.0000000000000000
    Empirical Dispersion Energy =           0.0000000000000000
    PCM Polarization Energy =               0.0000000000000000
    EFP Energy =                            0.0000000000000000
    Total Energy =                       -343.4232371031473576
    Molecular point group: c1
  Basis Set: 6-31G*
  Basis Set:

  -Total Gradient:
     Atom            X                  Y                   Z
    ------   -----------------  -----------------  -----------------
       1        0.000001174913    -0.000005128752     0.000002067326
       2       -0.000001330799     0.000010589263    -0.000018133424
       3       -0.000008642967     0.000007277520     0.000006729996
       4        0.000029754256    -0.000015778011     0.000010769857
       5        0.000005455088     0.000000540137    -0.000004643845
       6        0.000022617174     0.000012236328     0.000007642293
       7        0.000000958444    -0.000000749108     0.000002650556
       8       -0.000708559363    -0.005369220387    -0.002848327861
       9        0.000000712583     0.000013789267     0.000003583464
      10        0.000961616768     0.007933382662     0.006595273865
      11       -0.000000511626     0.000009708578     0.000006938424
      12       -0.000192406268    -0.002925969371    -0.011262683956
      13       -0.000001744981     0.000033427487    -0.000003830240
      14       -0.000109093217     0.000295894387     0.007501963546

  **** Optimization is complete! (in 6 steps) ****
    Final optimized geometry and variables:
    Molecular point group: c1

    Geometry (in Angstrom), charge = 0, multiplicity = 1:

    H            3.295050686138    -0.446989340428    -0.028004219882
    C            2.237858295001    -0.250883358355    -0.022065740343
    C            1.452609088592    -0.719940810663     1.020339494366
    C            1.661200817355     0.463775832420    -1.059479896734
    H            1.899489032587    -1.281831010216     1.820523680864
    C            0.089733195738    -0.480019504261     1.023336281754
    H            2.266447369351     0.814514652075    -1.875734676626
    C            0.301046712235     0.725184763532    -1.044797507603
    H           -0.529454292907    -0.865986015544     1.812297735601
    C           -0.485725400143     0.266877781417     0.003116698039
    H           -0.145216996087     1.286200947464    -1.848059501864
    C           -1.966362627896     0.467758468755    -0.024422345205
    O           -2.750548856298    -0.418385523203     0.089950620910
    H           -2.310863216240     1.505181596024    -0.070615761525

  Mulliken Charges: (a.u.)
   Center  Symbol    Alpha    Beta     Spin     Total
       1     H     0.39537  0.39537  0.00000  0.20927
       2     C     3.09557  3.09557  0.00000 -0.19114
       3     C     3.10120  3.10120  0.00000 -0.20241
       4     C     3.10023  3.10023  0.00000 -0.20047
       5     H     0.39480  0.39480  0.00000  0.21041
       6     C     3.09451  3.09451  0.00000 -0.18903
       7     H     0.39531  0.39531  0.00000  0.20938
       8     C     3.10358  3.10358  0.00000 -0.20716
       9     H     0.38600  0.38600  0.00000  0.22801
      10     C     3.03793  3.03793  0.00000 -0.07586
      11     H     0.39407  0.39407  0.00000  0.21187
      12     C     2.84936  2.84936  0.00000  0.30128
      13     O     4.22888  4.22888  0.00000 -0.45775
      14     H     0.42320  0.42320  0.00000  0.15361

   Total alpha = 28.00000, Total beta = 28.00000, Total charge = -0.00000
