  ==> Input File <==

--------------------------------------------------------------------------
set {
	reference rhf
	basis cc-pvtz
}

set_num_threads( 4 )
memory 2 gb

molecule MOL {
0 1

H	 1.907317	 1.637021	 -0.469852
O	 1.028081	 1.290312	 -0.491621
C	 1.050374	 0.054877	 0.000135
C	 -0.318151	 -0.570512	 0.000144
O	 2.047903	 -0.453099	 0.380746
C	 -1.454884	 0.441630	 -0.000560
H	 -0.371613	 -1.223646	 -0.864985
H	 -0.371920	 -1.222758	 0.865929
C	 -2.822577	 -0.232186	 0.000063
H	 -1.359760	 1.084704	 -0.867077
H	 -1.359641	 1.085996	 0.864983
H	 -2.954352	 -0.858985	 -0.875745
H	 -3.615886	 0.505352	 0.000019
H	 -2.953878	 -0.858359	 0.876394

	symmetry c1
}
set optking {
	frozen_dihedral = ("
		2 3 4 7
	")
}

ee = optimize('scf')
oeprop('DIPOLE', 'QUADRUPOLE', 'MULLIKEN_CHARGES')
f=open( 'psi4out.xyz', 'w' )
f.write( "14  " )
f.write( str(ee) + "\n" )
f.write( MOL.save_string_xyz() )
f.close()
--------------------------------------------------------------------------

    Molecular point group: c1
  Charge       = 0
  Multiplicity = 1
  Basis Set: CC-PVTZ
  Basis Set:
  @DF-RHF Final Energy:  -305.99766088012086
    Total Energy =                       -305.9976608801208613
    Molecular point group: c1
  Basis Set: CC-PVTZ
  Basis Set:
  Basis Set: CC-PVTZ
  Basis Set:
  @DF-RHF Final Energy:  -305.99827528094670
    Total Energy =                       -305.9982752809467001
  Basis Set: CC-PVTZ
  Basis Set:
  Basis Set: CC-PVTZ
  Basis Set:
  @DF-RHF Final Energy:  -305.99782339782183
    Total Energy =                       -305.9978233978217759
  Basis Set: CC-PVTZ
  Basis Set:
  Basis Set: CC-PVTZ
  Basis Set:
  @DF-RHF Final Energy:  -305.99861178380240
    Total Energy =                       -305.9986117838023461
  Basis Set: CC-PVTZ
  Basis Set:
  Basis Set: CC-PVTZ
  Basis Set:
  @DF-RHF Final Energy:  -305.99862386026297
    Total Energy =                       -305.9986238602629101
  Basis Set: CC-PVTZ
  Basis Set:
  Charge       = 0
  Multiplicity = 1
  Basis Set: CC-PVTZ
  Basis Set:

    Orbital Energies (a.u.)
    -----------------------

    Doubly Occupied:

       1A    -20.606791     2A    -20.537333     3A    -11.374224
       4A    -11.239894     5A    -11.228973     6A    -11.217994
       7A     -1.479005     8A     -1.368253     9A     -1.086562
      10A     -0.979570    11A     -0.848620    12A     -0.820500
      13A     -0.703858    14A     -0.683769    15A     -0.666005
      16A     -0.621110    17A     -0.593612    18A     -0.565543
      19A     -0.550788    20A     -0.526483    21A     -0.498673
      22A     -0.492490    23A     -0.472570    24A     -0.440110

  @DF-RHF Final Energy:  -305.99862436650056

   => Energetics <=

    Nuclear Repulsion Energy =            240.8544758209954466
    One-Electron Energy =                -894.5007362891869889
    Two-Electron Energy =                 347.6476361016908072
    DFT Exchange-Correlation Energy =       0.0000000000000000
    Empirical Dispersion Energy =           0.0000000000000000
    PCM Polarization Energy =               0.0000000000000000
    EFP Energy =                            0.0000000000000000
    Total Energy =                       -305.9986243665006782
    Molecular point group: c1
  Basis Set: CC-PVTZ
  Basis Set:

  -Total Gradient:
     Atom            X                  Y                   Z
    ------   -----------------  -----------------  -----------------
       1       -0.000012213933    -0.000033579063     0.000008481254
       2       -0.000176556701     0.000353623847     0.000587289427
       3        0.000303878813    -0.000581437833    -0.000718029909
       4       -0.000347809818     0.000871067680    -0.000256181848
       5       -0.000071411389     0.000006694150    -0.000010753131
       6        0.000022802300    -0.000016248151    -0.000062847243
       7        0.000262642377    -0.000595879182     0.000414896790
       8        0.000006228554     0.000004770633     0.000005041958
       9       -0.000002692142    -0.000007031570     0.000031733250
      10        0.000011776166     0.000000537730    -0.000005037415
      11        0.000003418509    -0.000002990280     0.000004761634
      12        0.000005876127     0.000010724917    -0.000003536319
      13        0.000000348619    -0.000001034942     0.000006110315
      14       -0.000006287484    -0.000009217937    -0.000001928763

  **** Optimization is complete! (in 6 steps) ****
    Final optimized geometry and variables:
    Molecular point group: c1

    Geometry (in Angstrom), charge = 0, multiplicity = 1:

    H            2.067216620330     1.477816243496    -0.423469481218
    O            1.164995956721     1.195791659340    -0.447875545752
    C            1.105792596562    -0.043334352367     0.026090484158
    C           -0.279905914514    -0.638022045093     0.013606623788
    O            2.070050549064    -0.617512009870     0.400612740966
    C           -1.445200726768     0.346393618410     0.008089662464
    H           -0.319510595919    -1.278265807939    -0.863450139433
    H           -0.329546258967    -1.299845522157     0.868282853589
    C           -2.790636878647    -0.370519186127     0.039024412639
    H           -1.385570632383     0.977189341116    -0.869471628933
    H           -1.364986557420     1.005865790222     0.865626980568
    H           -2.911939345321    -1.014730773945    -0.825445244296
    H           -3.607482869287     0.340929825363     0.038060753163
    H           -2.889014558910    -0.986623881646     0.926315031899

  Mulliken Charges: (a.u.)
   Center  Symbol    Alpha    Beta     Spin     Total
       1     H     0.38284  0.38284  0.00000  0.23433
       2     O     4.15410  4.15410  0.00000 -0.30820
       3     C     2.81234  2.81234  0.00000  0.37532
       4     C     3.09410  3.09410  0.00000 -0.18820
       5     O     4.19610  4.19610  0.00000 -0.39221
       6     C     3.08534  3.08534  0.00000 -0.17069
       7     H     0.44186  0.44186  0.00000  0.11627
       8     H     0.43514  0.43514  0.00000  0.12973
       9     C     3.15129  3.15129  0.00000 -0.30259
      10     H     0.44460  0.44460  0.00000  0.11079
      11     H     0.44843  0.44843  0.00000  0.10315
      12     H     0.45455  0.45455  0.00000  0.09091
      13     H     0.44546  0.44546  0.00000  0.10907
      14     H     0.45384  0.45384  0.00000  0.09232

   Total alpha = 24.00000, Total beta = 24.00000, Total charge = -0.00000
