  ==> Input File <==

--------------------------------------------------------------------------
set {
	reference rhf
	basis 6-31G*
}

set_num_threads( 4 )
memory 2 gb

molecule MOL {
0 1

O	 2.598556	 1.765757	 0.458788
C	 2.005367	 1.462417	 1.448166
C	 0.731382	 0.637645	 1.407509
C	 2.490401	 1.885020	 2.819772
C	 0.291004	 0.242674	 0.000989
H	 0.886900	 -0.246279	 2.024665
H	 -0.049929	 1.206274	 1.910118
C	 -0.994322	 -0.586602	 0.000262
H	 1.089842	 -0.313984	 -0.478718
H	 0.151719	 1.140160	 -0.593373
C	 -2.259874	 0.272531	 0.000494
H	 -1.004862	 -1.240012	 -0.870939
H	 -1.005220	 -1.241071	 0.870675
C	 -3.549786	 -0.549746	 -0.000374
H	 -2.250389	 0.926680	 -0.869574
H	 -2.250838	 0.925513	 0.871430
C	 -4.809590	 0.315458	 -0.000369
H	 -3.560515	 -1.202009	 -0.871156
H	 -3.561123	 -1.202955	 0.869711
H	 -4.844746	 0.956611	 -0.876632
H	 -5.706986	 -0.295590	 -0.001609
H	 -4.845960	 0.954827	 0.877144
H	 2.677463	 1.013760	 3.440685
H	 3.399850	 2.461615	 2.723463
H	 1.734287	 2.481833	 3.321509

	symmetry c1
}
set optking {
	frozen_dihedral = ("
		9 5 8 12
	")
}

ee = optimize('scf')
oeprop('DIPOLE', 'QUADRUPOLE', 'MULLIKEN_CHARGES')
f=open( 'psi4out.xyz', 'w' )
f.write( "25  " )
f.write( str(ee) + "\n" )
f.write( MOL.save_string_xyz() )
f.close()
--------------------------------------------------------------------------

    Molecular point group: c1
  Charge       = 0
  Multiplicity = 1
  Basis Set: 6-31G*
  Basis Set:
  @DF-RHF Final Energy:  -387.13355027733115
    Total Energy =                       -387.1335502773313237
    Molecular point group: c1
  Basis Set: 6-31G*
  Basis Set:
  Basis Set: 6-31G*
  Basis Set:
  @DF-RHF Final Energy:  -387.13375025033110
    Total Energy =                       -387.1337502503307633
  Basis Set: 6-31G*
  Basis Set:
  Basis Set: 6-31G*
  Basis Set:
  @DF-RHF Final Energy:  -387.13364875986031
    Total Energy =                       -387.1336487598607619
  Basis Set: 6-31G*
  Basis Set:
  Basis Set: 6-31G*
  Basis Set:
  @DF-RHF Final Energy:  -387.13380921150377
    Total Energy =                       -387.1338092115034897
  Basis Set: 6-31G*
  Basis Set:
  Basis Set: 6-31G*
  Basis Set:
  @DF-RHF Final Energy:  -387.13381246058435
    Total Energy =                       -387.1338124605839539
  Basis Set: 6-31G*
  Basis Set:
  Charge       = 0
  Multiplicity = 1
  Basis Set: 6-31G*
  Basis Set:

    Orbital Energies (a.u.)
    -----------------------

    Doubly Occupied:

       1A    -20.550494     2A    -11.326301     3A    -11.231909
       4A    -11.228379     5A    -11.217051     6A    -11.216879
       7A    -11.216445     8A    -11.215777     9A    -11.210063
      10A     -1.395773    11A     -1.093896    12A     -1.056021
      13A     -1.014358    14A     -0.968545    15A     -0.895202
      16A     -0.815700    17A     -0.789537    18A     -0.732244
      19A     -0.658663    20A     -0.644188    21A     -0.641168
      22A     -0.621189    23A     -0.598007    24A     -0.575702
      25A     -0.571403    26A     -0.566111    27A     -0.541546
      28A     -0.525972    29A     -0.517703    30A     -0.492270
      31A     -0.485388    32A     -0.478497    33A     -0.463852
      34A     -0.459731    35A     -0.446131    36A     -0.400459

  @DF-RHF Final Energy:  -387.13381337589607

   => Energetics <=

    Nuclear Repulsion Energy =            443.3806502401865259
    One-Electron Energy =               -1403.3038181591141438
    Two-Electron Energy =                 572.7893545430310951
    DFT Exchange-Correlation Energy =       0.0000000000000000
    Empirical Dispersion Energy =           0.0000000000000000
    PCM Polarization Energy =               0.0000000000000000
    EFP Energy =                            0.0000000000000000
    Total Energy =                       -387.1338133758965796
    Molecular point group: c1
  Basis Set: 6-31G*
  Basis Set:

  -Total Gradient:
     Atom            X                  Y                   Z
    ------   -----------------  -----------------  -----------------
       1        0.000004781939     0.000006944975    -0.000004003312
       2       -0.000008514512    -0.000008037420     0.000013954226
       3        0.000015009620     0.000003321830     0.000009273183
       4        0.000012966834    -0.000002803036    -0.000001735512
       5        0.001097392757    -0.001880809877     0.003416667463
       6       -0.000007766446     0.000000688032    -0.000010071504
       7       -0.000000400102    -0.000001617533    -0.000005427469
       8       -0.001660337007     0.002768173293    -0.002423937304
       9       -0.000654098536     0.001155984053    -0.002494133580
      10        0.000005433021    -0.000010240706     0.000015009441
      11       -0.000016387535     0.000002962833     0.000012048240
      12        0.001227450912    -0.002041360749     0.001481862335
      13       -0.000009010490     0.000003090205    -0.000001641417
      14        0.000010374586     0.000009126921    -0.000002562109
      15        0.000008076697    -0.000015976343     0.000003325390
      16       -0.000000388281     0.000004540759    -0.000005872114
      17       -0.000015302222    -0.000002889980    -0.000003283186
      18       -0.000008454473     0.000001554535    -0.000000551128
      19        0.000007502440    -0.000001266925    -0.000004061887
      20       -0.000000742332    -0.000000389173     0.000001850274
      21       -0.000007645990     0.000003953477     0.000001796647
      22        0.000002376774    -0.000001648992    -0.000000996813
      23       -0.000001578270     0.000002571572     0.000001060249
      24        0.000000408194     0.000002352634     0.000002734190
      25       -0.000001147582     0.000001775614    -0.000001304303

  **** Optimization is complete! (in 6 steps) ****
    Final optimized geometry and variables:
    Molecular point group: c1

    Geometry (in Angstrom), charge = 0, multiplicity = 1:

    O            2.996749559120     1.155347641327    -0.224393152951
    C            2.405962344839     0.849896274549     0.765793387365
    C            1.136173362929     0.018465421542     0.727809346406
    C            2.890993902196     1.275568611034     2.136530993714
    C            0.702545251504    -0.386815111791    -0.678287209781
    H            1.297557306070    -0.863043325715     1.346747375969
    H            0.354539796684     0.585102248549     1.230873875585
    C           -0.604194245062    -1.194847844187    -0.705522961697
    H            1.498359264709    -0.950668448115    -1.152315056720
    H            0.590871092634     0.506980299525    -1.284422829524
    C           -1.871498444509    -0.337325483742    -0.692138737297
    H           -0.608711512500    -1.834849610782    -1.584322399430
    H           -0.625455327598    -1.877354773780     0.143512785664
    C           -3.158735150978    -1.163691217625    -0.682327547610
    H           -1.869355050001     0.313963724593    -1.564183340364
    H           -1.864923916589     0.319322102957     0.176397118571
    C           -4.421885056502    -0.303342544593    -0.684882210005
    H           -3.169148418545    -1.822152353692    -1.548285416399
    H           -3.164807828229    -1.810862987955     0.192267330180
    H           -4.462728145255     0.330446612461    -1.566189819547
    H           -5.316807442958    -0.917858259205    -0.677981734037
    H           -4.458154109709     0.343025875649     0.187662566126
    H            3.083791653535     0.405571872292     2.757450777421
    H            3.797232539374     1.856873947508     2.038405003540
    H            2.132686644332     1.868672993678     2.639385917820

  Mulliken Charges: (a.u.)
   Center  Symbol    Alpha    Beta     Spin     Total
       1     O     4.26103  4.26103  0.00000 -0.52207
       2     C     2.73583  2.73583  0.00000  0.52833
       3     C     3.21089  3.21089  0.00000 -0.42179
       4     C     3.28668  3.28668  0.00000 -0.57336
       5     C     3.15158  3.15158  0.00000 -0.30317
       6     H     0.40982  0.40982  0.00000  0.18037
       7     H     0.40925  0.40925  0.00000  0.18150
       8     C     3.15777  3.15777  0.00000 -0.31554
       9     H     0.41013  0.41013  0.00000  0.17974
      10     H     0.41124  0.41124  0.00000  0.17752
      11     C     3.15151  3.15151  0.00000 -0.30302
      12     H     0.41814  0.41814  0.00000  0.16371
      13     H     0.42565  0.42565  0.00000  0.14871
      14     C     3.15153  3.15153  0.00000 -0.30306
      15     H     0.42138  0.42138  0.00000  0.15724
      16     H     0.42607  0.42607  0.00000  0.14786
      17     C     3.23928  3.23928  0.00000 -0.47856
      18     H     0.42218  0.42218  0.00000  0.15564
      19     H     0.42354  0.42354  0.00000  0.15292
      20     H     0.42105  0.42105  0.00000  0.15791
      21     H     0.41905  0.41905  0.00000  0.16190
      22     H     0.42245  0.42245  0.00000  0.15510
      23     H     0.40871  0.40871  0.00000  0.18259
      24     H     0.39645  0.39645  0.00000  0.20711
      25     H     0.40879  0.40879  0.00000  0.18242

   Total alpha = 36.00000, Total beta = 36.00000, Total charge = -0.00000
