  ==> Input File <==

--------------------------------------------------------------------------
set {
	reference rhf
	basis 6-31G*
}

set_num_threads( 1 )
memory 2 gb

molecule MOL {
0 1

H	 0.818841	 4.522201	 -1.205410
N	 0.041293	 3.896610	 -1.292589
C	 0.321284	 2.630171	 -0.631331
H	 -0.107587	 3.754983	 -2.273715
C	 -0.899127	 1.717030	 -0.681576
H	 0.565140	 2.846033	 0.404428
H	 1.183049	 2.107016	 -1.053313
C	 -0.679275	 0.379305	 0.025956
H	 -1.739469	 2.242944	 -0.237644
H	 -1.164526	 1.534750	 -1.722572
C	 -1.903357	 -0.536963	 -0.023547
H	 -0.411094	 0.560878	 1.065648
H	 0.169923	 -0.134655	 -0.421876
C	 -3.225172	 0.228290	 0.028445
H	 -1.867824	 -1.134999	 -0.931459
H	 -1.860449	 -1.239604	 0.805977
H	 -3.313397	 0.915643	 -0.808262
H	 -4.073500	 -0.448134	 -0.008893
H	 -3.306061	 0.809945	 0.942516

	symmetry c1
}
set optking {
	frozen_dihedral = ("
		6 3 5 9,
		12 8 5 9,
		1 2 3 6
	")
}

ee = energy('scf')
oeprop('DIPOLE', 'QUADRUPOLE', 'MULLIKEN_CHARGES')
f=open( 'psi4out.xyz', 'w' )
f.write( "19  " )
f.write( str(ee) + "\n" )
f.write( MOL.save_string_xyz() )
f.close()
--------------------------------------------------------------------------

    Molecular point group: c1

    Geometry (in Angstrom), charge = 0, multiplicity = 1:

       Center              X                  Y                   Z               Mass
    ------------   -----------------  -----------------  -----------------  -----------------
           H          1.866713242065     3.098130758428    -0.757994534291     1.007825032070
           N          1.089165242065     2.472539758428    -0.845173534291    14.003074004780
           C          1.369156242065     1.206100758428    -0.183915534291    12.000000000000
           H          0.940285242065     2.330912758428    -1.826299534291     1.007825032070
           C          0.148745242065     0.292959758428    -0.234160534291    12.000000000000
           H          1.613012242065     1.421962758428     0.851843465709     1.007825032070
           H          2.230921242065     0.682945758428    -0.605897534291     1.007825032070
           C          0.368597242065    -1.044765241572     0.473371465709    12.000000000000
           H         -0.691596757935     0.818873758428     0.209771465709     1.007825032070
           H         -0.116653757935     0.110679758428    -1.275156534291     1.007825032070
           C         -0.855484757935    -1.961033241572     0.423868465709    12.000000000000
           H          0.636778242065    -0.863192241572     1.513063465709     1.007825032070
           H          1.217795242065    -1.558725241572     0.025539465709     1.007825032070
           C         -2.177299757935    -1.195780241572     0.475860465709    12.000000000000
           H         -0.819951757935    -2.559069241572    -0.484043534291     1.007825032070
           H         -0.812576757935    -2.663674241572     1.253392465709     1.007825032070
           H         -2.265524757935    -0.508427241572    -0.360846534291     1.007825032070
           H         -3.025627757935    -1.872204241572     0.438522465709     1.007825032070
           H         -2.258188757935    -0.614125241572     1.389931465709     1.007825032070

  Charge       = 0
  Multiplicity = 1
  Basis Set: 6-31G*
  Basis Set:

    Orbital Energies (a.u.)
    -----------------------

    Doubly Occupied:

       1A    -15.532203     2A    -11.239073     3A    -11.213193
       4A    -11.212038     5A    -11.208299     6A    -11.204715
       7A     -1.176281     8A     -1.075516     9A     -0.991040
      10A     -0.904595    11A     -0.827349    12A     -0.770122
      13A     -0.663481    14A     -0.642655    15A     -0.607685
      16A     -0.597940    17A     -0.582049    18A     -0.534279
      19A     -0.528441    20A     -0.498085    21A     -0.489411
      22A     -0.458084    23A     -0.452512    24A     -0.450049
      25A     -0.380727

  @DF-RHF Final Energy:  -251.34466144594219

   => Energetics <=

    Nuclear Repulsion Energy =            251.4194903580945208
    One-Electron Energy =                -837.0486348771452185
    Two-Electron Energy =                 334.2844830731086745
    DFT Exchange-Correlation Energy =       0.0000000000000000
    Empirical Dispersion Energy =           0.0000000000000000
    PCM Polarization Energy =               0.0000000000000000
    EFP Energy =                            0.0000000000000000
    Total Energy =                       -251.3446614459419948

  Mulliken Charges: (a.u.)
   Center  Symbol    Alpha    Beta     Spin     Total
       1     H     0.33251  0.33251  0.00000  0.33497
       2     N     3.92193  3.92193  0.00000 -0.84385
       3     C     3.05868  3.05868  0.00000 -0.11736
       4     H     0.33554  0.33554  0.00000  0.32892
       5     C     3.15895  3.15895  0.00000 -0.31789
       6     H     0.42109  0.42109  0.00000  0.15781
       7     H     0.43518  0.43518  0.00000  0.12964
       8     C     3.15648  3.15648  0.00000 -0.31297
       9     H     0.40809  0.40809  0.00000  0.18382
      10     H     0.42790  0.42790  0.00000  0.14420
      11     C     3.15131  3.15131  0.00000 -0.30262
      12     H     0.42306  0.42306  0.00000  0.15387
      13     H     0.42234  0.42234  0.00000  0.15532
      14     C     3.24634  3.24634  0.00000 -0.49267
      15     H     0.42290  0.42290  0.00000  0.15419
      16     H     0.42070  0.42070  0.00000  0.15861
      17     H     0.41644  0.41644  0.00000  0.16713
      18     H     0.41946  0.41946  0.00000  0.16108
      19     H     0.42110  0.42110  0.00000  0.15779

   Total alpha = 25.00000, Total beta = 25.00000, Total charge =  0.00000
