  ==> Input File <==

--------------------------------------------------------------------------
set {
	reference rhf
	basis cc-pvtz
}

set_num_threads( 4 )
memory 2 gb

molecule MOL {
0 1

H	 2.816902	 1.712131	 1.374908
N	 1.990118	 1.155949	 1.322886
C	 1.860978	 0.530248	 0.016256
H	 1.216591	 1.760326	 1.506553
C	 0.644130	 -0.381765	 -0.031064
H	 2.755627	 -0.057666	 -0.159436
H	 1.798108	 1.254836	 -0.796747
C	 -0.678115	 0.376691	 0.025731
H	 0.693998	 -0.977147	 -0.936845
H	 0.693309	 -1.082142	 0.800523
C	 -1.900706	 -0.535531	 -0.022488
H	 -0.725296	 1.079516	 -0.802982
H	 -0.715474	 0.974884	 0.933278
C	 -3.220513	 0.226854	 0.028039
H	 -1.865036	 -1.134397	 -0.928236
H	 -1.857948	 -1.236381	 0.806820
H	 -3.309098	 0.911849	 -0.808725
H	 -4.066838	 -0.449485	 -0.008086
H	 -3.301685	 0.809374	 0.939860

	symmetry c1
}
set optking {
	frozen_dihedral = ("
		6 3 5 9
	")
}

ee = optimize('scf')
oeprop('DIPOLE', 'QUADRUPOLE', 'MULLIKEN_CHARGES')
f=open( 'psi4out.xyz', 'w' )
f.write( "19  " )
f.write( str(ee) + "\n" )
f.write( MOL.save_string_xyz() )
f.close()
--------------------------------------------------------------------------

    Molecular point group: c1
  Charge       = 0
  Multiplicity = 1
  Basis Set: CC-PVTZ
  Basis Set:
  @DF-RHF Final Energy:  -251.44670387406052
    Total Energy =                       -251.4467038740605744
    Molecular point group: c1
  Basis Set: CC-PVTZ
  Basis Set:
  Basis Set: CC-PVTZ
  Basis Set:
  @DF-RHF Final Energy:  -251.44699707361920
    Total Energy =                       -251.4469970736194000
  Basis Set: CC-PVTZ
  Basis Set:
  Basis Set: CC-PVTZ
  Basis Set:
  @DF-RHF Final Energy:  -251.44708162405121
    Total Energy =                       -251.4470816240511226
  Basis Set: CC-PVTZ
  Basis Set:
  Basis Set: CC-PVTZ
  Basis Set:
  @DF-RHF Final Energy:  -251.44708807389893
    Total Energy =                       -251.4470880738985556
  Basis Set: CC-PVTZ
  Basis Set:
  Basis Set: CC-PVTZ
  Basis Set:
  @DF-RHF Final Energy:  -251.44708918725541
    Total Energy =                       -251.4470891872554148
  Basis Set: CC-PVTZ
  Basis Set:
  Charge       = 0
  Multiplicity = 1
  Basis Set: CC-PVTZ
  Basis Set:

    Orbital Energies (a.u.)
    -----------------------

    Doubly Occupied:

       1A    -15.526541     2A    -11.238333     3A    -11.211697
       4A    -11.210266     5A    -11.206996     6A    -11.205477
       7A     -1.178348     8A     -1.072665     9A     -0.998564
      10A     -0.906935    11A     -0.814327    12A     -0.781744
      13A     -0.665818    14A     -0.651834    15A     -0.613953
      16A     -0.587933    17A     -0.560300    18A     -0.550367
      19A     -0.532096    20A     -0.501342    21A     -0.487541
      22A     -0.463371    23A     -0.461900    24A     -0.445354
      25A     -0.383690

  @DF-RHF Final Energy:  -251.44708949196428

   => Energetics <=

    Nuclear Repulsion Energy =            249.2586710608734961
    One-Electron Energy =                -832.8967342062320540
    Two-Electron Energy =                 332.1909736533941100
    DFT Exchange-Correlation Energy =       0.0000000000000000
    Empirical Dispersion Energy =           0.0000000000000000
    PCM Polarization Energy =               0.0000000000000000
    EFP Energy =                            0.0000000000000000
    Total Energy =                       -251.4470894919643911
    Molecular point group: c1
  Basis Set: CC-PVTZ
  Basis Set:

  -Total Gradient:
     Atom            X                  Y                   Z
    ------   -----------------  -----------------  -----------------
       1       -0.000008063809     0.000001387009     0.000003547598
       2       -0.000023867861     0.000011820837    -0.000001955676
       3        0.000284950855    -0.000438088696     0.001512788757
       4       -0.000002355204     0.000016861914     0.000019611434
       5       -0.000735018198     0.001041151018    -0.000962650728
       6       -0.000094845966     0.000170578252    -0.001152749096
       7       -0.000004467373    -0.000001594011    -0.000000638633
       8        0.000013409513     0.000001940562    -0.000002097918
       9        0.000578268504    -0.000808580257     0.000569295832
      10        0.000008601245    -0.000004601472     0.000007380191
      11       -0.000017656188    -0.000001478321     0.000000576414
      12       -0.000008214132     0.000001027677     0.000007981977
      13       -0.000000460708     0.000004296397     0.000000870544
      14        0.000001276706    -0.000003656863    -0.000003818573
      15        0.000001979656     0.000005337123     0.000000867913
      16        0.000003895837     0.000005017710     0.000001473979
      17        0.000000607275     0.000000365530    -0.000000468148
      18        0.000001260878    -0.000000844753    -0.000001289785
      19        0.000000698969    -0.000000939658     0.000001273916

  **** Optimization is complete! (in 6 steps) ****
    Final optimized geometry and variables:
    Molecular point group: c1

    Geometry (in Angstrom), charge = 0, multiplicity = 1:

    H            3.117136688003     1.383640129078     1.129033079051
    N            2.233098416134     0.924095400078     1.077212825498
    C            2.065068783062     0.271124827445    -0.212741945043
    H            1.534962692282     1.621244899945     1.225208351685
    C            0.834178821368    -0.626561659123    -0.243858692542
    H            2.943206874450    -0.338261907649    -0.392063482465
    H            2.009780094984     0.980374972742    -1.040617115688
    C           -0.495202893249     0.122090489282    -0.192991519095
    H            0.873041433291    -1.227945509724    -1.148496317069
    H            0.894027828869    -1.316551639466     0.592085284097
    C           -1.707134785374    -0.801646242335    -0.280674546878
    H           -0.535273140667     0.842408779013    -1.007699789350
    H           -0.559838373119     0.694153504282     0.728612345323
    C           -3.036174333863    -0.055977688530    -0.224580681422
    H           -1.654486032893    -1.374785557891    -1.202325428975
    H           -1.664804401663    -1.523948124443     0.529666262631
    H           -3.122971347757     0.651937464728    -1.042349889448
    H           -3.874059280869    -0.740576880587    -0.290406214024
    H           -3.134954059767     0.498600842653     0.702750571995

  Mulliken Charges: (a.u.)
   Center  Symbol    Alpha    Beta     Spin     Total
       1     H     0.42917  0.42917  0.00000  0.14166
       2     N     3.68928  3.68928  0.00000 -0.37856
       3     C     3.03956  3.03956  0.00000 -0.07913
       4     H     0.42997  0.42997  0.00000  0.14007
       5     C     3.08400  3.08400  0.00000 -0.16800
       6     H     0.45159  0.45159  0.00000  0.09683
       7     H     0.46530  0.46530  0.00000  0.06941
       8     C     3.09162  3.09162  0.00000 -0.18325
       9     H     0.45439  0.45439  0.00000  0.09123
      10     H     0.45185  0.45185  0.00000  0.09630
      11     C     3.08348  3.08348  0.00000 -0.16695
      12     H     0.45620  0.45620  0.00000  0.08759
      13     H     0.45610  0.45610  0.00000  0.08781
      14     C     3.14992  3.14992  0.00000 -0.29985
      15     H     0.45480  0.45480  0.00000  0.09040
      16     H     0.45314  0.45314  0.00000  0.09371
      17     H     0.45579  0.45579  0.00000  0.08842
      18     H     0.44847  0.44847  0.00000  0.10307
      19     H     0.45538  0.45538  0.00000  0.08924

   Total alpha = 25.00000, Total beta = 25.00000, Total charge =  0.00000
