  ==> Input File <==

--------------------------------------------------------------------------
set {
	reference rhf
	basis cc-pvtz
}

set_num_threads( 4 )
memory 2 gb

molecule MOL {
0 1

H	 1.918451	 1.612670	 0.527527
O	 1.039722	 1.264855	 0.551915
C	 1.050374	 0.054877	 0.000135
C	 -0.318151	 -0.570512	 0.000144
O	 2.038931	 -0.433478	 -0.426752
C	 -1.454884	 0.441630	 -0.000560
H	 -0.371613	 -1.223646	 -0.864985
H	 -0.371920	 -1.222758	 0.865929
C	 -2.822577	 -0.232186	 0.000063
H	 -1.359760	 1.084704	 -0.867077
H	 -1.359641	 1.085996	 0.864983
H	 -2.954352	 -0.858985	 -0.875745
H	 -3.615886	 0.505352	 0.000019
H	 -2.953878	 -0.858359	 0.876394

	symmetry c1
}
set optking {
	frozen_dihedral = ("
		2 3 4 7
	")
}

ee = optimize('scf')
oeprop('DIPOLE', 'QUADRUPOLE', 'MULLIKEN_CHARGES')
f=open( 'psi4out.xyz', 'w' )
f.write( "14  " )
f.write( str(ee) + "\n" )
f.write( MOL.save_string_xyz() )
f.close()
--------------------------------------------------------------------------

    Molecular point group: c1
  Charge       = 0
  Multiplicity = 1
  Basis Set: CC-PVTZ
  Basis Set:
  @DF-RHF Final Energy:  -305.99783998577499
    Total Energy =                       -305.9978399857748173
    Molecular point group: c1
  Basis Set: CC-PVTZ
  Basis Set:
  Basis Set: CC-PVTZ
  Basis Set:
  @DF-RHF Final Energy:  -305.99842929210399
    Total Energy =                       -305.9984292921039923
  Basis Set: CC-PVTZ
  Basis Set:
  Basis Set: CC-PVTZ
  Basis Set:
  @DF-RHF Final Energy:  -305.99859343205810
    Total Energy =                       -305.9985934320579304
  Basis Set: CC-PVTZ
  Basis Set:
  Basis Set: CC-PVTZ
  Basis Set:
  @DF-RHF Final Energy:  -305.99868269586875
    Total Energy =                       -305.9986826958688653
  Basis Set: CC-PVTZ
  Basis Set:
  Basis Set: CC-PVTZ
  Basis Set:
  @DF-RHF Final Energy:  -305.99870126463111
    Total Energy =                       -305.9987012646311655
  Basis Set: CC-PVTZ
  Basis Set:
  Basis Set: CC-PVTZ
  Basis Set:
  @DF-RHF Final Energy:  -305.99870309855231
    Total Energy =                       -305.9987030985522551
  Basis Set: CC-PVTZ
  Basis Set:
  Charge       = 0
  Multiplicity = 1
  Basis Set: CC-PVTZ
  Basis Set:

    Orbital Energies (a.u.)
    -----------------------

    Doubly Occupied:

       1A    -20.606685     2A    -20.537555     3A    -11.374132
       4A    -11.239888     5A    -11.229085     6A    -11.218011
       7A     -1.478978     8A     -1.368254     9A     -1.086581
      10A     -0.979556    11A     -0.848589    12A     -0.820109
      13A     -0.703961    14A     -0.684346    15A     -0.665365
      16A     -0.621662    17A     -0.593673    18A     -0.565274
      19A     -0.551454    20A     -0.526064    21A     -0.498661
      22A     -0.491885    23A     -0.473299    24A     -0.440102

  @DF-RHF Final Energy:  -305.99870336973055

   => Energetics <=

    Nuclear Repulsion Energy =            240.8724655666466674
    One-Electron Energy =                -894.5360032967648749
    Two-Electron Energy =                 347.6648343603876583
    DFT Exchange-Correlation Energy =       0.0000000000000000
    Empirical Dispersion Energy =           0.0000000000000000
    PCM Polarization Energy =               0.0000000000000000
    EFP Energy =                            0.0000000000000000
    Total Energy =                       -305.9987033697304923
    Molecular point group: c1
  Basis Set: CC-PVTZ
  Basis Set:

  -Total Gradient:
     Atom            X                  Y                   Z
    ------   -----------------  -----------------  -----------------
       1       -0.000011025210    -0.000022085155    -0.000011975775
       2       -0.000167128081     0.000337752804    -0.000659354675
       3        0.000163386667    -0.000247357971     0.000809806804
       4        0.000336886627    -0.000762383515     0.000343212400
       5       -0.000013707877    -0.000045372076     0.000002739102
       6       -0.000025842386     0.000027110612     0.000047283882
       7       -0.000287978006     0.000697000772    -0.000506299772
       8       -0.000001311260     0.000025064878    -0.000006130408
       9        0.000004676050    -0.000006990329    -0.000016758419
      10       -0.000000688889    -0.000007184193    -0.000003971711
      11        0.000000224145     0.000004775576     0.000000298985
      12       -0.000002007950    -0.000006063599     0.000002039739
      13        0.000003574722     0.000001362819    -0.000003615191
      14        0.000000941454     0.000004369376     0.000002725039

  **** Optimization is complete! (in 7 steps) ****
    Final optimized geometry and variables:
    Molecular point group: c1

    Geometry (in Angstrom), charge = 0, multiplicity = 1:

    H            2.070093720602     1.460014886364     0.471200452248
    O            1.169177014763     1.174188347941     0.498753262269
    C            1.104701775141    -0.043066534586    -0.028379605590
    C           -0.279369528420    -0.641284132058    -0.015790078792
    O            2.063722989464    -0.596700869426    -0.445015705637
    C           -1.442911350588     0.346785675073    -0.009811370249
    H           -0.332017378189    -1.297464394446    -0.874089134769
    H           -0.322713176860    -1.276491754858     0.864554173766
    C           -2.789973095496    -0.366856530310    -0.043603589668
    H           -1.360164707371     1.007158190216    -0.866572286242
    H           -1.382807465572     0.975986770560     0.868731673491
    H           -2.888851951914    -0.981080443101    -0.932128165716
    H           -3.605131168950     0.346535883151    -0.042183205634
    H           -2.913736727980    -1.012378112108     0.819556114539

  Mulliken Charges: (a.u.)
   Center  Symbol    Alpha    Beta     Spin     Total
       1     H     0.38243  0.38243  0.00000  0.23513
       2     O     4.15500  4.15500  0.00000 -0.31001
       3     C     2.81244  2.81244  0.00000  0.37512
       4     C     3.09294  3.09294  0.00000 -0.18587
       5     O     4.19567  4.19567  0.00000 -0.39133
       6     C     3.08595  3.08595  0.00000 -0.17190
       7     H     0.43519  0.43519  0.00000  0.12963
       8     H     0.44237  0.44237  0.00000  0.11525
       9     C     3.15118  3.15118  0.00000 -0.30237
      10     H     0.44865  0.44865  0.00000  0.10269
      11     H     0.44433  0.44433  0.00000  0.11133
      12     H     0.45379  0.45379  0.00000  0.09243
      13     H     0.44548  0.44548  0.00000  0.10904
      14     H     0.45457  0.45457  0.00000  0.09086

   Total alpha = 24.00000, Total beta = 24.00000, Total charge = -0.00000
