  ==> Input File <==

--------------------------------------------------------------------------
set {
	reference rhf
	basis 6-31G*
}

set_num_threads( 4 )
memory 2 gb

molecule MOL {
0 1

H	 -0.564533	 -1.557110	 0.438355
N	 -0.626943	 -0.667432	 -0.000092
C	 -1.884486	 -0.289651	 -0.603899
C	 0.469286	 0.129090	 0.000148
H	 -2.162557	 -0.984548	 -1.389266
H	 -1.771439	 0.693673	 -1.030540
H	 -2.678438	 -0.263734	 0.135019
C	 1.788933	 -0.616240	 -0.000037
O	 0.411098	 1.327768	 -0.000049
H	 1.872803	 -1.245775	 -0.880381
H	 2.595421	 0.101576	 0.003713
H	 1.870096	 -1.252171	 0.875943

	symmetry c1
}
set optking {
	frozen_dihedral = ("
		3 2 4 9
	")
}

ee = optimize('scf')
oeprop('DIPOLE', 'QUADRUPOLE', 'MULLIKEN_CHARGES')
f=open( 'psi4out.xyz', 'w' )
f.write( "12  " )
f.write( str(ee) + "\n" )
f.write( MOL.save_string_xyz() )
f.close()
--------------------------------------------------------------------------

    Molecular point group: c1
  Charge       = 0
  Multiplicity = 1
  Basis Set: 6-31G*
  Basis Set:
  @DF-RHF Final Energy:  -246.99586320502362
    Total Energy =                       -246.9958632050236247
    Molecular point group: c1
  Basis Set: 6-31G*
  Basis Set:
  Basis Set: 6-31G*
  Basis Set:
  @DF-RHF Final Energy:  -246.99857380538543
    Total Energy =                       -246.9985738053852629
  Basis Set: 6-31G*
  Basis Set:
  Basis Set: 6-31G*
  Basis Set:
  @DF-RHF Final Energy:  -247.00165102741025
    Total Energy =                       -247.0016510274100483
  Basis Set: 6-31G*
  Basis Set:
  Basis Set: 6-31G*
  Basis Set:
  @DF-RHF Final Energy:  -247.00212367275137
    Total Energy =                       -247.0021236727512246
  Basis Set: 6-31G*
  Basis Set:
  @DF-RHF Final Energy:  -247.00231355770720
    Total Energy =                       -247.0023135577072253
  @DF-RHF Final Energy:  -247.00236914018876
    Total Energy =                       -247.0023691401887618
  @DF-RHF Final Energy:  -247.00238188365003
    Total Energy =                       -247.0023818836502301
  @DF-RHF Final Energy:  -247.00253275469694
    Total Energy =                       -247.0025327546970857
  Basis Set: 6-31G*
  Basis Set:
  @DF-RHF Final Energy:  -247.00279128961810
    Total Energy =                       -247.0027912896179032
  Basis Set: 6-31G*
  Basis Set:
  Basis Set: 6-31G*
  Basis Set:
  @DF-RHF Final Energy:  -247.00283464257532
    Total Energy =                       -247.0028346425754080
  Basis Set: 6-31G*
  Basis Set:
  Basis Set: 6-31G*
  Basis Set:
  @DF-RHF Final Energy:  -247.00283814549914
    Total Energy =                       -247.0028381454987993
  Basis Set: 6-31G*
  Basis Set:
  Charge       = 0
  Multiplicity = 1
  Basis Set: 6-31G*
  Basis Set:

    Orbital Energies (a.u.)
    -----------------------

    Doubly Occupied:

       1A    -20.523419     2A    -15.580195     3A    -11.344619
       4A    -11.255280     5A    -11.231991     6A     -1.389969
       7A     -1.228395     8A     -1.016158     9A     -0.930798
      10A     -0.780002    11A     -0.690085    12A     -0.649121
      13A     -0.632682    14A     -0.588216    15A     -0.582656
      16A     -0.554267    17A     -0.546071    18A     -0.506860
      19A     -0.418831    20A     -0.390133

  @DF-RHF Final Energy:  -247.00283863314723

   => Energetics <=

    Nuclear Repulsion Energy =            181.2791873787548411
    One-Electron Energy =                -694.8845631122682107
    Two-Electron Energy =                 266.6025371003661917
    DFT Exchange-Correlation Energy =       0.0000000000000000
    Empirical Dispersion Energy =           0.0000000000000000
    PCM Polarization Energy =               0.0000000000000000
    EFP Energy =                            0.0000000000000000
    Total Energy =                       -247.0028386331471779
    Molecular point group: c1
  Basis Set: 6-31G*
  Basis Set:

  -Total Gradient:
     Atom            X                  Y                   Z
    ------   -----------------  -----------------  -----------------
       1       -0.000045419410     0.000015640825     0.000024142349
       2       -0.001380278704     0.007413558528     0.009597051099
       3        0.001117789422    -0.004145715181    -0.004189357059
       4       -0.000402908495    -0.005844044999    -0.012399509664
       5        0.000010136736     0.000012943953     0.000011090272
       6        0.000011916529    -0.000008381454     0.000016259660
       7       -0.000002522407     0.000013998059     0.000007019234
       8       -0.000007568957    -0.000004020258    -0.000029353185
       9        0.000690342132     0.002522372877     0.006957129259
      10        0.000001121869     0.000012491989     0.000004199286
      11        0.000010837615     0.000002546470     0.000000422229
      12       -0.000003446331     0.000008609184     0.000000906522

  **** Optimization is complete! (in 12 steps) ****
    Final optimized geometry and variables:
    Molecular point group: c1

    Geometry (in Angstrom), charge = 0, multiplicity = 1:

    H           -0.549304743597    -1.501881687463     0.579524790543
    N           -0.677632285415    -0.533983282040     0.380023378205
    C           -1.930014439524    -0.221384499581    -0.284653522127
    C            0.462799269427     0.138524118810     0.034233518852
    H           -1.945762787184    -0.566257625898    -1.314959775130
    H           -2.076798456690     0.847235997226    -0.276141018353
    H           -2.742663147976    -0.689715409715     0.255486625517
    C            1.751611266943    -0.618942089292     0.275669341585
    O            0.449671510092     1.266916611799    -0.365461760325
    H            1.898882701375    -1.351351837225    -0.513070782039
    H            2.577615598335     0.076651987078     0.264853026786
    H            1.730422375240    -1.145974893046     1.223633005528

  Mulliken Charges: (a.u.)
   Center  Symbol    Alpha    Beta     Spin     Total
       1     H     0.31655  0.31655  0.00000  0.36691
       2     N     3.87692  3.87692  0.00000 -0.75383
       3     C     3.14838  3.14838  0.00000 -0.29677
       4     C     2.63692  2.63692  0.00000  0.72617
       5     H     0.41854  0.41854  0.00000  0.16292
       6     H     0.39166  0.39166  0.00000  0.21668
       7     H     0.41374  0.41374  0.00000  0.17252
       8     C     3.29710  3.29710  0.00000 -0.59420
       9     O     4.29379  4.29379  0.00000 -0.58758
      10     H     0.40601  0.40601  0.00000  0.18798
      11     H     0.39204  0.39204  0.00000  0.21593
      12     H     0.40836  0.40836  0.00000  0.18328

   Total alpha = 20.00000, Total beta = 20.00000, Total charge =  0.00000
