                              Psi4 1.0.54 Driver

  ==> Input File <==

--------------------------------------------------------------------------
set {
	reference rhf
	basis cc-pvtz
}

set_num_threads( 4 )
memory 2 gb

molecule MOL {
0 1

H	 -2.432382	 -0.460771	 0.850705
O	 -2.313989	 -0.142475	 -0.025864
C	 -0.943808	 -0.065018	 -0.330000
H	 -0.812293	 -0.225641	 -1.398673
C	 -0.231030	 -1.182113	 0.407592
C	 -0.353797	 1.300461	 0.050970
H	 -0.312800	 -0.992012	 1.473041
H	 -0.738841	 -2.119564	 0.220514
C	 1.246176	 -1.268044	 -0.015480
H	 -0.539537	 2.008579	 -0.751815
H	 -0.889989	 1.662858	 0.920677
C	 1.153605	 1.231851	 0.356834
H	 1.823096	 -1.684665	 0.802361
H	 1.352335	 -1.958223	 -0.845114
C	 1.826409	 0.100723	 -0.416008
H	 1.622968	 2.181508	 0.128734
H	 1.301983	 1.066493	 1.419367
H	 2.897299	 0.112407	 -0.249665
H	 1.683458	 0.265621	 -1.480024

	symmetry c1
}
set optking {
	frozen_dihedral = ("
		1 2 3 4
	")
}

ee,wfn = optimize('scf', return_wfn=True)
oeprop( wfn, 'DIPOLE', 'QUADRUPOLE', 'MULLIKEN_CHARGES')
f=open( 'psi4out.xyz', 'w' )
f.write( "19  " )
f.write( str(ee) + "\n" )
f.write( MOL.save_string_xyz() )
f.close()
--------------------------------------------------------------------------

    Molecular point group: c1
  Charge       = 0
  Multiplicity = 1
  Basis Set: CC-PVTZ
  Basis Set:
  @DF-RHF Final Energy:  -309.16067438968156
    Total Energy =                       -309.1606743896814464
    Molecular point group: c1
  Basis Set: CC-PVTZ
  Basis Set:
  Basis Set: CC-PVTZ
  Basis Set:
  @DF-RHF Final Energy:  -309.16196606553245
    Total Energy =                       -309.1619660655323969
  Basis Set: CC-PVTZ
  Basis Set:
  Basis Set: CC-PVTZ
  Basis Set:
  @DF-RHF Final Energy:  -309.16232136414567
    Total Energy =                       -309.1623213641452139
  Basis Set: CC-PVTZ
  Basis Set:
  Basis Set: CC-PVTZ
  Basis Set:
  @DF-RHF Final Energy:  -309.16232611121882
    Total Energy =                       -309.1623261112189880
  Basis Set: CC-PVTZ
  Basis Set:
  Charge       = 0
  Multiplicity = 1
  Basis Set: CC-PVTZ
  Basis Set:

    Orbital Energies (a.u.)
    -----------------------

    Doubly Occupied:

       1A    -20.541883     2A    -11.267247     3A    -11.218413
       4A    -11.216337     5A    -11.215371     6A    -11.214502
       7A    -11.208687     8A     -1.362295     9A     -1.111659
      10A     -1.005452    11A     -0.989820    12A     -0.851418
      13A     -0.837374    14A     -0.751547    15A     -0.672600
      16A     -0.669907    17A     -0.622821    18A     -0.596215
      19A     -0.582328    20A     -0.559907    21A     -0.533032
      22A     -0.521596    23A     -0.502023    24A     -0.493560
      25A     -0.465517    26A     -0.450305    27A     -0.430780
      28A     -0.411328

  @DF-RHF Final Energy:  -309.16232657656536

   => Energetics <=

    Nuclear Repulsion Energy =            331.8179561059430966
    One-Electron Energy =               -1077.3527199069421840
    Two-Electron Energy =                 436.3724372244340088
    DFT Exchange-Correlation Energy =       0.0000000000000000
    Empirical Dispersion Energy =           0.0000000000000000
    PCM Polarization Energy =               0.0000000000000000
    EFP Energy =                            0.0000000000000000
    Total Energy =                       -309.1623265765651354
    Molecular point group: c1
  Basis Set: CC-PVTZ
  Basis Set:

  -Total Gradient:
     Atom            X                  Y                   Z
    ------   -----------------  -----------------  -----------------
       1       -0.000096528550    -0.001709453502    -0.000642137080
       2        0.000123594353     0.001782633063     0.000831743829
       3       -0.000092869290     0.001426337214    -0.000405334964
       4        0.000060101561    -0.001521274206     0.000252590018
       5       -0.000007493610    -0.000006164624    -0.000024365891
       6        0.000040505039    -0.000009638107     0.000008514118
       7       -0.000000786619    -0.000003463343    -0.000020122973
       8       -0.000000698823    -0.000006467075     0.000010284206
       9       -0.000019948189    -0.000015916563     0.000052030665
      10        0.000015194880     0.000021660823    -0.000008073735
      11        0.000007301261    -0.000008824919    -0.000008982521
      12       -0.000013579134     0.000031826756    -0.000029809860
      13        0.000017233961    -0.000025323543    -0.000003221866
      14       -0.000012011551     0.000003636032    -0.000002228399
      15       -0.000006341761     0.000023830019    -0.000020259288
      16       -0.000001851105     0.000015306238     0.000015442049
      17       -0.000007000435     0.000000988650     0.000000420705
      18       -0.000010133580    -0.000005553254     0.000001499694
      19        0.000005311593     0.000005860341    -0.000007988706

  **** Optimization is complete! (in 5 steps) ****
    Final optimized geometry and variables:
    Molecular point group: c1

    Geometry (in Angstrom), charge = 0, multiplicity = 1:

    H           -2.524381374713    -0.349935061217     0.786435487348
    O           -2.339085815603    -0.040759342549    -0.081655830691
    C           -0.951455590301    -0.045054347491    -0.310212225887
    H           -0.843668453017    -0.217453880504    -1.374888744370
    C           -0.243828008337    -1.179016222092     0.416681877203
    C           -0.327874567424     1.307249689874     0.059583018912
    H           -0.298704705555    -0.993060174620     1.487842752480
    H           -0.765483774202    -2.111186942226     0.233629227404
    C            1.227307814033    -1.290634055296    -0.023855496812
    H           -0.525703029420     2.014603938072    -0.737796149272
    H           -0.840528010341     1.684867327372     0.937634082935
    C            1.183901460128     1.211896654466     0.334623175700
    H            1.809981852645    -1.706849690408     0.790130927073
    H            1.309477725535    -1.991399491939    -0.846968170319
    C            1.819182707972     0.065585738577    -0.447487304961
    H            1.666231140423     2.151398665372     0.092262298648
    H            1.355213947221     1.048075700388     1.394543585763
    H            2.893852129195     0.058298964985    -0.307701609579
    H            1.652132623947     0.225716043287    -1.508449930399

  Mulliken Charges: (a.u.)
   Center  Symbol    Alpha    Beta     Spin     Total
       1     H     0.39376  0.39376  0.00000  0.21248
       2     O     4.20947  4.20947  0.00000 -0.41894
       3     C     2.93211  2.93211  0.00000  0.13577
       4     H     0.44567  0.44567  0.00000  0.10867
       5     C     3.11348  3.11348  0.00000 -0.22697
       6     C     3.10721  3.10721  0.00000 -0.21443
       7     H     0.45843  0.45843  0.00000  0.08315
       8     H     0.43961  0.43961  0.00000  0.12079
       9     C     3.11260  3.11260  0.00000 -0.22520
      10     H     0.44738  0.44738  0.00000  0.10523
      11     H     0.45154  0.45154  0.00000  0.09693
      12     C     3.10132  3.10132  0.00000 -0.20263
      13     H     0.44748  0.44748  0.00000  0.10503
      14     H     0.44553  0.44553  0.00000  0.10893
      15     C     3.10205  3.10205  0.00000 -0.20410
      16     H     0.44191  0.44191  0.00000  0.11618
      17     H     0.45477  0.45477  0.00000  0.09047
      18     H     0.44273  0.44273  0.00000  0.11453
      19     H     0.45295  0.45295  0.00000  0.09411

   Total alpha = 28.00000, Total beta = 28.00000, Total charge =  0.00000

*** Psi4 exiting successfully. Buy a developer a beer!
