                              Psi4 1.0.54 Driver

  ==> Input File <==

--------------------------------------------------------------------------
set {
	reference rhf
	basis cc-pvtz
}

set_num_threads( 4 )
memory 2 gb

molecule MOL {
0 1

H	 -1.940810	 1.756629	 1.094432
C	 -2.164397	 0.700898	 1.169665
C	 -0.888387	 -0.125095	 1.218114
H	 -2.767448	 0.433730	 0.312247
H	 -2.751617	 0.538141	 2.065537
C	 0.000000	 0.039916	 0.000014
H	 -1.116491	 -1.182831	 1.318410
H	 -0.297026	 0.128530	 2.093819
C	 1.286532	 -0.763243	 0.000268
O	 -0.294381	 0.755676	 -0.900767
C	 2.547023	 0.087626	 -0.000114
H	 1.264245	 -1.421103	 -0.864380
H	 1.264290	 -1.420353	 0.865489
H	 2.584452	 0.725630	 -0.872909
H	 3.427035	 -0.544422	 0.000125
H	 2.584484	 0.726356	 0.872143

	symmetry c1
}
set optking {
	frozen_dihedral = ("
		3 6 9 12
	")
}

ee,wfn = optimize('scf', return_wfn=True)
oeprop( wfn, 'DIPOLE', 'QUADRUPOLE', 'MULLIKEN_CHARGES')
f=open( 'psi4out.xyz', 'w' )
f.write( "16  " )
f.write( str(ee) + "\n" )
f.write( MOL.save_string_xyz() )
f.close()
--------------------------------------------------------------------------

    Molecular point group: c1
  Charge       = 0
  Multiplicity = 1
  Basis Set: CC-PVTZ
  Basis Set:
  @DF-RHF Final Energy:  -270.12929359491756
    Total Energy =                       -270.1292935949173284
    Molecular point group: c1
  Basis Set: CC-PVTZ
  Basis Set:
  Basis Set: CC-PVTZ
  Basis Set:
  @DF-RHF Final Energy:  -270.12996053080280
    Total Energy =                       -270.1299605308027481
  Basis Set: CC-PVTZ
  Basis Set:
  Basis Set: CC-PVTZ
  Basis Set:
  @DF-RHF Final Energy:  -270.12814695660825
    Total Energy =                       -270.1281469566081910
  Basis Set: CC-PVTZ
  Basis Set:
  Basis Set: CC-PVTZ
  Basis Set:
  @DF-RHF Final Energy:  -270.12982631525261
    Total Energy =                       -270.1298263152523305
  Basis Set: CC-PVTZ
  Basis Set:
  Basis Set: CC-PVTZ
  Basis Set:
  @DF-RHF Final Energy:  -270.13005194863854
    Total Energy =                       -270.1300519486385951
  Basis Set: CC-PVTZ
  Basis Set:
  Basis Set: CC-PVTZ
  Basis Set:
  @DF-RHF Final Energy:  -270.13005316342515
    Total Energy =                       -270.1300531634250888
  Basis Set: CC-PVTZ
  Basis Set:
  Charge       = 0
  Multiplicity = 1
  Basis Set: CC-PVTZ
  Basis Set:

    Orbital Energies (a.u.)
    -----------------------

    Doubly Occupied:

       1A    -20.537293     2A    -11.317735     3A    -11.233205
       4A    -11.230587     5A    -11.219961     6A    -11.211842
       7A     -1.398119     8A     -1.070173     9A     -1.037946
      10A     -0.914681    11A     -0.851824    12A     -0.727156
      13A     -0.667577    14A     -0.644125    15A     -0.624773
      16A     -0.602899    17A     -0.566647    18A     -0.537591
      19A     -0.529716    20A     -0.512819    21A     -0.503149
      22A     -0.497893    23A     -0.480085    24A     -0.398573

  @DF-RHF Final Energy:  -270.13005329231936

   => Energetics <=

    Nuclear Repulsion Energy =            240.5702480956383056
    One-Electron Energy =                -842.7678640945111965
    Two-Electron Energy =                 332.0675627065534741
    DFT Exchange-Correlation Energy =       0.0000000000000000
    Empirical Dispersion Energy =           0.0000000000000000
    PCM Polarization Energy =               0.0000000000000000
    EFP Energy =                            0.0000000000000000
    Total Energy =                       -270.1300532923193600
    Molecular point group: c1
  Basis Set: CC-PVTZ
  Basis Set:

  -Total Gradient:
     Atom            X                  Y                   Z
    ------   -----------------  -----------------  -----------------
       1        0.000000900229    -0.000004834964     0.000000704988
       2       -0.000010128986     0.000000159907    -0.000009392850
       3        0.000172483187     0.000201250649     0.000175888601
       4       -0.000002842103     0.000003287834     0.000001686087
       5       -0.000000807060     0.000000646878     0.000000474008
       6       -0.000175477724    -0.000238070706    -0.000298704194
       7       -0.000002275307     0.000001094866     0.000004323529
       8       -0.000000943596    -0.000006506529     0.000005538865
       9       -0.000190143053    -0.000244356918     0.000281415280
      10        0.000001683998     0.000006988199    -0.000001713100
      11       -0.000008809108     0.000004500241    -0.000003443130
      12        0.000210281299     0.000287484552    -0.000156771708
      13        0.000000131584    -0.000009807485     0.000000919386
      14        0.000004711692     0.000001682432     0.000002798368
      15       -0.000000255461    -0.000001530918     0.000001261534
      16        0.000001490410    -0.000001988037    -0.000004985665

  **** Optimization is complete! (in 7 steps) ****
    Final optimized geometry and variables:
    Molecular point group: c1

    Geometry (in Angstrom), charge = 0, multiplicity = 1:

    H           -1.910512631096     1.719124461848     0.911708446890
    C           -2.251524606193     0.695795511523     0.828617688668
    C           -1.081023289798    -0.272904234001     0.867429512801
    H           -2.795655951587     0.608650086922    -0.102315633131
    H           -2.934770506137     0.494846278432     1.645122221758
    C           -0.068552783855    -0.070502202825    -0.238345401149
    H           -1.423426420425    -1.303383549538     0.807503028532
    H           -0.545487075092    -0.203476207792     1.811620225973
    C            1.136370645382    -0.996485109042    -0.250996784823
    O           -0.192954750979     0.774075238257    -1.064574539058
    C            2.446992992661    -0.218251420102    -0.132936727582
    H            1.114897969287    -1.528016779224    -1.196124520275
    H            1.058881636986    -1.731784069825     0.540712380597
    H            2.529451399028     0.506282628707    -0.930856267314
    H            3.293531606215    -0.891300207717    -0.188485072500
    H            2.505248076035     0.311745000408     0.811510616841

  Mulliken Charges: (a.u.)
   Center  Symbol    Alpha    Beta     Spin     Total
       1     H     0.44790  0.44790  0.00000  0.10421
       2     C     3.14104  3.14104  0.00000 -0.28208
       3     C     3.10303  3.10303  0.00000 -0.20606
       4     H     0.44758  0.44758  0.00000  0.10484
       5     H     0.45080  0.45080  0.00000  0.09840
       6     C     2.86572  2.86572  0.00000  0.26856
       7     H     0.44504  0.44504  0.00000  0.10993
       8     H     0.44568  0.44568  0.00000  0.10865
       9     C     3.09497  3.09497  0.00000 -0.18993
      10     O     4.17759  4.17759  0.00000 -0.35517
      11     C     3.14511  3.14511  0.00000 -0.29021
      12     H     0.44294  0.44294  0.00000  0.11411
      13     H     0.44785  0.44785  0.00000  0.10431
      14     H     0.44053  0.44053  0.00000  0.11894
      15     H     0.44855  0.44855  0.00000  0.10290
      16     H     0.45569  0.45569  0.00000  0.08862

   Total alpha = 24.00000, Total beta = 24.00000, Total charge = -0.00000

*** Psi4 exiting successfully. Buy a developer a beer!
