  ==> Input File <==

--------------------------------------------------------------------------
set {
	reference rhf
	basis 6-31G*
}

set_num_threads( 1 )
memory 2 gb

molecule MOL {
0 1

O	 -1.983794	 -3.257841	 0.518266
C	 -1.252383	 -3.381306	 -0.416736
C	 -0.435540	 -2.206907	 -0.926502
C	 -1.076827	 -4.710108	 -1.117335
C	 0.802119	 -1.976128	 -0.044412
H	 -1.069875	 -1.327671	 -0.897081
H	 -0.132048	 -2.370815	 -1.956577
C	 1.631333	 -0.777471	 -0.511575
H	 0.467619	 -1.834156	 0.977027
H	 1.427101	 -2.867823	 -0.049497
C	 2.915987	 -0.544314	 0.291766
H	 1.016307	 0.119769	 -0.473784
H	 1.897402	 -0.921053	 -1.556773
C	 3.373361	 0.914346	 0.347591
H	 3.708709	 -1.142521	 -0.150311
H	 2.780642	 -0.921148	 1.303579
H	 3.506512	 1.320010	 -0.651625
H	 4.322697	 0.999599	 0.867103
H	 2.660624	 1.545032	 0.868198
H	 -1.465649	 -4.643269	 -2.130061
H	 -1.606062	 -5.484723	 -0.580058
H	 -0.024490	 -4.967737	 -1.194914

	symmetry c1
}
set optking {
	frozen_dihedral = ("
		6 3 2 1,
		6 3 5 8,
		3 5 8 12
	")
}

ee = energy('scf')
oeprop('DIPOLE', 'QUADRUPOLE', 'MULLIKEN_CHARGES')
f=open( 'psi4out.xyz', 'w' )
f.write( "22  " )
f.write( str(ee) + "\n" )
f.write( MOL.save_string_xyz() )
f.close()
--------------------------------------------------------------------------

    Molecular point group: c1

    Geometry (in Angstrom), charge = 0, multiplicity = 1:

       Center              X                  Y                   Z               Mass
    ------------   -----------------  -----------------  -----------------  -----------------
           O         -2.486774572452    -1.268750683651     0.745300091971    15.994914619560
           C         -1.755363572452    -1.392215683651    -0.189701908029    12.000000000000
           C         -0.938520572452    -0.217816683651    -0.699467908029    12.000000000000
           C         -1.579807572452    -2.721017683651    -0.890300908029    12.000000000000
           C          0.299138427548     0.012962316349     0.182622091971    12.000000000000
           H         -1.572855572452     0.661419316349    -0.670046908029     1.007825032070
           H         -0.635028572452    -0.381724683651    -1.729542908029     1.007825032070
           C          1.128352427548     1.211619316349    -0.284540908029    12.000000000000
           H         -0.035361572452     0.154934316349     1.204061091971     1.007825032070
           H          0.924120427548    -0.878732683651     0.177537091971     1.007825032070
           C          2.413006427548     1.444776316349     0.518800091971    12.000000000000
           H          0.513326427548     2.108859316349    -0.246749908029     1.007825032070
           H          1.394421427548     1.068037316349    -1.329738908029     1.007825032070
           C          2.870380427548     2.903436316349     0.574625091971    12.000000000000
           H          3.205728427548     0.846569316349     0.076723091971     1.007825032070
           H          2.277661427548     1.067942316349     1.530613091971     1.007825032070
           H          3.003531427548     3.309100316349    -0.424590908029     1.007825032070
           H          3.819716427548     2.988689316349     1.094137091971     1.007825032070
           H          2.157643427548     3.534122316349     1.095232091971     1.007825032070
           H         -1.968629572452    -2.654178683651    -1.903026908029     1.007825032070
           H         -2.109042572452    -3.495632683651    -0.353023908029     1.007825032070
           H         -0.527470572452    -2.978646683651    -0.967879908029     1.007825032070

  Charge       = 0
  Multiplicity = 1
  Basis Set: 6-31G*
  Basis Set:

    Orbital Energies (a.u.)
    -----------------------

    Doubly Occupied:

       1A    -20.547434     2A    -11.324610     3A    -11.230424
       4A    -11.229203     5A    -11.228282     6A    -11.221747
       7A    -11.220047     8A    -11.212832     9A     -1.393184
      10A     -1.094965    11A     -1.045033    12A     -1.001013
      13A     -0.939000    14A     -0.847344    15A     -0.797293
      16A     -0.732470    17A     -0.664634    18A     -0.645936
      19A     -0.630606    20A     -0.608185    21A     -0.596024
      22A     -0.582367    23A     -0.560305    24A     -0.554514
      25A     -0.529652    26A     -0.514969    27A     -0.500458
      28A     -0.485712    29A     -0.472315    30A     -0.465720
      31A     -0.459532    32A     -0.396347

  @DF-RHF Final Energy:  -348.09685695446831

   => Energetics <=

    Nuclear Repulsion Energy =            368.3386755085003870
    One-Electron Energy =               -1201.4068680090249472
    Two-Electron Energy =                 484.9713355460565936
    DFT Exchange-Correlation Energy =       0.0000000000000000
    Empirical Dispersion Energy =           0.0000000000000000
    PCM Polarization Energy =               0.0000000000000000
    EFP Energy =                            0.0000000000000000
    Total Energy =                       -348.0968569544679667

  Mulliken Charges: (a.u.)
   Center  Symbol    Alpha    Beta     Spin     Total
       1     O     4.26235  4.26235  0.00000 -0.52470
       2     C     2.73721  2.73721  0.00000  0.52558
       3     C     3.20047  3.20047  0.00000 -0.40095
       4     C     3.28957  3.28957  0.00000 -0.57915
       5     C     3.16329  3.16329  0.00000 -0.32657
       6     H     0.40103  0.40103  0.00000  0.19794
       7     H     0.41688  0.41688  0.00000  0.16624
       8     C     3.15238  3.15238  0.00000 -0.30475
       9     H     0.40503  0.40503  0.00000  0.18995
      10     H     0.42073  0.42073  0.00000  0.15855
      11     C     3.15370  3.15370  0.00000 -0.30741
      12     H     0.41958  0.41958  0.00000  0.16084
      13     H     0.42236  0.42236  0.00000  0.15527
      14     C     3.24037  3.24037  0.00000 -0.48074
      15     H     0.42153  0.42153  0.00000  0.15694
      16     H     0.42007  0.42007  0.00000  0.15986
      17     H     0.42155  0.42155  0.00000  0.15690
      18     H     0.41864  0.41864  0.00000  0.16271
      19     H     0.41961  0.41961  0.00000  0.16079
      20     H     0.40691  0.40691  0.00000  0.18618
      21     H     0.39705  0.39705  0.00000  0.20590
      22     H     0.40968  0.40968  0.00000  0.18064

   Total alpha = 32.00000, Total beta = 32.00000, Total charge =  0.00000
