                              Psi4 1.0.54 Driver

  ==> Input File <==

--------------------------------------------------------------------------
set {
	reference rhf
	basis cc-pvtz
}

set_num_threads( 4 )
memory 2 gb

molecule MOL {
0 1

H	 4.735329	 2.719160	 -1.248221
C	 3.915075	 2.506580	 -1.924136
C	 2.801977	 1.741214	 -1.216640
H	 3.551233	 3.452406	 -2.310462
H	 4.313143	 1.939240	 -2.759281
C	 1.632273	 1.414203	 -2.142289
H	 2.445276	 2.324838	 -0.375756
H	 3.204981	 0.817077	 -0.808739
C	 0.505381	 0.642575	 -1.462882
H	 1.231635	 2.330654	 -2.557543
H	 1.996104	 0.821583	 -2.976682
C	 -0.320474	 1.457868	 -0.482196
H	 -0.191802	 0.273458	 -2.210848
H	 0.887719	 -0.239175	 -0.957065
C	 -1.180025	 0.697761	 0.509157
O	 -0.314697	 2.646554	 -0.498595
C	 -2.285431	 -0.137488	 -0.145671
H	 -1.612288	 1.428443	 1.179299
H	 -0.535257	 0.047025	 1.093976
C	 -3.646545	 0.082747	 0.508954
H	 -2.348635	 0.118247	 -1.199806
H	 -2.034895	 -1.192387	 -0.096473
C	 -4.757412	 -0.737227	 -0.138149
H	 -3.900211	 1.137405	 0.459735
H	 -3.580878	 -0.166775	 1.564416
H	 -4.867876	 -0.486707	 -1.187777
H	 -4.549650	 -1.800049	 -0.072540
H	 -5.709585	 -0.556397	 0.346597

	symmetry c1
}
set optking {
	frozen_dihedral = ("
		12 15 17 21
	")
}

ee,wfn = optimize('scf', return_wfn=True)
oeprop( wfn, 'DIPOLE', 'QUADRUPOLE', 'MULLIKEN_CHARGES')
f=open( 'psi4out.xyz', 'w' )
f.write( "28  " )
f.write( str(ee) + "\n" )
f.write( MOL.save_string_xyz() )
f.close()
--------------------------------------------------------------------------

    Molecular point group: c1
  Charge       = 0
  Multiplicity = 1
  Basis Set: CC-PVTZ
  Basis Set:
  @DF-RHF Final Energy:  -426.31500191610212
    Total Energy =                       -426.3150019161022328
    Molecular point group: c1
  Basis Set: CC-PVTZ
  Basis Set:
  Basis Set: CC-PVTZ
  Basis Set:
  @DF-RHF Final Energy:  -426.31536682157287
    Total Energy =                       -426.3153668215730931
  Basis Set: CC-PVTZ
  Basis Set:
  Basis Set: CC-PVTZ
  Basis Set:
  @DF-RHF Final Energy:  -426.31550218669463
    Total Energy =                       -426.3155021866944026
  Basis Set: CC-PVTZ
  Basis Set:
  Basis Set: CC-PVTZ
  Basis Set:
  @DF-RHF Final Energy:  -426.31553441483777
    Total Energy =                       -426.3155344148376571
  Basis Set: CC-PVTZ
  Basis Set:
  @DF-RHF Final Energy:  -426.31555436992505
    Total Energy =                       -426.3155543699250529
  @DF-RHF Final Energy:  -426.31560803443210
    Total Energy =                       -426.3156080344319889
  @DF-RHF Final Energy:  -426.31565381614405
    Total Energy =                       -426.3156538161442768
  @DF-RHF Final Energy:  -426.31577707619965
    Total Energy =                       -426.3157770761999927
  @DF-RHF Final Energy:  -426.31580812860943
    Total Energy =                       -426.3158081286093193
  Basis Set: CC-PVTZ
  Basis Set:
  @DF-RHF Final Energy:  -426.31583824405993
    Total Energy =                       -426.3158382440600462
  Basis Set: CC-PVTZ
  Basis Set:
  Basis Set: CC-PVTZ
  Basis Set:
  @DF-RHF Final Energy:  -426.31586421767361
    Total Energy =                       -426.3158642176731519
  Basis Set: CC-PVTZ
  Basis Set:
  Basis Set: CC-PVTZ
  Basis Set:
  @DF-RHF Final Energy:  -426.31586672996286
    Total Energy =                       -426.3158667299629769
  Basis Set: CC-PVTZ
  Basis Set:
  Charge       = 0
  Multiplicity = 1
  Basis Set: CC-PVTZ
  Basis Set:

    Orbital Energies (a.u.)
    -----------------------

    Doubly Occupied:

       1A    -20.536405     2A    -11.316721     3A    -11.229565
       4A    -11.228973     5A    -11.226023     6A    -11.221446
       7A    -11.214531     8A    -11.212015     9A    -11.208723
      10A    -11.202799    11A     -1.396688    12A     -1.092955
      13A     -1.077987    14A     -1.023247    15A     -0.990317
      16A     -0.908926    17A     -0.871389    18A     -0.808571
      19A     -0.798594    20A     -0.726934    21A     -0.672967
      22A     -0.643746    23A     -0.631515    24A     -0.618853
      25A     -0.608750    26A     -0.586957    27A     -0.580380
      28A     -0.573443    29A     -0.536492    30A     -0.533903
      31A     -0.528622    32A     -0.509786    33A     -0.501751
      34A     -0.479791    35A     -0.478766    36A     -0.472397
      37A     -0.468125    38A     -0.464293    39A     -0.456966
      40A     -0.393835

  @DF-RHF Final Energy:  -426.31586703044354

   => Energetics <=

    Nuclear Repulsion Energy =            532.3177342201267948
    One-Electron Energy =               -1633.1989135346418607
    Two-Electron Energy =                 674.5653122840711831
    DFT Exchange-Correlation Energy =       0.0000000000000000
    Empirical Dispersion Energy =           0.0000000000000000
    PCM Polarization Energy =               0.0000000000000000
    EFP Energy =                            0.0000000000000000
    Total Energy =                       -426.3158670304438829
    Molecular point group: c1
  Basis Set: CC-PVTZ
  Basis Set:

  -Total Gradient:
     Atom            X                  Y                   Z
    ------   -----------------  -----------------  -----------------
       1        0.000002080809    -0.000000152475    -0.000003424500
       2        0.000008082491    -0.000000515006     0.000004532604
       3       -0.000020719035     0.000025195353     0.000014814610
       4        0.000000686944    -0.000001627018     0.000002831077
       5        0.000000772991     0.000001015563    -0.000002011110
       6        0.000017589758     0.000006216486     0.000013887574
       7        0.000010174162    -0.000007682628    -0.000015682277
       8       -0.000000244471    -0.000001264700    -0.000001697216
       9       -0.000055090481    -0.000038056853    -0.000038959830
      10       -0.000005048217     0.000002093470     0.000001747713
      11       -0.000004021575    -0.000001241288    -0.000002165259
      12       -0.000938346227     0.001571840851     0.000408222242
      13        0.000009517016     0.000007531113     0.000015586484
      14        0.000018196495     0.000005651485     0.000024259885
      15        0.001547600327    -0.002617270465    -0.000821012784
      16        0.000033688900     0.000024331897     0.000007821232
      17       -0.002036869019     0.003051364945     0.001301727216
      18        0.000012425855    -0.000007701959     0.000014436919
      19        0.000020115065    -0.000003186186     0.000010549921
      20       -0.000005451695    -0.000023805441     0.000011452815
      21        0.001380000679    -0.002003114342    -0.000939596217
      22       -0.000009237035     0.000002765819     0.000007436157
      23        0.000004667271     0.000010339800    -0.000009832846
      24        0.000017297178    -0.000005780287     0.000007394483
      25        0.000002716183    -0.000001379186    -0.000010451622
      26       -0.000003119477    -0.000006155627    -0.000001459778
      27       -0.000000541038     0.000007283294     0.000002985769
      28       -0.000006923853     0.000003303388    -0.000003393263

  **** Optimization is complete! (in 13 steps) ****
    Final optimized geometry and variables:
    Molecular point group: c1

    Geometry (in Angstrom), charge = 0, multiplicity = 1:

    H            4.930033863260     2.132192335571    -0.925277091085
    C            4.131741571249     1.663301330877    -1.488962367377
    C            3.206432179420     0.867141665485    -0.575143496477
    H            3.587853870800     2.446740386235    -2.005470335367
    H            4.587414099128     1.026250886684    -2.240341132294
    C            2.077381027948     0.177850933805    -1.338609817661
    H            2.785317232714     1.526508099681     0.173545580471
    H            3.786677543209     0.116433196105    -0.043513459019
    C            1.131703155118    -0.627465937624    -0.453649378023
    H            1.505942302833     0.918588278767    -1.885695789575
    H            2.509221706999    -0.493261946238    -2.075527549713
    C            0.157816520804     0.191410427613     0.371663321823
    H            0.532853284088    -1.307520467070    -1.054988359317
    H            1.688660220891    -1.264429024194     0.229223792545
    C           -0.805612139008    -0.581313426944     1.250946279124
    O            0.110749451134     1.377631625438     0.312096207456
    C           -2.038523800965    -1.073854344763     0.454344023202
    H           -1.119157388045     0.096133504251     2.033237952911
    H           -0.300624191885    -1.418957077864     1.716638111111
    C           -3.359681578360    -0.789310730528     1.162224938403
    H           -2.051924991526    -0.618402896524    -0.531049822788
    H           -1.951907151121    -2.141387394641     0.278890962096
    C           -4.569601511163    -1.306536379772     0.392701005154
    H           -3.454914987486     0.281134477149     1.314630843549
    H           -3.338751538636    -1.239510862640     2.150896907422
    H           -4.632125879042    -0.850743013630    -0.589735817621
    H           -4.517814801869    -2.381557584085     0.255462432993
    H           -5.490660207235    -1.084686523149     0.918789771929

  Mulliken Charges: (a.u.)
   Center  Symbol    Alpha    Beta     Spin     Total
       1     H     0.44875  0.44875  0.00000  0.10251
       2     C     3.15171  3.15171  0.00000 -0.30341
       3     C     3.08333  3.08333  0.00000 -0.16667
       4     H     0.45224  0.45224  0.00000  0.09552
       5     H     0.45741  0.45741  0.00000  0.08518
       6     C     3.08789  3.08789  0.00000 -0.17577
       7     H     0.44341  0.44341  0.00000  0.11317
       8     H     0.45894  0.45894  0.00000  0.08212
       9     C     3.12715  3.12715  0.00000 -0.25430
      10     H     0.44659  0.44659  0.00000  0.10683
      11     H     0.44811  0.44811  0.00000  0.10379
      12     C     2.86758  2.86758  0.00000  0.26485
      13     H     0.43262  0.43262  0.00000  0.13477
      14     H     0.44266  0.44266  0.00000  0.11469
      15     C     3.10068  3.10068  0.00000 -0.20135
      16     O     4.18099  4.18099  0.00000 -0.36198
      17     C     3.09512  3.09512  0.00000 -0.19024
      18     H     0.43932  0.43932  0.00000  0.12137
      19     H     0.44322  0.44322  0.00000  0.11357
      20     C     3.08404  3.08404  0.00000 -0.16808
      21     H     0.45067  0.45067  0.00000  0.09865
      22     H     0.45050  0.45050  0.00000  0.09900
      23     C     3.15049  3.15049  0.00000 -0.30098
      24     H     0.44778  0.44778  0.00000  0.10444
      25     H     0.45275  0.45275  0.00000  0.09449
      26     H     0.45345  0.45345  0.00000  0.09309
      27     H     0.45565  0.45565  0.00000  0.08870
      28     H     0.44698  0.44698  0.00000  0.10605

   Total alpha = 40.00000, Total beta = 40.00000, Total charge =  0.00000

*** Psi4 exiting successfully. Buy a developer a beer!
