  ==> Input File <==

--------------------------------------------------------------------------
set {
	reference rhf
	basis cc-pvtz
}

set_num_threads( 4 )
memory 2 gb

molecule MOL {
0 1

H	 1.088875	 1.775634	 -0.461871
O	 0.275345	 1.295056	 -0.487956
C	 0.489979	 0.078084	 0.002623
C	 -0.763662	 -0.754014	 0.000816
O	 1.551943	 -0.267479	 0.390863
C	 -2.038001	 0.074705	 -0.000833
H	 -0.712945	 -1.405886	 -0.864342
H	 -0.715137	 -1.405770	 0.866182
H	 -2.087267	 0.710831	 -0.874232
H	 -2.903419	 -0.576199	 -0.001922
H	 -2.089467	 0.710909	 0.872389

	symmetry c1
}
set optking {
	frozen_dihedral = ("
		2 3 4 7
	")
}

ee = optimize('scf')
oeprop('DIPOLE', 'QUADRUPOLE', 'MULLIKEN_CHARGES')
f=open( 'psi4out.xyz', 'w' )
f.write( "11  " )
f.write( str(ee) + "\n" )
f.write( MOL.save_string_xyz() )
f.close()
--------------------------------------------------------------------------

    Molecular point group: c1
  Charge       = 0
  Multiplicity = 1
  Basis Set: CC-PVTZ
  Basis Set:
  @DF-RHF Final Energy:  -266.94987084168577
    Total Energy =                       -266.9498708416857653
    Molecular point group: c1
  Basis Set: CC-PVTZ
  Basis Set:
  Basis Set: CC-PVTZ
  Basis Set:
  @DF-RHF Final Energy:  -266.95028860935707
    Total Energy =                       -266.9502886093571306
  Basis Set: CC-PVTZ
  Basis Set:
  Basis Set: CC-PVTZ
  Basis Set:
  @DF-RHF Final Energy:  -266.95075560796352
    Total Energy =                       -266.9507556079632877
  Basis Set: CC-PVTZ
  Basis Set:
  Basis Set: CC-PVTZ
  Basis Set:
  @DF-RHF Final Energy:  -266.95080653872969
    Total Energy =                       -266.9508065387296938
  Basis Set: CC-PVTZ
  Basis Set:
  Basis Set: CC-PVTZ
  Basis Set:
  @DF-RHF Final Energy:  -266.95080458104559
    Total Energy =                       -266.9508045810458725
  Basis Set: CC-PVTZ
  Basis Set:
  Charge       = 0
  Multiplicity = 1
  Basis Set: CC-PVTZ
  Basis Set:

    Orbital Energies (a.u.)
    -----------------------

    Doubly Occupied:

       1A    -20.607452     2A    -20.537904     3A    -11.374743
       4A    -11.243069     5A    -11.223969     6A     -1.479637
       7A     -1.368946     8A     -1.067695     9A     -0.911296
      10A     -0.826098    11A     -0.705941    12A     -0.679746
      13A     -0.660515    14A     -0.601355    15A     -0.590377
      16A     -0.555387    17A     -0.525868    18A     -0.515985
      19A     -0.476702    20A     -0.443394

  @DF-RHF Final Energy:  -266.95081136312990

   => Energetics <=

    Nuclear Repulsion Energy =            180.4033409339327534
    One-Electron Energy =                -721.9161434302113776
    Two-Electron Energy =                 274.5619911331486946
    DFT Exchange-Correlation Energy =       0.0000000000000000
    Empirical Dispersion Energy =           0.0000000000000000
    PCM Polarization Energy =               0.0000000000000000
    EFP Energy =                            0.0000000000000000
    Total Energy =                       -266.9508113631299011
    Molecular point group: c1
  Basis Set: CC-PVTZ
  Basis Set:

  -Total Gradient:
     Atom            X                  Y                   Z
    ------   -----------------  -----------------  -----------------
       1       -0.000011178548    -0.000027783506     0.000003070970
       2       -0.000180661106     0.000276879474     0.000534771052
       3        0.000319294758    -0.000418630077    -0.000675659540
       4       -0.000408773240     0.000707950553    -0.000266640635
       5       -0.000011374457    -0.000018996919     0.000011098531
       6       -0.000005934441    -0.000016180314     0.000007291805
       7        0.000315823103    -0.000495716670     0.000388383423
       8       -0.000015389734    -0.000000383438     0.000001725337
       9        0.000009015852    -0.000003594747     0.000005269594
      10       -0.000014148780     0.000000471911    -0.000001696571
      11        0.000003326594    -0.000004016266    -0.000007613966

  **** Optimization is complete! (in 6 steps) ****
    Final optimized geometry and variables:
    Molecular point group: c1

    Geometry (in Angstrom), charge = 0, multiplicity = 1:

    H            1.258220909502     1.630921008136    -0.433924016113
    O            0.416655017064     1.200023642394    -0.448729772712
    C            0.571267058052    -0.028215553589     0.031463256627
    C           -0.694937931054    -0.847879240924     0.031366118314
    O            1.620893076896    -0.430099809141     0.400697428436
    C           -2.003246565181    -0.067094872342     0.026564893357
    H           -0.630140377183    -1.489449179033    -0.842160658021
    H           -0.628135754426    -1.502469497590     0.889338461284
    H           -2.096642768308     0.545703284655    -0.858949993465
    H           -2.838658528882    -0.755536406180     0.053303684542
    H           -2.077168783247     0.581978615799     0.890298443727

  Mulliken Charges: (a.u.)
   Center  Symbol    Alpha    Beta     Spin     Total
       1     H     0.38206  0.38206  0.00000  0.23589
       2     O     4.15549  4.15549  0.00000 -0.31099
       3     C     2.80630  2.80630  0.00000  0.38739
       4     C     3.09485  3.09485  0.00000 -0.18971
       5     O     4.19643  4.19643  0.00000 -0.39287
       6     C     3.14253  3.14253  0.00000 -0.28506
       7     H     0.44230  0.44230  0.00000  0.11539
       8     H     0.43444  0.43444  0.00000  0.13113
       9     H     0.44682  0.44682  0.00000  0.10636
      10     H     0.44888  0.44888  0.00000  0.10224
      11     H     0.44989  0.44989  0.00000  0.10023

   Total alpha = 20.00000, Total beta = 20.00000, Total charge = -0.00000
