  ==> Input File <==

--------------------------------------------------------------------------
set {
	reference rhf
	basis 6-31G*
}

set_num_threads( 1 )
memory 2 gb

molecule MOL {
0 1

H	 2.823636	 -0.178709	 1.267850
O	 3.527741	 -0.266637	 0.642090
C	 3.400574	 -1.485145	 -0.045748
C	 2.254724	 -1.490900	 -1.051591
H	 4.340740	 -1.631246	 -0.561904
H	 3.286428	 -2.309466	 0.657277
C	 0.869744	 -1.337936	 -0.418106
H	 2.419550	 -0.689110	 -1.766665
H	 2.296667	 -2.425814	 -1.607957
C	 -0.261821	 -1.401940	 -1.447807
H	 0.822995	 -0.391882	 0.114024
H	 0.722265	 -2.122836	 0.323866
C	 -1.674872	 -1.339452	 -0.856433
H	 -0.136950	 -0.594960	 -2.167555
H	 -0.165092	 -2.327639	 -2.011212
C	 -2.037799	 -0.007733	 -0.193645
H	 -2.388189	 -1.535280	 -1.654334
H	 -1.799008	 -2.146593	 -0.136051
C	 -3.489788	 0.042957	 0.286558
H	 -1.865437	 0.803394	 -0.899672
H	 -1.381434	 0.180308	 0.652599
C	 -4.216917	 1.317354	 -0.141063
H	 -4.025645	 -0.823308	 -0.095450
H	 -3.513059	 -0.038752	 1.371301
H	 -4.239342	 1.411634	 -1.223113
H	 -5.243387	 1.322503	 0.212445
H	 -3.726170	 2.201406	 0.256408

	symmetry c1
}
set optking {
	frozen_dihedral = ("
		14 10 7 4,
		14 10 13 16,
		10 7 4 8,
		8 4 3 2,
		10 13 16 20,
		4 3 2 1
	")
}

ee = energy('scf')
oeprop('DIPOLE', 'QUADRUPOLE', 'MULLIKEN_CHARGES')
f=open( 'psi4out.xyz', 'w' )
f.write( "27  " )
f.write( str(ee) + "\n" )
f.write( MOL.save_string_xyz() )
f.close()
--------------------------------------------------------------------------

    Molecular point group: c1

    Geometry (in Angstrom), charge = 0, multiplicity = 1:

       Center              X                  Y                   Z               Mass
    ------------   -----------------  -----------------  -----------------  -----------------
           H          2.956662364519     0.467409461157     1.601877019077     1.007825032070
           O          3.660767364519     0.379481461157     0.976117019077    15.994914619560
           C          3.533600364519    -0.839026538843     0.288279019077    12.000000000000
           C          2.387750364519    -0.844781538843    -0.717563980923    12.000000000000
           H          4.473766364519    -0.985127538843    -0.227876980923     1.007825032070
           H          3.419454364519    -1.663347538843     0.991304019077     1.007825032070
           C          1.002770364519    -0.691817538843    -0.084078980923    12.000000000000
           H          2.552576364519    -0.042991538843    -1.432637980923     1.007825032070
           H          2.429693364519    -1.779695538843    -1.273929980923     1.007825032070
           C         -0.128794635481    -0.755821538843    -1.113779980923    12.000000000000
           H          0.956021364519     0.254236461157     0.448051019077     1.007825032070
           H          0.855291364519    -1.476717538843     0.657893019077     1.007825032070
           C         -1.541845635481    -0.693333538843    -0.522405980923    12.000000000000
           H         -0.003923635481     0.051158461157    -1.833527980923     1.007825032070
           H         -0.032065635481    -1.681520538843    -1.677184980923     1.007825032070
           C         -1.904772635481     0.638385461157     0.140382019077    12.000000000000
           H         -2.255162635481    -0.889161538843    -1.320306980923     1.007825032070
           H         -1.665981635481    -1.500474538843     0.197976019077     1.007825032070
           C         -3.356761635481     0.689075461157     0.620585019077    12.000000000000
           H         -1.732410635481     1.449512461157    -0.565644980923     1.007825032070
           H         -1.248407635481     0.826426461157     0.986626019077     1.007825032070
           C         -4.083890635481     1.963472461157     0.192964019077    12.000000000000
           H         -3.892618635481    -0.177189538843     0.238577019077     1.007825032070
           H         -3.380032635481     0.607366461157     1.705328019077     1.007825032070
           H         -4.106315635481     2.057752461157    -0.889085980923     1.007825032070
           H         -5.110360635481     1.968621461157     0.546472019077     1.007825032070
           H         -3.593143635481     2.847524461157     0.590435019077     1.007825032070

  Charge       = 0
  Multiplicity = 1
  Basis Set: 6-31G*
  Basis Set:

    Orbital Energies (a.u.)
    -----------------------

    Doubly Occupied:

       1A    -20.552266     2A    -11.267007     3A    -11.219706
       4A    -11.216928     5A    -11.216030     6A    -11.215140
       7A    -11.214528     8A    -11.212859     9A    -11.209446
      10A     -1.359010    11A     -1.095242    12A     -1.061505
      13A     -1.011038    14A     -0.947941    15A     -0.888727
      16A     -0.821117    17A     -0.800717    18A     -0.778231
      19A     -0.693672    20A     -0.648839    21A     -0.637839
      22A     -0.614953    23A     -0.596892    24A     -0.589166
      25A     -0.580017    26A     -0.554865    27A     -0.540508
      28A     -0.528279    29A     -0.510313    30A     -0.490788
      31A     -0.483256    32A     -0.477300    33A     -0.468502
      34A     -0.458538    35A     -0.450451    36A     -0.440470
      37A     -0.422567

  @DF-RHF Final Energy:  -388.27638338263557

   => Energetics <=

    Nuclear Repulsion Energy =            459.7280858853798691
    One-Electron Energy =               -1437.4599664184202084
    Two-Electron Energy =                 589.4554971504052219
    DFT Exchange-Correlation Energy =       0.0000000000000000
    Empirical Dispersion Energy =           0.0000000000000000
    PCM Polarization Energy =               0.0000000000000000
    EFP Energy =                            0.0000000000000000
    Total Energy =                       -388.2763833826351174

  Mulliken Charges: (a.u.)
   Center  Symbol    Alpha    Beta     Spin     Total
       1     H     0.27993  0.27993  0.00000  0.44015
       2     O     4.37095  4.37095  0.00000 -0.74189
       3     C     2.99737  2.99737  0.00000  0.00525
       4     C     3.16089  3.16089  0.00000 -0.32177
       5     H     0.41445  0.41445  0.00000  0.17109
       6     H     0.43207  0.43207  0.00000  0.13587
       7     C     3.16321  3.16321  0.00000 -0.32641
       8     H     0.41497  0.41497  0.00000  0.17005
       9     H     0.42435  0.42435  0.00000  0.15130
      10     C     3.15254  3.15254  0.00000 -0.30507
      11     H     0.42296  0.42296  0.00000  0.15408
      12     H     0.42550  0.42550  0.00000  0.14900
      13     C     3.15593  3.15593  0.00000 -0.31186
      14     H     0.42158  0.42158  0.00000  0.15684
      15     H     0.42165  0.42165  0.00000  0.15670
      16     C     3.15539  3.15539  0.00000 -0.31079
      17     H     0.42091  0.42091  0.00000  0.15818
      18     H     0.42376  0.42376  0.00000  0.15247
      19     C     3.15368  3.15368  0.00000 -0.30737
      20     H     0.42104  0.42104  0.00000  0.15792
      21     H     0.42136  0.42136  0.00000  0.15727
      22     C     3.24029  3.24029  0.00000 -0.48059
      23     H     0.42054  0.42054  0.00000  0.15891
      24     H     0.42121  0.42121  0.00000  0.15759
      25     H     0.42165  0.42165  0.00000  0.15669
      26     H     0.42043  0.42043  0.00000  0.15914
      27     H     0.42138  0.42138  0.00000  0.15724

   Total alpha = 37.00000, Total beta = 37.00000, Total charge = -0.00000
