                              Psi4 1.0.54 Driver

  ==> Input File <==

--------------------------------------------------------------------------
set {
	reference rhf
	basis cc-pvtz
}

set_num_threads( 4 )
memory 2 gb

molecule MOL {
0 1

H	 2.262599	 2.526960	 -0.075470
N	 1.474232	 1.921212	 -0.160113
C	 1.860978	 0.530248	 0.016256
H	 1.084323	 2.070351	 -1.067350
C	 0.644130	 -0.381765	 -0.031064
H	 2.338429	 0.439538	 0.986163
H	 2.589332	 0.195353	 -0.723542
C	 -0.678115	 0.376691	 0.025731
H	 0.693998	 -0.977147	 -0.936845
H	 0.693309	 -1.082142	 0.800523
C	 -1.900706	 -0.535531	 -0.022488
H	 -0.725296	 1.079516	 -0.802982
H	 -0.715474	 0.974884	 0.933278
C	 -3.220513	 0.226854	 0.028039
H	 -1.865036	 -1.134397	 -0.928236
H	 -1.857948	 -1.236381	 0.806820
H	 -3.309098	 0.911849	 -0.808725
H	 -4.066838	 -0.449485	 -0.008086
H	 -3.301685	 0.809374	 0.939860

	symmetry c1
}
set optking {
	frozen_dihedral = ("
		6 3 5 9
	")
}

ee,wfn = optimize('scf', return_wfn=True)
oeprop( wfn, 'DIPOLE', 'QUADRUPOLE', 'MULLIKEN_CHARGES')
f=open( 'psi4out.xyz', 'w' )
f.write( "19  " )
f.write( str(ee) + "\n" )
f.write( MOL.save_string_xyz() )
f.close()
--------------------------------------------------------------------------

    Molecular point group: c1
  Charge       = 0
  Multiplicity = 1
  Basis Set: CC-PVTZ
  Basis Set:
  @DF-RHF Final Energy:  -251.43623789117584
    Total Energy =                       -251.4362378911760629
    Molecular point group: c1
  Basis Set: CC-PVTZ
  Basis Set:
  Basis Set: CC-PVTZ
  Basis Set:
  @DF-RHF Final Energy:  -251.43476514941966
    Total Energy =                       -251.4347651494197180
  Basis Set: CC-PVTZ
  Basis Set:
  Basis Set: CC-PVTZ
  Basis Set:
  @DF-RHF Final Energy:  -251.43932595457008
    Total Energy =                       -251.4393259545700516
  Basis Set: CC-PVTZ
  Basis Set:
  Basis Set: CC-PVTZ
  Basis Set:
  @DF-RHF Final Energy:  -251.43957377411061
    Total Energy =                       -251.4395737741106132
  Basis Set: CC-PVTZ
  Basis Set:
  Basis Set: CC-PVTZ
  Basis Set:
  @DF-RHF Final Energy:  -251.43959464350635
    Total Energy =                       -251.4395946435063252
  Basis Set: CC-PVTZ
  Basis Set:
  Basis Set: CC-PVTZ
  Basis Set:
  @DF-RHF Final Energy:  -251.43959785656864
    Total Energy =                       -251.4395978565685255
  Basis Set: CC-PVTZ
  Basis Set:
  Basis Set: CC-PVTZ
  Basis Set:
  @DF-RHF Final Energy:  -251.43959932662045
    Total Energy =                       -251.4395993266205096
  Basis Set: CC-PVTZ
  Basis Set:
  Charge       = 0
  Multiplicity = 1
  Basis Set: CC-PVTZ
  Basis Set:

    Orbital Energies (a.u.)
    -----------------------

    Doubly Occupied:

       1A    -15.527287     2A    -11.239276     3A    -11.208201
       4A    -11.207428     5A    -11.202973     6A    -11.201609
       7A     -1.177962     8A     -1.067645     9A     -0.993881
      10A     -0.905186    11A     -0.812902    12A     -0.777110
      13A     -0.668446    14A     -0.636747    15A     -0.617358
      16A     -0.582955    17A     -0.566467    18A     -0.548823
      19A     -0.527617    20A     -0.497710    21A     -0.476054
      22A     -0.463295    23A     -0.453440    24A     -0.446046
      25A     -0.380582

  @DF-RHF Final Energy:  -251.43959938038134

   => Energetics <=

    Nuclear Repulsion Energy =            249.6849548841376247
    One-Electron Energy =                -833.8751049471986789
    Two-Electron Energy =                 332.7505506826798864
    DFT Exchange-Correlation Energy =       0.0000000000000000
    Empirical Dispersion Energy =           0.0000000000000000
    PCM Polarization Energy =               0.0000000000000000
    EFP Energy =                            0.0000000000000000
    Total Energy =                       -251.4395993803811962
    Molecular point group: c1
  Basis Set: CC-PVTZ
  Basis Set:

  -Total Gradient:
     Atom            X                  Y                   Z
    ------   -----------------  -----------------  -----------------
       1        0.000009948768     0.000003562818     0.000000834924
       2        0.000000043069     0.000011201522    -0.000002741641
       3       -0.002436286553     0.003273322194     0.003679487887
       4       -0.000000987776     0.000002518338    -0.000001966153
       5       -0.002080681073     0.004496191808    -0.002414042296
       6        0.002392317305    -0.003491274415    -0.002705370822
       7       -0.000004212632     0.000005622231     0.000002039763
       8       -0.000008524452    -0.000000762495     0.000017686052
       9        0.002124238227    -0.004304565662     0.001452608805
      10        0.000001055821     0.000004164020    -0.000003888632
      11        0.000001457825     0.000002456364    -0.000028919151
      12       -0.000004279068    -0.000007686935    -0.000000995216
      13        0.000004338010     0.000005588320    -0.000000648090
      14        0.000001377365    -0.000000679685     0.000010614913
      15       -0.000004179399    -0.000005221347    -0.000003777684
      16        0.000004086217     0.000004154390    -0.000004297082
      17       -0.000000885742    -0.000003502314    -0.000001028670
      18        0.000003879009     0.000000459082     0.000004623752
      19       -0.000002704926     0.000004451763    -0.000000220658

  **** Optimization is complete! (in 8 steps) ****
    Final optimized geometry and variables:
    Molecular point group: c1

    Geometry (in Angstrom), charge = 0, multiplicity = 1:

    H            2.908846061532     1.846433462603     0.340747435176
    N            2.031465903284     1.439626615690     0.095195852991
    C            2.161118384529    -0.003795051982    -0.031255647699
    H            1.750669484041     1.853873918946    -0.768768245418
    C            0.823547160130    -0.742603583273    -0.259020418828
    H            2.628458323603    -0.382156400042     0.869776083475
    H            2.839527585370    -0.284074647199    -0.836927209354
    C           -0.449438238272     0.027744961573     0.078799727821
    H            0.781214788979    -1.107989150618    -1.281077165587
    H            0.842795886735    -1.644785162287     0.346272235569
    C           -1.705801178190    -0.821781836451    -0.094710565856
    H           -0.530261171604     0.911167149856    -0.546196330739
    H           -0.392881843283     0.391246402706     1.099127683646
    C           -2.988596001564    -0.063249337179     0.229650248442
    H           -1.755295602525    -1.190661654519    -1.116060686468
    H           -1.637877103541    -1.700121230430     0.541683095704
    H           -3.106188079116     0.800886074918    -0.415888821335
    H           -3.861759814986    -0.692923268513     0.100946582606
    H           -2.984281552438     0.291228790135     1.254989669606

  Mulliken Charges: (a.u.)
   Center  Symbol    Alpha    Beta     Spin     Total
       1     H     0.42914  0.42914  0.00000  0.14173
       2     N     3.68440  3.68440  0.00000 -0.36880
       3     C     3.03523  3.03523  0.00000 -0.07045
       4     H     0.43240  0.43240  0.00000  0.13520
       5     C     3.10611  3.10611  0.00000 -0.21222
       6     H     0.45557  0.45557  0.00000  0.08886
       7     H     0.46173  0.46173  0.00000  0.07654
       8     C     3.07438  3.07438  0.00000 -0.14876
       9     H     0.45222  0.45222  0.00000  0.09556
      10     H     0.45401  0.45401  0.00000  0.09198
      11     C     3.08470  3.08470  0.00000 -0.16940
      12     H     0.45890  0.45890  0.00000  0.08221
      13     H     0.44843  0.44843  0.00000  0.10314
      14     C     3.15002  3.15002  0.00000 -0.30004
      15     H     0.45677  0.45677  0.00000  0.08646
      16     H     0.45568  0.45568  0.00000  0.08864
      17     H     0.45590  0.45590  0.00000  0.08819
      18     H     0.44968  0.44968  0.00000  0.10065
      19     H     0.45474  0.45474  0.00000  0.09052

   Total alpha = 25.00000, Total beta = 25.00000, Total charge =  0.00000

*** Psi4 exiting successfully. Buy a developer a beer!
