                              Psi4 1.0.54 Driver

  ==> Input File <==

--------------------------------------------------------------------------
set {
	reference rhf
	basis cc-pvtz
}

set_num_threads( 4 )
memory 2 gb

molecule MOL {
0 1

O	 -1.278239	 1.034789	 -0.784693
C	 -1.204115	 0.062668	 -0.112312
C	 -2.386398	 -0.667698	 0.460323
O	 -0.068058	 -0.518372	 0.226882
H	 -2.382952	 -1.693172	 0.114333
H	 -3.296656	 -0.175702	 0.158400
H	 -2.312537	 -0.685191	 1.540100
C	 -0.038325	 -1.396599	 1.356765
C	 1.382792	 -1.363245	 1.882528
C	 -0.485236	 -2.786644	 0.941250
H	 -0.717450	 -1.005109	 2.098798
H	 1.663824	 -0.355911	 2.161902
H	 1.470156	 -1.997956	 2.756153
H	 2.078754	 -1.716570	 1.131040
H	 -0.451632	 -3.455924	 1.792975
H	 -1.498979	 -2.768004	 0.566250
H	 0.167645	 -3.181161	 0.170934

	symmetry c1
}
set optking {
	frozen_dihedral = ("
		8 4 2 1
	")
}

ee,wfn = optimize('scf', return_wfn=True)
oeprop( wfn, 'DIPOLE', 'QUADRUPOLE', 'MULLIKEN_CHARGES')
f=open( 'psi4out.xyz', 'w' )
f.write( "17  " )
f.write( str(ee) + "\n" )
f.write( MOL.save_string_xyz() )
f.close()
--------------------------------------------------------------------------

    Molecular point group: c1
  Charge       = 0
  Multiplicity = 1
  Basis Set: CC-PVTZ
  Basis Set:
  @DF-RHF Final Energy:  -345.00277212030016
    Total Energy =                       -345.0027721203002784
    Molecular point group: c1
  Basis Set: CC-PVTZ
  Basis Set:
  Basis Set: CC-PVTZ
  Basis Set:
  @DF-RHF Final Energy:  -345.01882082476715
    Total Energy =                       -345.0188208247671469
  Basis Set: CC-PVTZ
  Basis Set:
  Basis Set: CC-PVTZ
  Basis Set:
  @DF-RHF Final Energy:  -345.02512167567016
    Total Energy =                       -345.0251216756702206
  Basis Set: CC-PVTZ
  Basis Set:
  Basis Set: CC-PVTZ
  Basis Set:
  @DF-RHF Final Energy:  -345.02600361542568
    Total Energy =                       -345.0260036154253385
  Basis Set: CC-PVTZ
  Basis Set:
  @DF-RHF Final Energy:  -345.02361960675285
    Total Energy =                       -345.0236196067528454
  @DF-RHF Final Energy:  -345.02665449748531
    Total Energy =                       -345.0266544974851968
  @DF-RHF Final Energy:  -345.02646379425579
    Total Energy =                       -345.0264637942558466
  @DF-RHF Final Energy:  -345.02642020607840
    Total Energy =                       -345.0264202060782850
  @DF-RHF Final Energy:  -345.02701894964190
    Total Energy =                       -345.0270189496415014
  @DF-RHF Final Energy:  -345.02733051724789
    Total Energy =                       -345.0273305172477194
  @DF-RHF Final Energy:  -345.02754232346138
    Total Energy =                       -345.0275423234617165
  @DF-RHF Final Energy:  -345.02749977326312
    Total Energy =                       -345.0274997732631164
  Basis Set: CC-PVTZ
  Basis Set:
  @DF-RHF Final Energy:  -345.02784471299873
    Total Energy =                       -345.0278447129985011
  Basis Set: CC-PVTZ
  Basis Set:
  Basis Set: CC-PVTZ
  Basis Set:
  @DF-RHF Final Energy:  -345.02788905441696
    Total Energy =                       -345.0278890544171873
  Basis Set: CC-PVTZ
  Basis Set:
  Basis Set: CC-PVTZ
  Basis Set:
  @DF-RHF Final Energy:  -345.02789519136724
    Total Energy =                       -345.0278951913669516
  Basis Set: CC-PVTZ
  Basis Set:
  Charge       = 0
  Multiplicity = 1
  Basis Set: CC-PVTZ
  Basis Set:

    Orbital Energies (a.u.)
    -----------------------

    Doubly Occupied:

       1A    -20.587797     2A    -20.525283     3A    -11.367862
       4A    -11.302471     5A    -11.239739     6A    -11.225775
       7A    -11.223440     8A     -1.462508     9A     -1.364773
      10A     -1.079101    11A     -1.016589    12A     -0.957113
      13A     -0.861924    14A     -0.777865    15A     -0.700071
      16A     -0.668208    17A     -0.662014    18A     -0.619499
      19A     -0.597359    20A     -0.591513    21A     -0.561046
      22A     -0.558877    23A     -0.547224    24A     -0.530177
      25A     -0.510337    26A     -0.489837    27A     -0.442121
      28A     -0.434534

  @DF-RHF Final Energy:  -345.02789574760146

   => Energetics <=

    Nuclear Repulsion Energy =            322.1112783781586018
    One-Electron Energy =               -1108.4682352399602223
    Two-Electron Energy =                 441.3290611142000444
    DFT Exchange-Correlation Energy =       0.0000000000000000
    Empirical Dispersion Energy =           0.0000000000000000
    PCM Polarization Energy =               0.0000000000000000
    EFP Energy =                            0.0000000000000000
    Total Energy =                       -345.0278957476015194
    Molecular point group: c1
  Basis Set: CC-PVTZ
  Basis Set:

  -Total Gradient:
     Atom            X                  Y                   Z
    ------   -----------------  -----------------  -----------------
       1       -0.000557158157     0.001261000837     0.001756385997
       2        0.000767864903    -0.000855822903    -0.001776143029
       3       -0.000016409224    -0.000007752449    -0.000038505769
       4       -0.000035660484    -0.001934993803    -0.001197190895
       5       -0.000002699537     0.000006510368     0.000018411808
       6        0.000006364211    -0.000013081528     0.000008738487
       7       -0.000001839577     0.000005074158     0.000006475960
       8       -0.000160928278     0.001543163356     0.001233763924
       9       -0.000002767608     0.000002194762     0.000015541348
      10       -0.000004235076    -0.000021845278     0.000024533255
      11        0.000009267201    -0.000005413580     0.000013561236
      12       -0.000009810229     0.000008338280     0.000002513687
      13       -0.000001890351    -0.000004644764    -0.000002239255
      14        0.000023564250     0.000006686152    -0.000009457717
      15       -0.000012144500     0.000007948543    -0.000015307801
      16       -0.000012983831    -0.000013927577    -0.000027036975
      17        0.000011466286     0.000016565429    -0.000014044263

  **** Optimization is complete! (in 16 steps) ****
    Final optimized geometry and variables:
    Molecular point group: c1

    Geometry (in Angstrom), charge = 0, multiplicity = 1:

    O           -0.729646689297     1.594891431441    -1.532982191702
    C           -0.716670990916     0.629819036521    -0.854603661144
    C           -1.950377874474    -0.218259506983    -0.648450684766
    O            0.413843018102     0.261886373521    -0.264400487835
    H           -1.733475839843    -1.274630014643    -0.730630264683
    H           -2.672424979723     0.068071593603    -1.394949490607
    H           -2.374806983267    -0.033761077444     0.330984283643
    C            0.509374063751    -0.599047637548     0.863962044760
    C            1.192149241104     0.179711256252     1.973962358681
    C            1.280939476336    -1.840976553159     0.455454711465
    H           -0.478945380238    -0.884308346815     1.193360990391
    H            0.617027820035     1.059436739850     2.233578869865
    H            1.294813456777    -0.437983337808     2.858542114373
    H            2.177011592746     0.499873026368     1.658131260684
    H            1.393756169255    -2.510944173235     1.299541889684
    H            0.767930092485    -2.372994847440    -0.336298591151
    H            2.265568026830    -1.568380686897     0.096416077930

  Mulliken Charges: (a.u.)
   Center  Symbol    Alpha    Beta     Spin     Total
       1     O     4.18449  4.18449  0.00000 -0.36899
       2     C     2.82011  2.82011  0.00000  0.35978
       3     C     3.16758  3.16758  0.00000 -0.33516
       4     O     4.14178  4.14178  0.00000 -0.28356
       5     H     0.44719  0.44719  0.00000  0.10563
       6     H     0.42606  0.42606  0.00000  0.14789
       7     H     0.44607  0.44607  0.00000  0.10785
       8     C     2.94793  2.94793  0.00000  0.10414
       9     C     3.13440  3.13440  0.00000 -0.26879
      10     C     3.13784  3.13784  0.00000 -0.27568
      11     H     0.45159  0.45159  0.00000  0.09682
      12     H     0.44617  0.44617  0.00000  0.10766
      13     H     0.45433  0.45433  0.00000  0.09133
      14     H     0.44699  0.44699  0.00000  0.10601
      15     H     0.45272  0.45272  0.00000  0.09455
      16     H     0.44872  0.44872  0.00000  0.10256
      17     H     0.44602  0.44602  0.00000  0.10796

   Total alpha = 28.00000, Total beta = 28.00000, Total charge =  0.00000

*** Psi4 exiting successfully. Buy a developer a beer!
