                              Psi4 1.0.54 Driver

  ==> Input File <==

--------------------------------------------------------------------------
set {
	reference rhf
	basis cc-pvtz
}

set_num_threads( 4 )
memory 2 gb

molecule MOL {
0 1

H	 -2.303282	 -0.450495	 -1.624868
O	 -2.294770	 -0.257990	 -0.705211
C	 -1.161719	 0.497011	 -0.379157
C	 0.094859	 -0.350628	 -0.396803
H	 -1.039467	 1.342614	 -1.048588
H	 -1.318429	 0.887281	 0.616239
O	 1.172093	 0.457955	 -0.054438
H	 0.239661	 -0.780851	 -1.389192
H	 -0.013444	 -1.175792	 0.303875
C	 2.395478	 -0.199028	 -0.000366
H	 2.505946	 -0.901710	 -0.823354
H	 3.174616	 0.545641	 -0.071768
H	 2.513730	 -0.742241	 0.934223

	symmetry c1
}
set optking {
	frozen_dihedral = ("
		4 7 10 13
	")
}

ee,wfn = optimize('scf', return_wfn=True)
oeprop( wfn, 'DIPOLE', 'QUADRUPOLE', 'MULLIKEN_CHARGES')
f=open( 'psi4out.xyz', 'w' )
f.write( "13  " )
f.write( str(ee) + "\n" )
f.write( MOL.save_string_xyz() )
f.close()
--------------------------------------------------------------------------

    Molecular point group: c1
  Charge       = 0
  Multiplicity = 1
  Basis Set: CC-PVTZ
  Basis Set:
  @DF-RHF Final Energy:  -268.06143307305445
    Total Energy =                       -268.0614330730547294
    Molecular point group: c1
  Basis Set: CC-PVTZ
  Basis Set:
  Basis Set: CC-PVTZ
  Basis Set:
  @DF-RHF Final Energy:  -268.06147149089355
    Total Energy =                       -268.0614714908934388
  Basis Set: CC-PVTZ
  Basis Set:
  Charge       = 0
  Multiplicity = 1
  Basis Set: CC-PVTZ
  Basis Set:

    Orbital Energies (a.u.)
    -----------------------

    Doubly Occupied:

       1A    -20.555275     2A    -20.552810     3A    -11.269382
       4A    -11.267636     5A    -11.267359     6A     -1.390989
       7A     -1.369097     8A     -1.019728     9A     -0.914071
      10A     -0.842683    11A     -0.711636    12A     -0.676148
      13A     -0.662916    14A     -0.638111    15A     -0.598763
      16A     -0.570064    17A     -0.548448    18A     -0.490710
      19A     -0.483747    20A     -0.441597    21A     -0.423494

  @DF-RHF Final Energy:  -268.06147522587361

   => Energetics <=

    Nuclear Repulsion Energy =            190.4154858172675517
    One-Electron Energy =                -743.5645914857785783
    Two-Electron Energy =                 285.0876304426372485
    DFT Exchange-Correlation Energy =       0.0000000000000000
    Empirical Dispersion Energy =           0.0000000000000000
    PCM Polarization Energy =               0.0000000000000000
    EFP Energy =                            0.0000000000000000
    Total Energy =                       -268.0614752258738349
    Molecular point group: c1
  Basis Set: CC-PVTZ
  Basis Set:

  -Total Gradient:
     Atom            X                  Y                   Z
    ------   -----------------  -----------------  -----------------
       1        0.000016775677     0.000009390353     0.000004746555
       2        0.000048564865    -0.000013479796     0.000046227805
       3        0.000019362505     0.000033485018    -0.000011335981
       4        0.000259335284     0.000330515089    -0.001961037370
       5        0.000010989019     0.000006139379     0.000005358965
       6       -0.000035477030     0.000004472990     0.000002502681
       7       -0.000113205040    -0.000019126793     0.002894725536
       8       -0.000017453246    -0.000006533081     0.000009179640
       9        0.000001298163     0.000009413189     0.000018700476
      10       -0.001165985342    -0.002297459711    -0.001974017103
      11       -0.000017868919     0.000020605274    -0.000028061798
      12       -0.000023054677    -0.000011299355     0.000002566088
      13        0.001016718745     0.001933877444     0.000990444507

  **** Optimization is complete! (in 3 steps) ****
    Final optimized geometry and variables:
    Molecular point group: c1

    Geometry (in Angstrom), charge = 0, multiplicity = 1:

    H           -2.333963099048    -0.459049497919    -1.293171159007
    O           -2.321759492655    -0.267611093146    -0.373329233435
    C           -1.184402872205     0.482221166548    -0.050383053685
    C            0.068340434859    -0.370786215330    -0.073834649236
    H           -1.060396154434     1.327965876119    -0.719383003617
    H           -1.336277236396     0.872245906319     0.945851076283
    O            1.150554555864     0.436094712096     0.258081872030
    H            0.206102172903    -0.803177004078    -1.065748101045
    H           -0.040948699177    -1.194006255754     0.629304564762
    C            2.376297527390    -0.218762430610     0.319064480510
    H            2.499504677550    -0.918765981517    -0.502758650599
    H            3.154322564157     0.528936313903     0.254916812384
    H            2.494124725443    -0.750176745184     1.260040518953

  Mulliken Charges: (a.u.)
   Center  Symbol    Alpha    Beta     Spin     Total
       1     H     0.39408  0.39408  0.00000  0.21184
       2     O     4.20212  4.20212  0.00000 -0.40424
       3     C     2.97383  2.97383  0.00000  0.05234
       4     C     2.96510  2.96510  0.00000  0.06979
       5     H     0.46711  0.46711  0.00000  0.06578
       6     H     0.45256  0.45256  0.00000  0.09488
       7     O     4.17658  4.17658  0.00000 -0.35316
       8     H     0.48080  0.48080  0.00000  0.03839
       9     H     0.47062  0.47062  0.00000  0.05876
      10     C     3.03074  3.03074  0.00000 -0.06148
      11     H     0.47282  0.47282  0.00000  0.05435
      12     H     0.44806  0.44806  0.00000  0.10389
      13     H     0.46557  0.46557  0.00000  0.06886

   Total alpha = 21.00000, Total beta = 21.00000, Total charge = -0.00000

*** Psi4 exiting successfully. Buy a developer a beer!
