  ==> Input File <==

--------------------------------------------------------------------------
set {
	reference rhf
	basis cc-pvtz
}

set_num_threads( 4 )
memory 2 gb

molecule MOL {
0 1

O	 0.395927	 1.296676	 -0.000076
C	 0.503051	 0.114301	 -0.000074
C	 -0.701422	 -0.805636	 -0.000109
C	 1.858118	 -0.556123	 0.000212
C	 -0.691980	 -1.839310	 -1.115237
H	 -0.746714	 -1.286228	 0.973757
H	 -1.589968	 -0.182167	 -0.056777
H	 0.179653	 -2.476284	 -1.046332
H	 -1.576774	 -2.462014	 -1.058357
H	 -0.671081	 -1.362451	 -2.086010
H	 1.961106	 -1.191101	 -0.872843
H	 2.636688	 0.191085	 -0.000109
H	 1.961070	 -1.190284	 0.873873

	symmetry c1
}
set optking {
	frozen_dihedral = ("
		6 3 2 1
	")
}

ee = optimize('scf')
oeprop('DIPOLE', 'QUADRUPOLE', 'MULLIKEN_CHARGES')
f=open( 'psi4out.xyz', 'w' )
f.write( "13  " )
f.write( str(ee) + "\n" )
f.write( MOL.save_string_xyz() )
f.close()
--------------------------------------------------------------------------

    Molecular point group: c1
  Charge       = 0
  Multiplicity = 1
  Basis Set: CC-PVTZ
  Basis Set:
  @DF-RHF Final Energy:  -231.07995850234465
    Total Energy =                       -231.0799585023446525
    Molecular point group: c1
  Basis Set: CC-PVTZ
  Basis Set:
  Basis Set: CC-PVTZ
  Basis Set:
  @DF-RHF Final Energy:  -231.07917721079718
    Total Energy =                       -231.0791772107972690
  Basis Set: CC-PVTZ
  Basis Set:
  Basis Set: CC-PVTZ
  Basis Set:
  @DF-RHF Final Energy:  -231.08021669001107
    Total Energy =                       -231.0802166900112979
  Basis Set: CC-PVTZ
  Basis Set:
  Basis Set: CC-PVTZ
  Basis Set:
  @DF-RHF Final Energy:  -231.08088368539120
    Total Energy =                       -231.0808836853911998
  Basis Set: CC-PVTZ
  Basis Set:
  Basis Set: CC-PVTZ
  Basis Set:
  @DF-RHF Final Energy:  -231.08093636763465
    Total Energy =                       -231.0809363676346777
  Basis Set: CC-PVTZ
  Basis Set:
  Basis Set: CC-PVTZ
  Basis Set:
  @DF-RHF Final Energy:  -231.08095837219520
    Total Energy =                       -231.0809583721952549
  Basis Set: CC-PVTZ
  Basis Set:
  Basis Set: CC-PVTZ
  Basis Set:
  @DF-RHF Final Energy:  -231.08096708556786
    Total Energy =                       -231.0809670855681475
  Basis Set: CC-PVTZ
  Basis Set:
  Charge       = 0
  Multiplicity = 1
  Basis Set: CC-PVTZ
  Basis Set:

    Orbital Energies (a.u.)
    -----------------------

    Doubly Occupied:

       1A    -20.538371     2A    -11.320582     3A    -11.232485
       4A    -11.228453     5A    -11.227293     6A     -1.398231
       7A     -1.069101     8A     -0.995124     9A     -0.890036
      10A     -0.734185    11A     -0.655253    12A     -0.649338
      13A     -0.618544    14A     -0.592115    15A     -0.561050
      16A     -0.544507    17A     -0.530026    18A     -0.505754
      19A     -0.486396    20A     -0.402403

  @DF-RHF Final Energy:  -231.08096728244317

   => Energetics <=

    Nuclear Repulsion Energy =            177.2314785083299853
    One-Electron Energy =                -664.2663979670924164
    Two-Electron Energy =                 255.9539521763192624
    DFT Exchange-Correlation Energy =       0.0000000000000000
    Empirical Dispersion Energy =           0.0000000000000000
    PCM Polarization Energy =               0.0000000000000000
    EFP Energy =                            0.0000000000000000
    Total Energy =                       -231.0809672824431686
    Molecular point group: c1
  Basis Set: CC-PVTZ
  Basis Set:

  -Total Gradient:
     Atom            X                  Y                   Z
    ------   -----------------  -----------------  -----------------
       1        0.000025425666     0.000017213731     0.000417881115
       2       -0.000058514142     0.000038361141    -0.000564060636
       3        0.000286779911    -0.000381744899     0.000021652570
       4       -0.000006645878     0.000027503234     0.000017735410
       5       -0.000012730848    -0.000012480793    -0.000023615661
       6       -0.000233999963     0.000306855687     0.000137996246
       7        0.000005277388    -0.000002710816    -0.000002673326
       8       -0.000002665628     0.000009701766     0.000004632432
       9       -0.000001911996    -0.000001834506    -0.000000571600
      10        0.000001029139    -0.000003361619     0.000002855895
      11       -0.000003851114    -0.000001442860    -0.000006327373
      12        0.000005721793    -0.000003302129    -0.000001092382
      13       -0.000003914324     0.000007242065    -0.000004412690

  **** Optimization is complete! (in 8 steps) ****
    Final optimized geometry and variables:
    Molecular point group: c1

    Geometry (in Angstrom), charge = 0, multiplicity = 1:

    O            0.117119748393     1.661324245653     0.204659243911
    C            0.231876540619     0.479067848468     0.216259413436
    C           -0.984706227641    -0.425637717678     0.236969622168
    C            1.597260175938    -0.171373322601     0.230558847648
    C           -0.992577198208    -1.506021383331    -0.845125462266
    H           -1.023169376751    -0.892861672914     1.217921914230
    H           -1.853436306366     0.211100618159     0.147180777191
    H           -0.173155179570    -2.204308565485    -0.728786947173
    H           -1.914321047195    -2.071639095001    -0.797370865482
    H           -0.924523982598    -1.068694198073    -1.834735009796
    H            1.807828358318    -0.599189339929    -0.743343299257
    H            2.346175407423     0.571789949524     0.456942788668
    H            1.639784215622    -0.976351083513     0.955118836767

  Mulliken Charges: (a.u.)
   Center  Symbol    Alpha    Beta     Spin     Total
       1     O     4.17109  4.17109  0.00000 -0.34219
       2     C     2.85526  2.85526  0.00000  0.28947
       3     C     3.09797  3.09797  0.00000 -0.19595
       4     C     3.16166  3.16166  0.00000 -0.32332
       5     C     3.15669  3.15669  0.00000 -0.31338
       6     H     0.44913  0.44913  0.00000  0.10174
       7     H     0.43722  0.43722  0.00000  0.12556
       8     H     0.45259  0.45259  0.00000  0.09483
       9     H     0.44196  0.44196  0.00000  0.11607
      10     H     0.44723  0.44723  0.00000  0.10555
      11     H     0.44743  0.44743  0.00000  0.10513
      12     H     0.43246  0.43246  0.00000  0.13507
      13     H     0.44929  0.44929  0.00000  0.10142

   Total alpha = 20.00000, Total beta = 20.00000, Total charge = -0.00000
