  ==> Input File <==

--------------------------------------------------------------------------
set {
	reference rhf
	basis cc-pvtz
}

set_num_threads( 4 )
memory 2 gb

molecule MOL {
0 1

H	 -3.650000	 0.186000	 0.000000
C	 -2.576000	 0.118000	 0.000000
C	 -1.960000	 -1.125000	 0.000000
C	 -1.811000	 1.272000	 0.000000
H	 -2.554000	 -2.021000	 0.000000
C	 -0.581000	 -1.212000	 -0.000000
H	 -2.287000	 2.236000	 0.000000
C	 -0.428000	 1.183000	 -0.000000
H	 -0.090000	 -2.166000	 -0.000000
C	 0.199000	 -0.057000	 -0.000000
H	 0.151000	 2.088000	 -0.000000
C	 1.692000	 -0.209000	 -0.000000
C	 2.559000	 1.033000	 0.000000
O	 2.192000	 -1.295000	 0.000000
H	 2.363000	 1.642000	 -0.877000
H	 3.595000	 0.729000	 0.000000
H	 2.363000	 1.642000	 0.877000

	symmetry c1
}
ee = optimize('scf')
oeprop('DIPOLE', 'QUADRUPOLE', 'MULLIKEN_CHARGES')
f=open( 'psi4out.xyz', 'w' )
f.write( "17  " )
f.write( str(ee) + "\n" )
f.write( MOL.save_string_xyz() )
f.close()
--------------------------------------------------------------------------

    Molecular point group: c1
  Charge       = 0
  Multiplicity = 1
  Basis Set: CC-PVTZ
  Basis Set:
  @DF-RHF Final Energy:  -382.60563644511501
    Total Energy =                       -382.6056364451150102
    Molecular point group: c1
  Basis Set: CC-PVTZ
  Basis Set:
  Basis Set: CC-PVTZ
  Basis Set:
  @DF-RHF Final Energy:  -382.60581801082600
    Total Energy =                       -382.6058180108259421
  Basis Set: CC-PVTZ
  Basis Set:
  Charge       = 0
  Multiplicity = 1
  Basis Set: CC-PVTZ
  Basis Set:

    Orbital Energies (a.u.)
    -----------------------

    Doubly Occupied:

       1A    -20.540304     2A    -11.327763     3A    -11.246959
       4A    -11.244555     5A    -11.242557     6A    -11.238935
       7A    -11.238860     8A    -11.236578     9A    -11.228827
      10A     -1.401696    11A     -1.171200    12A     -1.053453
      13A     -1.030752    14A     -0.998794    15A     -0.864684
      16A     -0.838835    17A     -0.763544    18A     -0.713627
      19A     -0.658515    20A     -0.651968    21A     -0.628806
      22A     -0.609381    23A     -0.602642    24A     -0.601601
      25A     -0.554991    26A     -0.529093    27A     -0.522430
      28A     -0.503523    29A     -0.497785    30A     -0.414447
      31A     -0.351065    32A     -0.346790

  @DF-RHF Final Energy:  -382.60582457045109

   => Energetics <=

    Nuclear Repulsion Energy =            404.5136140562229912
    One-Electron Energy =               -1320.5289557223652537
    Two-Electron Energy =                 533.4095170956910579
    DFT Exchange-Correlation Energy =       0.0000000000000000
    Empirical Dispersion Energy =           0.0000000000000000
    PCM Polarization Energy =               0.0000000000000000
    EFP Energy =                            0.0000000000000000
    Total Energy =                       -382.6058245704512046
    Molecular point group: c1
  Basis Set: CC-PVTZ
  Basis Set:

  -Total Gradient:
     Atom            X                  Y                   Z
    ------   -----------------  -----------------  -----------------
       1        0.000032306025     0.000015632904     0.000000000030
       2        0.000007258685    -0.000130119922    -0.000000000132
       3       -0.000084539023     0.000078944710    -0.000000000184
       4        0.000110306964     0.000080924134    -0.000000000358
       5        0.000018820669     0.000020882463    -0.000000000093
       6        0.000018683929     0.000014046105     0.000000000740
       7       -0.000009009904    -0.000042197597    -0.000000000123
       8       -0.000137550634     0.000105488650     0.000000001106
       9        0.000001033346     0.000043766620     0.000000000053
      10        0.000190836503    -0.000243850833     0.000000005608
      11       -0.000020716453    -0.000053369734     0.000000000252
      12       -0.000274195225     0.000389296734    -0.000000022610
      13        0.000064766188    -0.000078662989     0.000000006905
      14        0.000104781177    -0.000225982956     0.000000008175
      15        0.000015545835     0.000006522729     0.000023497522
      16       -0.000053875552     0.000012154027     0.000000000577
      17        0.000015547470     0.000006524955    -0.000023497467

  **** Optimization is complete! (in 3 steps) ****
    Final optimized geometry and variables:
    Molecular point group: c1

    Geometry (in Angstrom), charge = 0, multiplicity = 1:

    H           -3.642952288031     0.223824015484     0.000000041575
    C           -2.571843924569     0.155000028274     0.000000023951
    C           -1.957579431356    -1.086132386388     0.000000019878
    C           -1.807159371019     1.303786482036     0.000000007075
    H           -2.551492452050    -1.979629769251     0.000000034119
    C           -0.582718905079    -1.174294196977    -0.000000004408
    H           -2.279933973446     2.266805741548     0.000000011079
    C           -0.427219308140     1.213405728001    -0.000000016668
    H           -0.094903177058    -2.127556213870    -0.000000008526
    C            0.196908932646    -0.024061723506    -0.000000027260
    H            0.151409901365     2.115253469356    -0.000000030188
    C            1.690041370523    -0.173233370372    -0.000000054851
    C            2.552151289446     1.068307886163     0.000000013848
    O            2.189215523946    -1.253134577570     0.000000019706
    H            2.352057174861     1.674379381795    -0.875568378235
    H            3.587462771748     0.766875943244     0.000000063782
    H            2.352057085932     1.674379344769     0.875568411302

  Mulliken Charges: (a.u.)
   Center  Symbol    Alpha    Beta     Spin     Total
       1     H     0.42018  0.42018  0.00000  0.15964
       2     C     3.07200  3.07200  0.00000 -0.14400
       3     C     3.07508  3.07508  0.00000 -0.15016
       4     C     3.07825  3.07825  0.00000 -0.15650
       5     H     0.42023  0.42023  0.00000  0.15953
       6     C     3.07342  3.07342  0.00000 -0.14683
       7     H     0.42240  0.42240  0.00000  0.15521
       8     C     3.08621  3.08621  0.00000 -0.17242
       9     H     0.40670  0.40670  0.00000  0.18660
      10     C     3.01374  3.01374  0.00000 -0.02749
      11     H     0.42141  0.42141  0.00000  0.15718
      12     C     2.83172  2.83172  0.00000  0.33656
      13     C     3.16802  3.16802  0.00000 -0.33603
      14     O     4.18447  4.18447  0.00000 -0.36894
      15     H     0.44721  0.44721  0.00000  0.10559
      16     H     0.43175  0.43175  0.00000  0.13650
      17     H     0.44721  0.44721  0.00000  0.10559

   Total alpha = 32.00000, Total beta = 32.00000, Total charge =  0.00000
