  ==> Input File <==

--------------------------------------------------------------------------
set {
	reference rhf
	basis 6-31G*
}

set_num_threads( 4 )
memory 2 gb

molecule MOL {
0 1

O	 -2.821601	 1.309235	 -0.001213
C	 -2.668563	 0.129746	 -0.000350
C	 -3.801572	 -0.864014	 -0.000442
O	 -1.481751	 -0.454642	 0.000584
H	 -4.417280	 -0.689587	 -0.874708
H	 -3.443784	 -1.883046	 -0.000565
H	 -4.417179	 -0.689832	 0.873954
C	 -0.334255	 0.388708	 0.000906
C	 0.891947	 -0.504646	 0.000751
H	 -0.365390	 1.025305	 -0.873475
H	 -0.365484	 1.024911	 0.875569
C	 2.191998	 0.301789	 0.000897
H	 0.855148	 -1.151283	 -0.871571
H	 0.855132	 -1.151660	 0.872805
C	 2.610516	 0.757851	 -1.398094
H	 2.079069	 1.173869	 0.642620
H	 2.990865	 -0.296017	 0.436239
C	 3.908303	 1.564458	 -1.397730
H	 1.813481	 1.355675	 -1.834463
H	 2.726063	 -0.112532	 -2.040085
H	 3.813254	 2.460194	 -0.790575
H	 4.178564	 1.873391	 -2.402595
H	 4.732744	 0.980865	 -0.998074

	symmetry c1
}
set optking {
	frozen_dihedral = ("
		16 12 9 13
	")
}

ee = optimize('scf')
oeprop('DIPOLE', 'QUADRUPOLE', 'MULLIKEN_CHARGES')
f=open( 'psi4out.xyz', 'w' )
f.write( "23  " )
f.write( str(ee) + "\n" )
f.write( MOL.save_string_xyz() )
f.close()
--------------------------------------------------------------------------

    Molecular point group: c1
  Charge       = 0
  Multiplicity = 1
  Basis Set: 6-31G*
  Basis Set:
  @DF-RHF Final Energy:  -422.97698327324275
    Total Energy =                       -422.9769832732426948
    Molecular point group: c1
  Basis Set: 6-31G*
  Basis Set:
  Basis Set: 6-31G*
  Basis Set:
  @DF-RHF Final Energy:  -422.97713292788939
    Total Energy =                       -422.9771329278895564
  Basis Set: 6-31G*
  Basis Set:
  Basis Set: 6-31G*
  Basis Set:
  @DF-RHF Final Energy:  -422.97714605714799
    Total Energy =                       -422.9771460571482748
  Basis Set: 6-31G*
  Basis Set:
  Basis Set: 6-31G*
  Basis Set:
  @DF-RHF Final Energy:  -422.97710067002470
    Total Energy =                       -422.9771006700245835
  Basis Set: 6-31G*
  Basis Set:
  Basis Set: 6-31G*
  Basis Set:
  @DF-RHF Final Energy:  -422.97716533480548
    Total Energy =                       -422.9771653348050222
  Basis Set: 6-31G*
  Basis Set:
  Charge       = 0
  Multiplicity = 1
  Basis Set: 6-31G*
  Basis Set:

    Orbital Energies (a.u.)
    -----------------------

    Doubly Occupied:

       1A    -20.602983     2A    -20.540593     3A    -11.374145
       4A    -11.281257     5A    -11.232413     6A    -11.224517
       7A    -11.223918     8A    -11.221595     9A    -11.212863
      10A     -1.467987    11A     -1.360760    12A     -1.093759
      13A     -1.040827    14A     -1.002691    15A     -0.930755
      16A     -0.847077    17A     -0.795267    18A     -0.779349
      19A     -0.688400    20A     -0.684683    21A     -0.672332
      22A     -0.633896    23A     -0.616293    24A     -0.586815
      25A     -0.577693    26A     -0.572466    27A     -0.561705
      28A     -0.530073    29A     -0.526988    30A     -0.506835
      31A     -0.495063    32A     -0.477288    33A     -0.469488
      34A     -0.462393    35A     -0.449188    36A     -0.435769

  @DF-RHF Final Energy:  -422.97716537343098

   => Energetics <=

    Nuclear Repulsion Energy =            454.8664073378438957
    One-Electron Energy =               -1477.3269047085259444
    Two-Electron Energy =                 599.4833319972512982
    DFT Exchange-Correlation Energy =       0.0000000000000000
    Empirical Dispersion Energy =           0.0000000000000000
    PCM Polarization Energy =               0.0000000000000000
    EFP Energy =                            0.0000000000000000
    Total Energy =                       -422.9771653734308074
    Molecular point group: c1
  Basis Set: 6-31G*
  Basis Set:

  -Total Gradient:
     Atom            X                  Y                   Z
    ------   -----------------  -----------------  -----------------
       1        0.000010194871    -0.000004998125     0.000034159974
       2       -0.000012034870     0.000000711529    -0.000083569469
       3       -0.000000538465    -0.000001559704     0.000034714015
       4       -0.000021403483     0.000032958125     0.000019984459
       5        0.000005269929     0.000001397923    -0.000003080102
       6       -0.000000142070    -0.000000071019     0.000000514312
       7       -0.000005541848    -0.000001378097    -0.000002997647
       8        0.000003871839    -0.000063939943     0.000020948451
       9        0.000995668992    -0.001568425153     0.000916519677
      10        0.000001490142    -0.000005679198    -0.000006606952
      11       -0.000004006897     0.000002076818    -0.000003249031
      12        0.000618371324    -0.001003425332     0.001703413636
      13       -0.000945260861     0.001501151438    -0.001050552536
      14       -0.000014135083    -0.000019168689    -0.000000141004
      15        0.000001437535     0.000032286942     0.000046894508
      16       -0.000687761342     0.001078867477    -0.001611984004
      17        0.000032269238     0.000011179304     0.000022948761
      18        0.000019982738    -0.000014128281    -0.000045453497
      19       -0.000007232476     0.000000568343     0.000010025345
      20        0.000001113133     0.000013640489     0.000007101140
      21       -0.000010246082    -0.000005337332    -0.000008533286
      22        0.000027522246     0.000006760794    -0.000008130618
      23       -0.000008888509     0.000006511689     0.000007073868

  **** Optimization is complete! (in 6 steps) ****
    Final optimized geometry and variables:
    Molecular point group: c1

    Geometry (in Angstrom), charge = 0, multiplicity = 1:

    O           -2.642480326244     1.008776447720     0.323503421101
    C           -2.486879579107    -0.170381537742     0.313220756227
    C           -3.617791509170    -1.166375333256     0.297252237040
    O           -1.298858680088    -0.752224311870     0.315217783391
    H           -4.229868644599    -0.983864191944    -0.577905854951
    H           -3.257849959080    -2.184607974366     0.287945193733
    H           -4.237757171869    -1.002825871649     1.170626129804
    C           -0.153090060557     0.093557670749     0.331294639462
    C            1.074451442236    -0.801478137798     0.326204538852
    H           -0.187905215578     0.744798645597    -0.531161541764
    H           -0.187070207072     0.714106731549     1.217064796276
    C            2.384856428574    -0.000234416780     0.300058225838
    H            1.017509101441    -1.452507268896    -0.541441725531
    H            1.036948681106    -1.436317360773     1.205659504047
    C            2.805008970948     0.456392032439    -1.101134873744
    H            2.289524183292     0.876262169145     0.939021298377
    H            3.181834174697    -0.604437155046     0.724329459015
    C            4.099280783917     1.268796685695    -1.094082201828
    H            2.013586529570     1.050299970072    -1.551894665598
    H            2.930444549766    -0.417135098052    -1.736874165737
    H            3.993068835426     2.171093709385    -0.498642054440
    H            4.381185884236     1.567258590356    -2.098875128966
    H            4.920767915375     0.693093957522    -0.677015938633

  Mulliken Charges: (a.u.)
   Center  Symbol    Alpha    Beta     Spin     Total
       1     O     4.28400  4.28400  0.00000 -0.56799
       2     C     2.61541  2.61541  0.00000  0.76919
       3     C     3.28779  3.28779  0.00000 -0.57557
       4     O     4.31242  4.31242  0.00000 -0.62484
       5     H     0.39752  0.39752  0.00000  0.20497
       6     H     0.39985  0.39985  0.00000  0.20029
       7     H     0.39749  0.39749  0.00000  0.20503
       8     C     2.99798  2.99798  0.00000  0.00404
       9     C     3.16607  3.16607  0.00000 -0.33215
      10     H     0.40971  0.40971  0.00000  0.18058
      11     H     0.41071  0.41071  0.00000  0.17858
      12     C     3.16320  3.16320  0.00000 -0.32640
      13     H     0.41360  0.41360  0.00000  0.17280
      14     H     0.41189  0.41189  0.00000  0.17622
      15     C     3.15357  3.15357  0.00000 -0.30714
      16     H     0.42093  0.42093  0.00000  0.15813
      17     H     0.41638  0.41638  0.00000  0.16725
      18     C     3.23977  3.23977  0.00000 -0.47954
      19     H     0.42134  0.42134  0.00000  0.15732
      20     H     0.42102  0.42102  0.00000  0.15795
      21     H     0.42049  0.42049  0.00000  0.15901
      22     H     0.41770  0.41770  0.00000  0.16461
      23     H     0.42116  0.42116  0.00000  0.15767

   Total alpha = 36.00000, Total beta = 36.00000, Total charge =  0.00000
