  ==> Input File <==

--------------------------------------------------------------------------
set {
	reference rhf
	basis 6-31G*
}

set_num_threads( 4 )
memory 2 gb

molecule MOL {
0 1

O	 -1.487788	 1.240889	 -0.102860
C	 -1.083277	 0.139568	 0.115197
C	 0.323299	 -0.082943	 0.642902
C	 -1.933017	 -1.084621	 -0.143902
C	 1.355627	 -0.005344	 -0.493127
H	 0.396251	 -1.044647	 1.143147
H	 0.528637	 0.693580	 1.371677
C	 2.177709	 -1.286493	 -0.619960
H	 0.850179	 0.193667	 -1.435565
H	 2.011634	 0.838489	 -0.306737
H	 2.902238	 -1.204591	 -1.423726
H	 1.543378	 -2.142588	 -0.831030
H	 2.721105	 -1.493959	 0.296951
H	 -1.393885	 -1.806447	 -0.750509
H	 -2.850323	 -0.799888	 -0.640100
H	 -2.169004	 -1.571158	 0.798858

	symmetry c1
}
set optking {
	frozen_dihedral = ("
		9 5 3 2
	")
}

ee = optimize('scf')
oeprop('DIPOLE', 'QUADRUPOLE', 'MULLIKEN_CHARGES')
f=open( 'psi4out.xyz', 'w' )
f.write( "16  " )
f.write( str(ee) + "\n" )
f.write( MOL.save_string_xyz() )
f.close()
--------------------------------------------------------------------------

    Molecular point group: c1
  Charge       = 0
  Multiplicity = 1
  Basis Set: 6-31G*
  Basis Set:
  @DF-RHF Final Energy:  -270.02403377597670
    Total Energy =                       -270.0240337759768181
    Molecular point group: c1
  Basis Set: 6-31G*
  Basis Set:
  Basis Set: 6-31G*
  Basis Set:
  @DF-RHF Final Energy:  -270.02426511928229
    Total Energy =                       -270.0242651192821768
  Basis Set: 6-31G*
  Basis Set:
  Basis Set: 6-31G*
  Basis Set:
  @DF-RHF Final Energy:  -270.02450280266271
    Total Energy =                       -270.0245028026627097
  Basis Set: 6-31G*
  Basis Set:
  Basis Set: 6-31G*
  Basis Set:
  @DF-RHF Final Energy:  -270.02468735106606
    Total Energy =                       -270.0246873510659498
  Basis Set: 6-31G*
  Basis Set:
  @DF-RHF Final Energy:  -270.02482210679511
    Total Energy =                       -270.0248221067950567
  @DF-RHF Final Energy:  -270.02486014803833
    Total Energy =                       -270.0248601480383854
  @DF-RHF Final Energy:  -270.02486932103409
    Total Energy =                       -270.0248693210342594
  Basis Set: 6-31G*
  Basis Set:
  @DF-RHF Final Energy:  -270.02487400313134
    Total Energy =                       -270.0248740031311740
  Basis Set: 6-31G*
  Basis Set:
  Basis Set: 6-31G*
  Basis Set:
  @DF-RHF Final Energy:  -270.02488299653601
    Total Energy =                       -270.0248829965361210
  Basis Set: 6-31G*
  Basis Set:
  Basis Set: 6-31G*
  Basis Set:
  @DF-RHF Final Energy:  -270.02488678950726
    Total Energy =                       -270.0248867895071498
  Basis Set: 6-31G*
  Basis Set:
  Charge       = 0
  Multiplicity = 1
  Basis Set: 6-31G*
  Basis Set:

    Orbital Energies (a.u.)
    -----------------------

    Doubly Occupied:

       1A    -20.547884     2A    -11.324668     3A    -11.236162
       4A    -11.229902     5A    -11.228323     6A    -11.222880
       7A     -1.393374     8A     -1.082508     9A     -1.011069
      10A     -0.952074    11A     -0.833801    12A     -0.735272
      13A     -0.655353    14A     -0.650291    15A     -0.613564
      16A     -0.598029    17A     -0.586818    18A     -0.560289
      19A     -0.541847    20A     -0.515403    21A     -0.502346
      22A     -0.483823    23A     -0.473755    24A     -0.397906

  @DF-RHF Final Energy:  -270.02488723020235

   => Energetics <=

    Nuclear Repulsion Energy =            238.2828594092558490
    One-Electron Energy =                -837.8608088772991778
    Two-Electron Energy =                 329.5530622378410044
    DFT Exchange-Correlation Energy =       0.0000000000000000
    Empirical Dispersion Energy =           0.0000000000000000
    PCM Polarization Energy =               0.0000000000000000
    EFP Energy =                            0.0000000000000000
    Total Energy =                       -270.0248872302023528
    Molecular point group: c1
  Basis Set: 6-31G*
  Basis Set:

  -Total Gradient:
     Atom            X                  Y                   Z
    ------   -----------------  -----------------  -----------------
       1       -0.000000293382    -0.000007999534     0.000010627771
       2       -0.000067621806    -0.000470876298    -0.000038250435
       3        0.000135501863     0.000826702123    -0.000044933311
       4       -0.000034156296    -0.000014691206     0.000067304789
       5       -0.000148811242    -0.001006638079     0.000040254013
       6       -0.000013020506    -0.000005135814     0.000017785831
       7        0.000001532857     0.000001980035     0.000002634305
       8        0.000012187509    -0.000004734917    -0.000008293317
       9        0.000081595156     0.000665890512     0.000005993625
      10        0.000008712114    -0.000003495113    -0.000001814885
      11        0.000004512472    -0.000006684198    -0.000002228010
      12       -0.000004370075     0.000012442596     0.000001509850
      13       -0.000002461753     0.000005459878    -0.000003314181
      14        0.000006591365     0.000005559512    -0.000014902430
      15        0.000007590954     0.000003919737    -0.000009713136
      16        0.000012510771    -0.000001699237    -0.000022660479

  **** Optimization is complete! (in 11 steps) ****
    Final optimized geometry and variables:
    Molecular point group: c1

    Geometry (in Angstrom), charge = 0, multiplicity = 1:

    O           -1.523293822861     1.420168918400     0.349161599491
    C           -0.974506680069     0.362974340286     0.282390396670
    C            0.471096113645     0.189469918592     0.708487227599
    C           -1.691866136086    -0.866718238536    -0.235159641484
    C            1.434479083664     0.119682875154    -0.507790046184
    H            0.558594406630    -0.718597880145     1.299377713078
    H            0.721538089372     1.025099026493     1.348512677092
    C            2.276923837937    -1.154629822524    -0.546499193341
    H            0.876418085055     0.209991393522    -1.435922961715
    H            2.090709306696     0.982348974071    -0.481873559758
    H            2.944668177044    -1.154593000916    -1.402053448728
    H            1.651418128314    -2.040376817911    -0.613738149755
    H            2.883989932802    -1.247263511573     0.349171927207
    H           -1.091060381644    -1.400204910079    -0.964702161502
    H           -2.637014638141    -0.581903839488    -0.676140508149
    H           -1.875737863816    -1.548668325598     0.590957311873

  Mulliken Charges: (a.u.)
   Center  Symbol    Alpha    Beta     Spin     Total
       1     O     4.25986  4.25986  0.00000 -0.51972
       2     C     2.74057  2.74057  0.00000  0.51885
       3     C     3.20398  3.20398  0.00000 -0.40797
       4     C     3.28958  3.28958  0.00000 -0.57916
       5     C     3.16300  3.16300  0.00000 -0.32600
       6     H     0.41302  0.41302  0.00000  0.17397
       7     H     0.39742  0.39742  0.00000  0.20517
       8     C     3.24158  3.24158  0.00000 -0.48316
       9     H     0.41426  0.41426  0.00000  0.17148
      10     H     0.40860  0.40860  0.00000  0.18279
      11     H     0.41587  0.41587  0.00000  0.16826
      12     H     0.42146  0.42146  0.00000  0.15708
      13     H     0.41783  0.41783  0.00000  0.16434
      14     H     0.40983  0.40983  0.00000  0.18034
      15     H     0.39665  0.39665  0.00000  0.20670
      16     H     0.40648  0.40648  0.00000  0.18703

   Total alpha = 24.00000, Total beta = 24.00000, Total charge = -0.00000
