  ==> Input File <==

--------------------------------------------------------------------------
set {
	reference rhf
	basis cc-pvtz
}

set_num_threads( 4 )
memory 2 gb

molecule MOL {
0 1

H	 -1.983162	 -0.812527	 -0.457075
O	 -2.041679	 -0.058866	 0.103463
C	 -0.959304	 0.780994	 -0.094939
C	 0.354905	 0.037902	 -0.006215
H	 -0.985899	 1.279578	 -1.057596
H	 -0.969809	 1.529522	 0.682889
F	 0.412060	 -0.931028	 -0.902708
F	 1.359641	 0.856111	 -0.239961
F	 0.545380	 -0.506387	 1.171682

	symmetry c1
}
set optking {
	frozen_dihedral = ("
		1 2 3 5
	")
}

ee = optimize('scf')
oeprop('DIPOLE', 'QUADRUPOLE', 'MULLIKEN_CHARGES')
f=open( 'psi4out.xyz', 'w' )
f.write( "9  " )
f.write( str(ee) + "\n" )
f.write( MOL.save_string_xyz() )
f.close()
--------------------------------------------------------------------------

    Molecular point group: c1
  Charge       = 0
  Multiplicity = 1
  Basis Set: CC-PVTZ
  Basis Set:
  @DF-RHF Final Energy:  -450.84676934241895
    Total Energy =                       -450.8467693424190088
    Molecular point group: c1
  Basis Set: CC-PVTZ
  Basis Set:
  Basis Set: CC-PVTZ
  Basis Set:
  @DF-RHF Final Energy:  -450.84680344960822
    Total Energy =                       -450.8468034496081600
  Basis Set: CC-PVTZ
  Basis Set:
  Basis Set: CC-PVTZ
  Basis Set:
  @DF-RHF Final Energy:  -450.84680990052789
    Total Energy =                       -450.8468099005278873
  Basis Set: CC-PVTZ
  Basis Set:
  Charge       = 0
  Multiplicity = 1
  Basis Set: CC-PVTZ
  Basis Set:

    Orbital Energies (a.u.)
    -----------------------

    Doubly Occupied:

       1A    -26.342896     2A    -26.342021     3A    -26.338201
       4A    -20.583085     5A    -11.496769     6A    -11.309832
       7A     -1.750632     8A     -1.647938     9A     -1.645379
      10A     -1.406557    11A     -1.051631    12A     -0.931849
      13A     -0.840411    14A     -0.838885    15A     -0.816577
      16A     -0.729539    17A     -0.721524    18A     -0.700546
      19A     -0.674071    20A     -0.668993    21A     -0.652008
      22A     -0.633914    23A     -0.625298    24A     -0.531862
      25A     -0.484451

  @DF-RHF Final Energy:  -450.84681040883606

   => Energetics <=

    Nuclear Repulsion Energy =            277.8608193131400412
    One-Electron Energy =               -1177.8855248903796564
    Two-Electron Energy =                 449.1778951684034382
    DFT Exchange-Correlation Energy =       0.0000000000000000
    Empirical Dispersion Energy =           0.0000000000000000
    PCM Polarization Energy =               0.0000000000000000
    EFP Energy =                            0.0000000000000000
    Total Energy =                       -450.8468104088361770
    Molecular point group: c1
  Basis Set: CC-PVTZ
  Basis Set:

  -Total Gradient:
     Atom            X                  Y                   Z
    ------   -----------------  -----------------  -----------------
       1        0.000978418085    -0.000956330498     0.001331251592
       2       -0.001485349908     0.001550696800    -0.001424046669
       3        0.001383494322    -0.001887386148    -0.000633629923
       4       -0.000096982039    -0.000067314659     0.000033020149
       5       -0.000839295027     0.001272916035     0.000717159822
       6        0.000004404542     0.000005224346     0.000006613651
       7        0.000015921013     0.000044598495     0.000085707206
       8        0.000057940031     0.000055332816    -0.000042593985
       9       -0.000018551020    -0.000017737188    -0.000073481839

  **** Optimization is complete! (in 4 steps) ****
    Final optimized geometry and variables:
    Molecular point group: c1

    Geometry (in Angstrom), charge = 0, multiplicity = 1:

    H           -1.997386679496    -0.805326229609    -0.476818709750
    O           -2.047486734538    -0.058985662954     0.094947248395
    C           -0.961217233749     0.778488560281    -0.095259718552
    C            0.355011372454     0.041254997130    -0.006555771505
    H           -0.992639128619     1.290435822976    -1.050974910354
    H           -0.974690056568     1.521889148612     0.687854703684
    F            0.407022243090    -0.940578357853    -0.890683722438
    F            1.356345815143     0.856620696585    -0.256640426336
    F            0.553646967379    -0.490625133348     1.176254170321

  Mulliken Charges: (a.u.)
   Center  Symbol    Alpha    Beta     Spin     Total
       1     H     0.38661  0.38661  0.00000  0.22679
       2     O     4.19309  4.19309  0.00000 -0.38618
       3     C     2.98441  2.98441  0.00000  0.03117
       4     C     2.68626  2.68626  0.00000  0.62748
       5     H     0.46363  0.46363  0.00000  0.07274
       6     H     0.44987  0.44987  0.00000  0.10026
       7     F     4.61809  4.61809  0.00000 -0.23618
       8     F     4.61058  4.61058  0.00000 -0.22116
       9     F     4.60746  4.60746  0.00000 -0.21492

   Total alpha = 25.00000, Total beta = 25.00000, Total charge = -0.00000
