                              Psi4 1.0.54 Driver

  ==> Input File <==

--------------------------------------------------------------------------
set {
	reference rhf
	basis cc-pvtz
}

set_num_threads( 4 )
memory 2 gb

molecule MOL {
0 1

H	 3.325266	 -1.368892	 -1.043588
O	 2.585649	 -1.416503	 -0.456736
C	 1.830548	 -0.337505	 -0.643862
C	 0.626018	 -0.337582	 0.258241
O	 2.110584	 0.495632	 -1.434624
C	 -0.267326	 0.883135	 0.076490
H	 0.095336	 -1.263269	 0.070257
H	 0.992763	 -0.407272	 1.277592
C	 -1.726822	 0.642622	 0.463839
H	 -0.210803	 1.217591	 -0.953497
H	 0.129920	 1.693110	 0.675679
C	 -2.480891	 -0.340606	 -0.429852
H	 -2.243098	 1.597649	 0.438609
H	 -1.776542	 0.301208	 1.495542
C	 -3.955933	 -0.460128	 -0.060472
H	 -2.393755	 -0.020485	 -1.464726
H	 -2.024244	 -1.323637	 -0.374360
H	 -4.467673	 -1.160944	 -0.709827
H	 -4.458917	 0.497287	 -0.144505
H	 -4.076458	 -0.806900	 0.960497

	symmetry c1
}
set optking {
	frozen_dihedral = ("
		7 4 6 10
	")
}

ee,wfn = optimize('scf', return_wfn=True)
oeprop( wfn, 'DIPOLE', 'QUADRUPOLE', 'MULLIKEN_CHARGES')
f=open( 'psi4out.xyz', 'w' )
f.write( "20  " )
f.write( str(ee) + "\n" )
f.write( MOL.save_string_xyz() )
f.close()
--------------------------------------------------------------------------

    Molecular point group: c1
  Charge       = 0
  Multiplicity = 1
  Basis Set: CC-PVTZ
  Basis Set:
  @DF-RHF Final Energy:  -384.09262233987687
    Total Energy =                       -384.0926223398770389
    Molecular point group: c1
  Basis Set: CC-PVTZ
  Basis Set:
  Basis Set: CC-PVTZ
  Basis Set:
  @DF-RHF Final Energy:  -384.03467565367907
    Total Energy =                       -384.0346756536789030
  Basis Set: CC-PVTZ
  Basis Set:
  Basis Set: CC-PVTZ
  Basis Set:
  @DF-RHF Final Energy:  -384.09026770325249
    Total Energy =                       -384.0902677032526071
  Basis Set: CC-PVTZ
  Basis Set:
  Basis Set: CC-PVTZ
  Basis Set:
  @DF-RHF Final Energy:  -384.09283290336043
    Total Energy =                       -384.0928329033598629
  Basis Set: CC-PVTZ
  Basis Set:
  @DF-RHF Final Energy:  -384.06249280180947
    Total Energy =                       -384.0624928018098103
  @DF-RHF Final Energy:  -384.09257246552005
    Total Energy =                       -384.0925724655196518
  @DF-RHF Final Energy:  -384.09262641897897
    Total Energy =                       -384.0926264189788526
  @DF-RHF Final Energy:  -384.09208344725846
    Total Energy =                       -384.0920834472588012
  Basis Set: CC-PVTZ
  Basis Set:
  @DF-RHF Final Energy:  -384.09302018955333
    Total Energy =                       -384.0930201895532718
  Basis Set: CC-PVTZ
  Basis Set:
  Basis Set: CC-PVTZ
  Basis Set:
  @DF-RHF Final Energy:  -384.09307797456012
    Total Energy =                       -384.0930779745598329
  Basis Set: CC-PVTZ
  Basis Set:
  Basis Set: CC-PVTZ
  Basis Set:
  @DF-RHF Final Energy:  -384.09308382470141
    Total Energy =                       -384.0930838247011820
  Basis Set: CC-PVTZ
  Basis Set:
  Charge       = 0
  Multiplicity = 1
  Basis Set: CC-PVTZ
  Basis Set:

    Orbital Energies (a.u.)
    -----------------------

    Doubly Occupied:

       1A    -20.604009     2A    -20.540855     3A    -11.373982
       4A    -11.238493     5A    -11.220394     6A    -11.218716
       7A    -11.217649     8A    -11.210103     9A     -1.477776
      10A     -1.369242    11A     -1.096542    12A     -1.041748
      13A     -0.962480    14A     -0.870769    15A     -0.816055
      16A     -0.779962    17A     -0.704066    18A     -0.694470
      19A     -0.664650    20A     -0.635846    21A     -0.606313
      22A     -0.596395    23A     -0.577367    24A     -0.558274
      25A     -0.535330    26A     -0.513133    27A     -0.496240
      28A     -0.484550    29A     -0.472894    30A     -0.467943
      31A     -0.456162    32A     -0.447274

  @DF-RHF Final Energy:  -384.09308407440886

   => Energetics <=

    Nuclear Repulsion Energy =            377.4682387420754708
    One-Electron Energy =               -1271.2232770697992237
    Two-Electron Energy =                 509.6619542533145477
    DFT Exchange-Correlation Energy =       0.0000000000000000
    Empirical Dispersion Energy =           0.0000000000000000
    PCM Polarization Energy =               0.0000000000000000
    EFP Energy =                            0.0000000000000000
    Total Energy =                       -384.0930840744091483
    Molecular point group: c1
  Basis Set: CC-PVTZ
  Basis Set:

  -Total Gradient:
     Atom            X                  Y                   Z
    ------   -----------------  -----------------  -----------------
       1       -0.000017044528    -0.000012650213     0.000013556720
       2        0.000020834292     0.000009458684    -0.000021521381
       3        0.000005677548     0.000054742114     0.000022879970
       4        0.000490322653     0.002815258795    -0.003164392773
       5       -0.000017993288    -0.000063400363    -0.000002336067
       6       -0.003246782441    -0.002482665780    -0.000508499138
       7        0.000128350294    -0.001897466289     0.002685223607
       8       -0.000006666478    -0.000000272016    -0.000011764887
       9       -0.000001850756    -0.000007534844    -0.000007751226
      10        0.002654929379     0.001566184918     0.000999478309
      11        0.000001638243    -0.000004457257    -0.000000633009
      12       -0.000007918860     0.000026627545     0.000002298587
      13        0.000006417295     0.000002000358    -0.000014611941
      14        0.000002048195     0.000003857447     0.000000718886
      15       -0.000009107019    -0.000023060107    -0.000004076967
      16       -0.000003236013     0.000015484984    -0.000004052956
      17       -0.000010692779     0.000004425698     0.000012155402
      18        0.000009761086    -0.000004309969     0.000008797825
      19        0.000004087889     0.000001096789    -0.000013796816
      20       -0.000002774720    -0.000003320493     0.000008327855

  **** Optimization is complete! (in 12 steps) ****
    Final optimized geometry and variables:
    Molecular point group: c1

    Geometry (in Angstrom), charge = 0, multiplicity = 1:

    H            3.093988272933    -0.233456906525    -2.142415160124
    O            2.528502556641    -0.669590728261    -1.523020015602
    C            1.781466927216     0.249035963404    -0.916885115502
    C            0.852643247907    -0.369761012942     0.091400271518
    O            1.873580903774     1.400209297411    -1.170344322927
    C           -0.021934145160     0.632186077442     0.843839568964
    H            0.267204194551    -1.123898153902    -0.420674619702
    H            1.474559196783    -0.930199849940     0.782249390748
    C           -1.288894793129     0.021256506211     1.443218495794
    H           -0.265321594371     1.461390196435     0.191834631952
    H            0.571200283938     1.065404190146     1.641818176255
    C           -2.379090859626    -0.312041527781     0.426015397833
    H           -1.696693749773     0.722040145338     2.165339705967
    H           -1.031867507246    -0.873718070612     2.006050120736
    C           -3.628999376514    -0.901479847645     1.071756284204
    H           -2.644441095056     0.591564757801    -0.115336634612
    H           -2.003115589711    -1.010225850895    -0.315220678845
    H           -4.388174378923    -1.119693730444     0.329696386160
    H           -4.058573872773    -0.213372701100     1.792039008350
    H           -3.401805019840    -1.825066209858     1.593853478184

  Mulliken Charges: (a.u.)
   Center  Symbol    Alpha    Beta     Spin     Total
       1     H     0.38255  0.38255  0.00000  0.23490
       2     O     4.16032  4.16032  0.00000 -0.32065
       3     C     2.80215  2.80215  0.00000  0.39571
       4     C     3.11409  3.11409  0.00000 -0.22818
       5     O     4.19078  4.19078  0.00000 -0.38156
       6     C     3.09709  3.09709  0.00000 -0.19419
       7     H     0.43736  0.43736  0.00000  0.12528
       8     H     0.43456  0.43456  0.00000  0.13088
       9     C     3.09875  3.09875  0.00000 -0.19749
      10     H     0.43936  0.43936  0.00000  0.12129
      11     H     0.44511  0.44511  0.00000  0.10977
      12     C     3.08474  3.08474  0.00000 -0.16948
      13     H     0.44531  0.44531  0.00000  0.10939
      14     H     0.45486  0.45486  0.00000  0.09028
      15     C     3.14997  3.14997  0.00000 -0.29994
      16     H     0.45122  0.45122  0.00000  0.09757
      17     H     0.45541  0.45541  0.00000  0.08917
      18     H     0.44748  0.44748  0.00000  0.10505
      19     H     0.45380  0.45380  0.00000  0.09241
      20     H     0.45510  0.45510  0.00000  0.08981

   Total alpha = 32.00000, Total beta = 32.00000, Total charge =  0.00000

*** Psi4 exiting successfully. Buy a developer a beer!
