  ==> Input File <==

--------------------------------------------------------------------------
set {
	reference rhf
	basis cc-pvtz
}

set_num_threads( 4 )
memory 2 gb

molecule MOL {
0 1

H	 2.122788	 0.067663	 -0.000275
C	 1.207832	 -0.484956	 -0.000152
C	 1.200234	 -1.865056	 -0.000177
C	 0.000000	 0.179985	 0.000046
H	 2.128939	 -2.400800	 -0.000331
C	 0.000000	 -2.552036	 -0.000007
N	 0.000000	 1.644631	 0.000076
C	 -1.207832	 -0.484956	 0.000215
H	 0.000000	 -3.625035	 -0.000032
C	 -1.200234	 -1.865056	 0.000188
O	 1.050559	 2.194174	 -0.000073
O	 -1.050559	 2.194174	 -0.000074
H	 -2.122788	 0.067663	 0.000370
H	 -2.128939	 -2.400800	 0.000316

	symmetry c1
}
set optking {
	frozen_dihedral = ("
		2 4 7 11
	")
}

ee = optimize('scf')
oeprop('DIPOLE', 'QUADRUPOLE', 'MULLIKEN_CHARGES')
f=open( 'psi4out.xyz', 'w' )
f.write( "14  " )
f.write( str(ee) + "\n" )
f.write( MOL.save_string_xyz() )
f.close()
--------------------------------------------------------------------------

    Molecular point group: c1
  Charge       = 0
  Multiplicity = 1
  Basis Set: CC-PVTZ
  Basis Set:
  @DF-RHF Final Energy:  -434.33008810127814
    Total Energy =                       -434.3300881012780792
    Molecular point group: c1
  Basis Set: CC-PVTZ
  Basis Set:
  Basis Set: CC-PVTZ
  Basis Set:
  @DF-RHF Final Energy:  -434.33008384204533
    Total Energy =                       -434.3300838420447008
  Basis Set: CC-PVTZ
  Basis Set:
  Basis Set: CC-PVTZ
  Basis Set:
  @DF-RHF Final Energy:  -434.33008772941173
    Total Energy =                       -434.3300877294119573
  Basis Set: CC-PVTZ
  Basis Set:
  Charge       = 0
  Multiplicity = 1
  Basis Set: CC-PVTZ
  Basis Set:

    Orbital Energies (a.u.)
    -----------------------

    Doubly Occupied:

       1A    -20.591683     2A    -20.591627     3A    -15.847791
       4A    -11.302390     5A    -11.267168     6A    -11.267127
       7A    -11.264854     8A    -11.258170     9A    -11.258037
      10A     -1.641202    11A     -1.423519    12A     -1.204489
      13A     -1.095644    14A     -1.054991    15A     -0.959450
      16A     -0.866950    17A     -0.828967    18A     -0.789566
      19A     -0.740815    20A     -0.735312    21A     -0.711446
      22A     -0.659883    23A     -0.651995    24A     -0.626424
      25A     -0.555134    26A     -0.540630    27A     -0.531289
      28A     -0.492063    29A     -0.491695    30A     -0.457741
      31A     -0.377784    32A     -0.369250

  @DF-RHF Final Energy:  -434.33008823650323

   => Energetics <=

    Nuclear Repulsion Energy =            418.2277835912344699
    One-Electron Energy =               -1420.2055764413571524
    Two-Electron Energy =                 567.6477046136194531
    DFT Exchange-Correlation Energy =       0.0000000000000000
    Empirical Dispersion Energy =           0.0000000000000000
    PCM Polarization Energy =               0.0000000000000000
    EFP Energy =                            0.0000000000000000
    Total Energy =                       -434.3300882365032294
    Molecular point group: c1
  Basis Set: CC-PVTZ
  Basis Set:

  -Total Gradient:
     Atom            X                  Y                   Z
    ------   -----------------  -----------------  -----------------
       1        0.000000798754    -0.000000454593    -0.000000187608
       2       -0.000006266642    -0.000002857735     0.000000480479
       3       -0.000003486176     0.000002969314    -0.000000176841
       4       -0.000000468008    -0.000001924950     0.000002159611
       5       -0.000000617212     0.000001403242     0.000000099294
       6       -0.000000019117     0.000002381399    -0.000000841535
       7        0.000007095763    -0.000000261757    -0.000008358525
       8        0.000006101216    -0.000003000243     0.000000566487
       9        0.000000014102     0.000001112407     0.000000475335
      10        0.000003487832     0.000002927264    -0.000000316735
      11       -0.000011095553    -0.000003168204     0.000002905180
      12        0.000004448676    -0.000000029715     0.000003300478
      13       -0.000000635586    -0.000000496830    -0.000000288734
      14        0.000000641946     0.000001400404     0.000000183115

  **** Optimization is complete! (in 4 steps) ****
    Final optimized geometry and variables:
    Molecular point group: c1

    Geometry (in Angstrom), charge = 0, multiplicity = 1:

    H            2.122713351137     0.067889774764    -0.000301090099
    C            1.207827369191    -0.484799427036    -0.000170936181
    C            1.200192584958    -1.864846553727    -0.000166738384
    C           -0.000000040591     0.179929472061    -0.000005012833
    H            2.128857730977    -2.400622003378    -0.000290422991
    C            0.000000112021    -2.551764485607    -0.000000571888
    N            0.000002182957     1.644450643220    -0.000008345111
    C           -1.207827549532    -0.484799320004     0.000161680606
    H            0.000000160653    -3.624737161701     0.000010136045
    C           -1.200192374089    -1.864846490524     0.000162645539
    O            1.050682076706     2.193860325960    -0.000155171077
    O           -1.050684114117     2.193861116519     0.000176952013
    H           -2.122713007976     0.067890298822     0.000282586340
    H           -2.128857444389    -2.400622061664     0.000294495012

  Mulliken Charges: (a.u.)
   Center  Symbol    Alpha    Beta     Spin     Total
       1     H     0.39891  0.39891  0.00000  0.20219
       2     C     3.07669  3.07669  0.00000 -0.15338
       3     C     3.07221  3.07221  0.00000 -0.14442
       4     C     2.98227  2.98227  0.00000  0.03545
       5     H     0.41694  0.41694  0.00000  0.16613
       6     C     3.06449  3.06449  0.00000 -0.12897
       7     N     3.25234  3.25234  0.00000  0.49531
       8     C     3.07669  3.07669  0.00000 -0.15338
       9     H     0.41708  0.41708  0.00000  0.16584
      10     C     3.07221  3.07221  0.00000 -0.14442
      11     O     4.17717  4.17717  0.00000 -0.35434
      12     O     4.17717  4.17717  0.00000 -0.35435
      13     H     0.39891  0.39891  0.00000  0.20219
      14     H     0.41694  0.41694  0.00000  0.16613

   Total alpha = 32.00000, Total beta = 32.00000, Total charge =  0.00000
