  ==> Input File <==

--------------------------------------------------------------------------
set {
	reference rhf
	basis 6-31G*
}

set_num_threads( 4 )
memory 2 gb

molecule MOL {
0 1

H	 1.136379	 0.211822	 1.465562
C	 1.135357	 0.094285	 0.374742
C	 0.065331	 0.871482	 -0.349150
O	 1.941633	 -0.601957	 -0.151457
C	 0.552419	 1.423284	 -1.696644
H	 -0.280754	 1.665433	 0.302601
H	 -0.767435	 0.190714	 -0.520080
C	 1.632213	 2.496844	 -1.555448
H	 -0.299652	 1.834702	 -2.228357
H	 0.925374	 0.604843	 -2.308772
H	 1.268326	 3.339829	 -0.976234
H	 1.937592	 2.867515	 -2.528414
H	 2.517412	 2.114504	 -1.055820

	symmetry c1
}
set optking {
	frozen_dihedral = ("
		6 3 2 4
	")
}

ee = optimize('scf')
oeprop('DIPOLE', 'QUADRUPOLE', 'MULLIKEN_CHARGES')
f=open( 'psi4out.xyz', 'w' )
f.write( "13  " )
f.write( str(ee) + "\n" )
f.write( MOL.save_string_xyz() )
f.close()
--------------------------------------------------------------------------

    Molecular point group: c1
  Charge       = 0
  Multiplicity = 1
  Basis Set: 6-31G*
  Basis Set:
  @DF-RHF Final Energy:  -230.98409639392432
    Total Energy =                       -230.9840963939242044
    Molecular point group: c1
  Basis Set: 6-31G*
  Basis Set:
  Basis Set: 6-31G*
  Basis Set:
  @DF-RHF Final Energy:  -230.98322276296071
    Total Energy =                       -230.9832227629607360
  Basis Set: 6-31G*
  Basis Set:
  Basis Set: 6-31G*
  Basis Set:
  @DF-RHF Final Energy:  -230.98445854339781
    Total Energy =                       -230.9844585433980910
  Basis Set: 6-31G*
  Basis Set:
  Basis Set: 6-31G*
  Basis Set:
  @DF-RHF Final Energy:  -230.98469562599587
    Total Energy =                       -230.9846956259959541
  Basis Set: 6-31G*
  Basis Set:
  Basis Set: 6-31G*
  Basis Set:
  @DF-RHF Final Energy:  -230.98469667334325
    Total Energy =                       -230.9846966733429099
  Basis Set: 6-31G*
  Basis Set:
  Basis Set: 6-31G*
  Basis Set:
  @DF-RHF Final Energy:  -230.98469960126758
    Total Energy =                       -230.9846996012675504
  Basis Set: 6-31G*
  Basis Set:
  Charge       = 0
  Multiplicity = 1
  Basis Set: 6-31G*
  Basis Set:

    Orbital Energies (a.u.)
    -----------------------

    Doubly Occupied:

       1A    -20.563936     2A    -11.329139     3A    -11.237047
       4A    -11.227158     5A    -11.214175     6A     -1.404427
       7A     -1.078465     8A     -0.971833     9A     -0.852098
      10A     -0.766365    11A     -0.686362    12A     -0.634089
      13A     -0.629061    14A     -0.587930    15A     -0.560817
      16A     -0.524550    17A     -0.498697    18A     -0.485053
      19A     -0.479518    20A     -0.411604

  @DF-RHF Final Energy:  -230.98469977502705

   => Energetics <=

    Nuclear Repulsion Energy =            175.8535633151533659
    One-Electron Energy =                -661.3918745566385269
    Two-Electron Energy =                 254.5536114664581930
    DFT Exchange-Correlation Energy =       0.0000000000000000
    Empirical Dispersion Energy =           0.0000000000000000
    PCM Polarization Energy =               0.0000000000000000
    EFP Energy =                            0.0000000000000000
    Total Energy =                       -230.9846997750269963
    Molecular point group: c1
  Basis Set: 6-31G*
  Basis Set:

  -Total Gradient:
     Atom            X                  Y                   Z
    ------   -----------------  -----------------  -----------------
       1       -0.000009342995    -0.000004275361    -0.000003687191
       2        0.001769810345     0.002375187799     0.000056332265
       3        0.001419182355     0.000937706772    -0.000940322128
       4       -0.001509924199    -0.001860309141     0.000075388433
       5       -0.000012096368    -0.000008558852     0.000013055018
       6       -0.001648473836    -0.001420776715     0.000781037560
       7       -0.000005685128     0.000004344496     0.000003984269
       8        0.000013042443    -0.000024086404     0.000017135209
       9       -0.000006904870    -0.000006240989     0.000000888614
      10        0.000007988439     0.000003842832    -0.000002734257
      11       -0.000003784627     0.000007758205    -0.000001875240
      12       -0.000005075132    -0.000005734850     0.000002063114
      13       -0.000008736426     0.000001142209    -0.000001265665

  **** Optimization is complete! (in 7 steps) ****
    Final optimized geometry and variables:
    Molecular point group: c1

    Geometry (in Angstrom), charge = 0, multiplicity = 1:

    H           -0.015674961669    -0.746511686577     2.166235913978
    C            0.042818502592    -0.780742265017     1.072932855484
    C           -0.999968788407     0.023464078770     0.329435025924
    O            0.856401447069    -1.466386469395     0.542558039432
    C           -0.529560002067     0.565808800645    -1.021513578295
    H           -1.374321019296     0.811731190203     0.977320464518
    H           -1.839565338654    -0.656460475634     0.182123929321
    C            0.540691357816     1.650400807002    -0.898225267054
    H           -1.390489947092     0.965336558389    -1.549532348404
    H           -0.149597375184    -0.258140521671    -1.614149544245
    H            0.179460272012     2.495205166835    -0.317743106190
    H            0.827022416410     2.021388634714    -1.876891803158
    H            1.435538845105     1.268822037617    -0.417905882709

  Mulliken Charges: (a.u.)
   Center  Symbol    Alpha    Beta     Spin     Total
       1     H     0.42617  0.42617  0.00000  0.14767
       2     C     2.84064  2.84064  0.00000  0.31872
       3     C     3.20854  3.20854  0.00000 -0.41707
       4     O     4.23812  4.23812  0.00000 -0.47625
       5     C     3.15314  3.15314  0.00000 -0.30629
       6     H     0.41402  0.41402  0.00000  0.17196
       7     H     0.40089  0.40089  0.00000  0.19823
       8     C     3.24538  3.24538  0.00000 -0.49076
       9     H     0.41773  0.41773  0.00000  0.16455
      10     H     0.40401  0.40401  0.00000  0.19199
      11     H     0.42346  0.42346  0.00000  0.15307
      12     H     0.41561  0.41561  0.00000  0.16877
      13     H     0.41229  0.41229  0.00000  0.17541

   Total alpha = 20.00000, Total beta = 20.00000, Total charge =  0.00000
