  ==> Input File <==

--------------------------------------------------------------------------
set {
	reference rhf
	basis 6-31G*
}

set_num_threads( 4 )
memory 2 gb

molecule MOL {
0 1

H	 1.385458	 -1.491931	 -0.452883
O	 1.586534	 -0.678666	 -0.000226
C	 0.489431	 0.077273	 0.000046
C	 -0.764129	 -0.759190	 0.000191
O	 0.537743	 1.263962	 0.000257
C	 -2.038368	 0.075731	 -0.000248
H	 -0.717284	 -1.412404	 -0.866059
H	 -0.717458	 -1.411724	 0.866967
H	 -2.086483	 0.712501	 -0.875098
H	 -2.908485	 -0.571682	 -0.000042
H	 -2.086576	 0.713280	 0.874068

	symmetry c1
}
set optking {
	frozen_dihedral = ("
		1 2 3 5
	")
}

ee = optimize('scf')
oeprop('DIPOLE', 'QUADRUPOLE', 'MULLIKEN_CHARGES')
f=open( 'psi4out.xyz', 'w' )
f.write( "11  " )
f.write( str(ee) + "\n" )
f.write( MOL.save_string_xyz() )
f.close()
--------------------------------------------------------------------------

    Molecular point group: c1
  Charge       = 0
  Multiplicity = 1
  Basis Set: 6-31G*
  Basis Set:
  @DF-RHF Final Energy:  -266.83052759887926
    Total Energy =                       -266.8305275988792573
    Molecular point group: c1
  Basis Set: 6-31G*
  Basis Set:
  Basis Set: 6-31G*
  Basis Set:
  @DF-RHF Final Energy:  -266.83192419986602
    Total Energy =                       -266.8319241998660800
  Basis Set: 6-31G*
  Basis Set:
  Basis Set: 6-31G*
  Basis Set:
  @DF-RHF Final Energy:  -266.83209177160336
    Total Energy =                       -266.8320917716034160
  Basis Set: 6-31G*
  Basis Set:
  Basis Set: 6-31G*
  Basis Set:
  @DF-RHF Final Energy:  -266.83204142893703
    Total Energy =                       -266.8320414289370319
  Basis Set: 6-31G*
  Basis Set:
  Basis Set: 6-31G*
  Basis Set:
  @DF-RHF Final Energy:  -266.83209903549562
    Total Energy =                       -266.8320990354954461
  Basis Set: 6-31G*
  Basis Set:
  Charge       = 0
  Multiplicity = 1
  Basis Set: 6-31G*
  Basis Set:

    Orbital Energies (a.u.)
    -----------------------

    Doubly Occupied:

       1A    -20.609593     2A    -20.552267     3A    -11.381724
       4A    -11.254992     5A    -11.225996     6A     -1.467196
       7A     -1.371414     8A     -1.068727     9A     -0.908669
      10A     -0.826137    11A     -0.718126    12A     -0.668198
      13A     -0.657362    14A     -0.614573    15A     -0.587341
      16A     -0.533657    17A     -0.525771    18A     -0.512506
      19A     -0.479436    20A     -0.443242

  @DF-RHF Final Energy:  -266.83209921218173

   => Energetics <=

    Nuclear Repulsion Energy =            179.5123156896502223
    One-Electron Energy =                -719.8749761382426868
    Two-Electron Energy =                 273.5305612364107901
    DFT Exchange-Correlation Energy =       0.0000000000000000
    Empirical Dispersion Energy =           0.0000000000000000
    PCM Polarization Energy =               0.0000000000000000
    EFP Energy =                            0.0000000000000000
    Total Energy =                       -266.8320992121816744
    Molecular point group: c1
  Basis Set: 6-31G*
  Basis Set:

  -Total Gradient:
     Atom            X                  Y                   Z
    ------   -----------------  -----------------  -----------------
       1        0.001645660371     0.002611946127    -0.005359182772
       2       -0.002124749973    -0.003312988481     0.004373531551
       3        0.000525615441     0.000627699733     0.006354322055
       4        0.000007050400     0.000008386799     0.000019826698
       5       -0.000048738258     0.000064749141    -0.005366224604
       6       -0.000003792754    -0.000001696287    -0.000009611035
       7        0.000001280429     0.000003524844    -0.000010663070
       8       -0.000000783572     0.000000241885    -0.000009577082
       9        0.000002427204    -0.000002095520     0.000003041342
      10       -0.000005305571     0.000001607417     0.000002707226
      11        0.000001336277    -0.000001375657     0.000001829692

  **** Optimization is complete! (in 6 steps) ****
    Final optimized geometry and variables:
    Molecular point group: c1

    Geometry (in Angstrom), charge = 0, multiplicity = 1:

    H            1.528444839629    -1.468175821967    -0.441146004745
    O            1.636614615317    -0.636118646761     0.000376075941
    C            0.500462556909     0.080558869308     0.005085435339
    C           -0.771272347343    -0.743023644732     0.007460741412
    O            0.535818311844     1.260602319103     0.007845890192
    C           -2.035315636615     0.107297082110     0.009700986953
    H           -0.753493251936    -1.397880763253    -0.862570102401
    H           -0.736533558967    -1.395806438673     0.875881558307
    H           -2.075844987253     0.743600700403    -0.865468428667
    H           -2.914017595284    -0.528283691544     0.014546211478
    H           -2.068002112975     0.745823573349     0.883375030046

  Mulliken Charges: (a.u.)
   Center  Symbol    Alpha    Beta     Spin     Total
       1     H     0.26930  0.26930  0.00000  0.46139
       2     O     4.35434  4.35434  0.00000 -0.70868
       3     C     2.61443  2.61443  0.00000  0.77114
       4     C     3.22803  3.22803  0.00000 -0.45606
       5     O     4.25780  4.25780  0.00000 -0.51559
       6     C     3.23710  3.23710  0.00000 -0.47420
       7     H     0.41052  0.41052  0.00000  0.17896
       8     H     0.39868  0.39868  0.00000  0.20265
       9     H     0.40724  0.40724  0.00000  0.18552
      10     H     0.41695  0.41695  0.00000  0.16610
      11     H     0.40561  0.40561  0.00000  0.18877

   Total alpha = 20.00000, Total beta = 20.00000, Total charge = -0.00000
