  ==> Input File <==

--------------------------------------------------------------------------
set {
	reference rhf
	basis cc-pvtz
}

set_num_threads( 4 )
memory 2 gb

molecule MOL {
0 1

H	 -1.732323	 -1.348258	 1.472461
N	 -0.949440	 -0.732131	 1.417201
C	 -0.561396	 -0.500007	 0.035200
H	 -0.204532	 -1.155377	 1.930340
C	 0.575129	 0.507849	 -0.048832
H	 -1.425357	 -0.107708	 -0.491004
H	 -0.267820	 -1.413931	 -0.483424
C	 1.951750	 -0.141983	 0.035101
H	 0.478254	 1.061643	 -0.975981
H	 0.467676	 1.231891	 0.755499
H	 2.101550	 -0.848142	 -0.774949
H	 2.738260	 0.600794	 -0.026526
H	 2.078939	 -0.679792	 0.968824

	symmetry c1
}
set optking {
	frozen_dihedral = ("
		6 3 5 9
	")
}

ee = optimize('scf')
oeprop('DIPOLE', 'QUADRUPOLE', 'MULLIKEN_CHARGES')
f=open( 'psi4out.xyz', 'w' )
f.write( "13  " )
f.write( str(ee) + "\n" )
f.write( MOL.save_string_xyz() )
f.close()
--------------------------------------------------------------------------

    Molecular point group: c1
  Charge       = 0
  Multiplicity = 1
  Basis Set: CC-PVTZ
  Basis Set:
  @DF-RHF Final Energy:  -173.34913209488255
    Total Energy =                       -173.3491320948824068
    Molecular point group: c1
  Basis Set: CC-PVTZ
  Basis Set:
  Basis Set: CC-PVTZ
  Basis Set:
  @DF-RHF Final Energy:  -173.34943743394982
    Total Energy =                       -173.3494374339498165
  Basis Set: CC-PVTZ
  Basis Set:
  Basis Set: CC-PVTZ
  Basis Set:
  @DF-RHF Final Energy:  -173.34950919287428
    Total Energy =                       -173.3495091928741374
  Basis Set: CC-PVTZ
  Basis Set:
  Charge       = 0
  Multiplicity = 1
  Basis Set: CC-PVTZ
  Basis Set:

    Orbital Energies (a.u.)
    -----------------------

    Doubly Occupied:

       1A    -15.527196     2A    -11.238442     3A    -11.210215
       4A    -11.208436     5A     -1.178412     6A     -1.033814
       7A     -0.906109     8A     -0.794238     9A     -0.668278
      10A     -0.635870    11A     -0.580234    12A     -0.564621
      13A     -0.558570    14A     -0.484592    15A     -0.478334
      16A     -0.467821    17A     -0.383629

  @DF-RHF Final Energy:  -173.34950995079888

   => Energetics <=

    Nuclear Repulsion Energy =            133.1712494607844803
    One-Electron Energy =                -497.2038900609538814
    Two-Electron Energy =                 190.6831306493705824
    DFT Exchange-Correlation Energy =       0.0000000000000000
    Empirical Dispersion Energy =           0.0000000000000000
    PCM Polarization Energy =               0.0000000000000000
    EFP Energy =                            0.0000000000000000
    Total Energy =                       -173.3495099507988471
    Molecular point group: c1
  Basis Set: CC-PVTZ
  Basis Set:

  -Total Gradient:
     Atom            X                  Y                   Z
    ------   -----------------  -----------------  -----------------
       1       -0.000034185839    -0.000023417146     0.000016928973
       2       -0.000015996412    -0.000007567703     0.000041513395
       3       -0.002012224662     0.002917101055     0.004650375317
       4        0.000007132151    -0.000006814686    -0.000005100717
       5        0.003046974542    -0.003871853012    -0.003173217216
       6        0.001230898622    -0.001818923767    -0.003437575340
       7        0.000000477113    -0.000003832245     0.000017945190
       8        0.000029310070    -0.000015941452     0.000002749267
       9       -0.002219669800     0.002831310580     0.001885998769
      10        0.000011260853    -0.000024987304    -0.000003966707
      11       -0.000023461753     0.000011542017     0.000004305795
      12       -0.000005684530     0.000006734874    -0.000002033485
      13       -0.000014830357     0.000006648790     0.000002076758

  **** Optimization is complete! (in 4 steps) ****
    Final optimized geometry and variables:
    Molecular point group: c1

    Geometry (in Angstrom), charge = 0, multiplicity = 1:

    H           -1.971590427215    -1.119336793272     1.096549205223
    N           -1.194102830956    -0.495565842227     1.044856248358
    C           -0.825258184270    -0.241356608199    -0.339632705703
    H           -0.443443232319    -0.927308254937     1.541989110881
    C            0.334817348974     0.748593914351    -0.447000057492
    H           -1.688414747007     0.157603506385    -0.858828422813
    H           -0.558059291154    -1.154003822209    -0.876322502169
    C            1.714665085658     0.107111924136    -0.342194923888
    H            0.247888319503     1.300832592829    -1.377033250799
    H            0.214095170764     1.484382449691     0.341263939159
    H            1.879731838998    -0.601288814406    -1.146986686025
    H            2.497444949904     0.854966733000    -0.393171086863
    H            1.837001988758    -0.425233241161     0.595698882162

  Mulliken Charges: (a.u.)
   Center  Symbol    Alpha    Beta     Spin     Total
       1     H     0.42929  0.42929  0.00000  0.14143
       2     N     3.68822  3.68822  0.00000 -0.37645
       3     C     3.02825  3.02825  0.00000 -0.05651
       4     H     0.43092  0.43092  0.00000  0.13816
       5     C     3.08994  3.08994  0.00000 -0.17988
       6     H     0.45290  0.45290  0.00000  0.09420
       7     H     0.47009  0.47009  0.00000  0.05981
       8     C     3.14634  3.14634  0.00000 -0.29267
       9     H     0.45215  0.45215  0.00000  0.09569
      10     H     0.44976  0.44976  0.00000  0.10049
      11     H     0.45546  0.45546  0.00000  0.08909
      12     H     0.44763  0.44763  0.00000  0.10475
      13     H     0.45905  0.45905  0.00000  0.08190

   Total alpha = 17.00000, Total beta = 17.00000, Total charge = -0.00000
