  ==> Input File <==

--------------------------------------------------------------------------
set {
	reference rhf
	basis 6-31G*
}

set_num_threads( 4 )
memory 2 gb

molecule MOL {
0 1

H	 -2.497551	 1.693905	 1.944682
C	 -2.039679	 0.729906	 2.157288
O	 -0.761271	 0.643146	 1.615547
H	 -1.948449	 0.614370	 3.228489
H	 -2.691565	 -0.053793	 1.773508
C	 -0.719715	 0.768384	 0.229244
C	 0.719720	 0.768376	 -0.229267
H	 -1.245849	 -0.063078	 -0.241446
H	 -1.197867	 1.692046	 -0.090483
O	 1.392611	 -0.295398	 0.366430
H	 0.750534	 0.687200	 -1.313918
H	 1.185043	 1.714359	 0.050526
C	 2.706965	 -0.449871	 -0.062409
H	 2.756559	 -0.644779	 -1.131878
H	 3.305899	 0.433456	 0.155466
H	 3.125548	 -1.294566	 0.467107

	symmetry c1
}
set optking {
	frozen_dihedral = ("
		3 6 7 11
	")
}

ee = optimize('scf')
oeprop('DIPOLE', 'QUADRUPOLE', 'MULLIKEN_CHARGES')
f=open( 'psi4out.xyz', 'w' )
f.write( "16  " )
f.write( str(ee) + "\n" )
f.write( MOL.save_string_xyz() )
f.close()
--------------------------------------------------------------------------

    Molecular point group: c1
  Charge       = 0
  Multiplicity = 1
  Basis Set: 6-31G*
  Basis Set:
  @DF-RHF Final Energy:  -306.97448102339700
    Total Energy =                       -306.9744810233970611
    Molecular point group: c1
  Basis Set: 6-31G*
  Basis Set:
  Basis Set: 6-31G*
  Basis Set:
  @DF-RHF Final Energy:  -306.97499868110691
    Total Energy =                       -306.9749986811069107
  Basis Set: 6-31G*
  Basis Set:
  Basis Set: 6-31G*
  Basis Set:
  @DF-RHF Final Energy:  -306.97513667353928
    Total Energy =                       -306.9751366735392253
  Basis Set: 6-31G*
  Basis Set:
  Charge       = 0
  Multiplicity = 1
  Basis Set: 6-31G*
  Basis Set:

    Orbital Energies (a.u.)
    -----------------------

    Doubly Occupied:

       1A    -20.552453     2A    -20.551508     3A    -11.270205
       4A    -11.269544     5A    -11.262979     6A    -11.262632
       7A     -1.388698     8A     -1.368712     9A     -1.029718
      10A     -0.934398    11A     -0.894376    12A     -0.820972
      13A     -0.686740    14A     -0.677484    15A     -0.657228
      16A     -0.639475    17A     -0.623185    18A     -0.594220
      19A     -0.562115    20A     -0.527760    21A     -0.508180
      22A     -0.473843    23A     -0.464259    24A     -0.413273
      25A     -0.413140

  @DF-RHF Final Energy:  -306.97513862835933

   => Energetics <=

    Nuclear Repulsion Energy =            259.8026661454255191
    One-Electron Energy =                -933.8614186288905330
    Two-Electron Energy =                 367.0836138551056251
    DFT Exchange-Correlation Energy =       0.0000000000000000
    Empirical Dispersion Energy =           0.0000000000000000
    PCM Polarization Energy =               0.0000000000000000
    EFP Energy =                            0.0000000000000000
    Total Energy =                       -306.9751386283593888
    Molecular point group: c1
  Basis Set: 6-31G*
  Basis Set:

  -Total Gradient:
     Atom            X                  Y                   Z
    ------   -----------------  -----------------  -----------------
       1       -0.000017795337    -0.000010033194     0.000016268063
       2        0.000006186970     0.000042446484    -0.000012541190
       3       -0.000283187917    -0.005177054816    -0.000262609198
       4       -0.000010211730    -0.000008248196     0.000003977269
       5       -0.000010932333    -0.000012055832     0.000002296001
       6        0.000371995159     0.005324507420     0.000425221236
       7       -0.000085248972     0.006313035724    -0.000878028167
       8        0.000000038708     0.000013323001    -0.000000413550
       9       -0.000001981722     0.000014504938     0.000098231950
      10       -0.000045096338     0.000131327200    -0.000013552079
      11        0.000040605889    -0.006576230617     0.000675261178
      12       -0.000011047094    -0.000022143438    -0.000010233731
      13        0.000030527802    -0.000048193109    -0.000060427542
      14        0.000039896514    -0.000000469015    -0.000002294285
      15       -0.000019814297    -0.000000809611     0.000013382539
      16       -0.000003935301     0.000016093060     0.000005461504

  **** Optimization is complete! (in 4 steps) ****
    Final optimized geometry and variables:
    Molecular point group: c1

    Geometry (in Angstrom), charge = 0, multiplicity = 1:

    H           -2.799012790523     1.257409488992     1.234030051058
    C           -2.249485097681     0.350102822360     1.481202121992
    O           -0.965167563930     0.366304012345     0.947611777572
    H           -2.154727111147     0.280875633366     2.556004918171
    H           -2.818631507170    -0.505532757541     1.122210380327
    C           -0.929765648116     0.442032577992    -0.439536508633
    C            0.504812237500     0.399357777310    -0.925075801783
    H           -1.475498602987    -0.396751586025    -0.869845425221
    H           -1.399397165416     1.359802697867    -0.795600460893
    O            1.147626831352    -0.700988583601    -0.363052024018
    H            0.494334805623     0.279990973354    -2.009191413363
    H            1.024785473400     1.320239531632    -0.669833366334
    C            2.481557688423    -0.827547554801    -0.734921536632
    H            2.588776247956    -0.948862027133    -1.812237533956
    H            3.065441614793     0.037929719372    -0.426815691078
    H            2.874766932671    -1.706852835022    -0.243739032242

  Mulliken Charges: (a.u.)
   Center  Symbol    Alpha    Beta     Spin     Total
       1     H     0.43206  0.43206  0.00000  0.13588
       2     C     3.07970  3.07970  0.00000 -0.15941
       3     O     4.29596  4.29596  0.00000 -0.59192
       4     H     0.41075  0.41075  0.00000  0.17850
       5     H     0.42914  0.42914  0.00000  0.14172
       6     C     2.99274  2.99274  0.00000  0.01452
       7     C     2.99371  2.99371  0.00000  0.01258
       8     H     0.42698  0.42698  0.00000  0.14604
       9     H     0.43201  0.43201  0.00000  0.13597
      10     O     4.29690  4.29690  0.00000 -0.59381
      11     H     0.43201  0.43201  0.00000  0.13598
      12     H     0.42578  0.42578  0.00000  0.14845
      13     C     3.07937  3.07937  0.00000 -0.15874
      14     H     0.43259  0.43259  0.00000  0.13481
      15     H     0.42938  0.42938  0.00000  0.14123
      16     H     0.41091  0.41091  0.00000  0.17819

   Total alpha = 25.00000, Total beta = 25.00000, Total charge =  0.00000
