                              Psi4 1.0.54 Driver

  ==> Input File <==

--------------------------------------------------------------------------
set {
	reference rhf
	basis cc-pvtz
}

set_num_threads( 4 )
memory 2 gb

molecule MOL {
0 1

H	 -1.487508	 -1.928876	 -0.541629
C	 -1.241175	 -1.186952	 -1.294299
O	 -0.775228	 0.000056	 -0.739966
H	 -2.144717	 -0.944386	 -1.835526
H	 -0.535924	 -1.624192	 -1.993637
C	 0.406133	 -0.000384	 0.036994
C	 1.526415	 -0.003194	 -0.997339
C	 0.498772	 1.259027	 0.900673
C	 0.495883	 -1.257378	 0.904465
H	 1.452279	 0.872071	 -1.630204
H	 1.451276	 -0.881020	 -1.626529
H	 2.497919	 -0.002741	 -0.517601
H	 0.368981	 2.144239	 0.289753
H	 1.470064	 1.313479	 1.377660
H	 -0.248448	 1.271586	 1.684297
H	 0.363971	 -2.144195	 0.296316
H	 1.467114	 -1.312636	 1.381470
H	 -0.251246	 -1.265768	 1.688235

	symmetry c1
}
set optking {
	frozen_dihedral = ("
		2 3 6 7
	")
}

ee,wfn = optimize('scf', return_wfn=True)
oeprop( wfn, 'DIPOLE', 'QUADRUPOLE', 'MULLIKEN_CHARGES')
f=open( 'psi4out.xyz', 'w' )
f.write( "18  " )
f.write( str(ee) + "\n" )
f.write( MOL.save_string_xyz() )
f.close()
--------------------------------------------------------------------------

    Molecular point group: c1
  Charge       = 0
  Multiplicity = 1
  Basis Set: CC-PVTZ
  Basis Set:
  @DF-RHF Final Energy:  -271.26995865252644
    Total Energy =                       -271.2699586525263840
    Molecular point group: c1
  Basis Set: CC-PVTZ
  Basis Set:
  Basis Set: CC-PVTZ
  Basis Set:
  @DF-RHF Final Energy:  -271.25651450709876
    Total Energy =                       -271.2565145070987001
  Basis Set: CC-PVTZ
  Basis Set:
  Basis Set: CC-PVTZ
  Basis Set:
  @DF-RHF Final Energy:  -271.27532005711697
    Total Energy =                       -271.2753200571167440
  Basis Set: CC-PVTZ
  Basis Set:
  Basis Set: CC-PVTZ
  Basis Set:
  @DF-RHF Final Energy:  -271.27608550969609
    Total Energy =                       -271.2760855096962587
  Basis Set: CC-PVTZ
  Basis Set:
  @DF-RHF Final Energy:  -271.27624874510946
    Total Energy =                       -271.2762487451094557
  @DF-RHF Final Energy:  -271.27625972374716
    Total Energy =                       -271.2762597237468754
  Basis Set: CC-PVTZ
  Basis Set:
  @DF-RHF Final Energy:  -271.27628526879568
    Total Energy =                       -271.2762852687958457
  Basis Set: CC-PVTZ
  Basis Set:
  Basis Set: CC-PVTZ
  Basis Set:
  @DF-RHF Final Energy:  -271.27628667464171
    Total Energy =                       -271.2762866746419377
  Basis Set: CC-PVTZ
  Basis Set:
  Basis Set: CC-PVTZ
  Basis Set:
  @DF-RHF Final Energy:  -271.27628826355226
    Total Energy =                       -271.2762882635522601
  Basis Set: CC-PVTZ
  Basis Set:
  Charge       = 0
  Multiplicity = 1
  Basis Set: CC-PVTZ
  Basis Set:

    Orbital Energies (a.u.)
    -----------------------

    Doubly Occupied:

       1A    -20.540195     2A    -11.280137     3A    -11.258623
       4A    -11.209472     5A    -11.205057     6A    -11.201730
       7A     -1.373217     8A     -1.074712     9A     -0.948685
      10A     -0.939054    11A     -0.912913    12A     -0.753362
      13A     -0.656976    14A     -0.647350    15A     -0.639735
      16A     -0.591377    17A     -0.574993    18A     -0.552960
      19A     -0.535407    20A     -0.525679    21A     -0.515233
      22A     -0.490613    23A     -0.487042    24A     -0.441793
      25A     -0.405575

  @DF-RHF Final Energy:  -271.27628838675457

   => Energetics <=

    Nuclear Repulsion Energy =            272.6767067658169026
    One-Electron Energy =                -908.3822151657604991
    Two-Electron Energy =                 364.4292200131887967
    DFT Exchange-Correlation Energy =       0.0000000000000000
    Empirical Dispersion Energy =           0.0000000000000000
    PCM Polarization Energy =               0.0000000000000000
    EFP Energy =                            0.0000000000000000
    Total Energy =                       -271.2762883867547998
    Molecular point group: c1
  Basis Set: CC-PVTZ
  Basis Set:

  -Total Gradient:
     Atom            X                  Y                   Z
    ------   -----------------  -----------------  -----------------
       1        0.000000145263     0.000003126321    -0.000002316054
       2       -0.000961308369    -0.000603757110     0.001390423245
       3        0.001496068631     0.001416215825    -0.001922540981
       4       -0.000003722817    -0.000000863313    -0.000001567831
       5        0.000001745856    -0.000001454550    -0.000001569260
       6       -0.000695558346    -0.002262891537     0.000129465068
       7        0.000162028071     0.001447612248     0.000403058645
       8        0.000007417840     0.000005154089    -0.000001836997
       9       -0.000000048848    -0.000008676605     0.000000713584
      10        0.000003489459     0.000000553491    -0.000004339451
      11       -0.000001432029     0.000002387904     0.000003715817
      12       -0.000004070601     0.000000360406     0.000000693140
      13        0.000000354623     0.000004218512     0.000000057632
      14       -0.000002366434    -0.000001338463     0.000000614243
      15        0.000000361057     0.000000372638     0.000000294120
      16        0.000001304141    -0.000001193998     0.000002379956
      17       -0.000000989839     0.000002700145    -0.000003161301
      18       -0.000003417661    -0.000002526003     0.000005916426

  **** Optimization is complete! (in 10 steps) ****
    Final optimized geometry and variables:
    Molecular point group: c1

    Geometry (in Angstrom), charge = 0, multiplicity = 1:

    H           -1.916771176183    -1.349887846802    -0.699887926401
    C           -1.492406901754    -0.521787941247    -1.257592182042
    O           -0.889279363369     0.417903312206    -0.429033752181
    H           -2.294975853854    -0.014587819211    -1.774218083005
    H           -0.810881520204    -0.921280534421    -2.003190979221
    C            0.307537531962     0.091200790702     0.252058626826
    C            1.493700186125     0.228090570727    -0.704059070954
    C            0.410657366745     1.140337610074     1.354496851984
    C            0.262063620014    -1.306186280003     0.870303500216
    H            1.513050916617     1.223228211893    -1.130055279167
    H            1.436893398076    -0.486935714277    -1.516243584177
    H            2.428667462827     0.058530549904    -0.182573982383
    H            0.386677880154     2.133609977763     0.924815579010
    H            1.332248397427     1.027597319180     1.913407871091
    H           -0.423175344613     1.049555334935     2.039317044895
    H            0.249413060694    -2.086163658581     0.119270995121
    H            1.139326024645    -1.460753032321     1.486341286323
    H           -0.614133578374    -1.419517832549     1.497603916789

  Mulliken Charges: (a.u.)
   Center  Symbol    Alpha    Beta     Spin     Total
       1     H     0.46700  0.46700  0.00000  0.06600
       2     C     3.04427  3.04427  0.00000 -0.08854
       3     O     4.19196  4.19196  0.00000 -0.38392
       4     H     0.44182  0.44182  0.00000  0.11637
       5     H     0.47024  0.47024  0.00000  0.05953
       6     C     2.87442  2.87442  0.00000  0.25116
       7     C     3.15432  3.15432  0.00000 -0.30863
       8     C     3.14143  3.14143  0.00000 -0.28286
       9     C     3.17118  3.17118  0.00000 -0.34236
      10     H     0.44739  0.44739  0.00000  0.10522
      11     H     0.44979  0.44979  0.00000  0.10041
      12     H     0.45180  0.45180  0.00000  0.09640
      13     H     0.44779  0.44779  0.00000  0.10443
      14     H     0.45937  0.45937  0.00000  0.08125
      15     H     0.45053  0.45053  0.00000  0.09893
      16     H     0.44658  0.44658  0.00000  0.10684
      17     H     0.44529  0.44529  0.00000  0.10942
      18     H     0.44482  0.44482  0.00000  0.11036

   Total alpha = 25.00000, Total beta = 25.00000, Total charge = -0.00000

*** Psi4 exiting successfully. Buy a developer a beer!
