  ==> Input File <==

--------------------------------------------------------------------------
set {
	reference rhf
	basis 6-31G*
}

set_num_threads( 1 )
memory 2 gb

molecule MOL {
0 1

O	 2.589190	 -0.057913	 0.777204
C	 1.705091	 0.115954	 0.001797
C	 0.381791	 -0.609817	 0.001258
O	 1.769761	 0.998274	 -0.987377
C	 -0.823008	 0.326187	 0.001381
H	 0.371250	 -1.265087	 -0.865474
H	 0.370908	 -1.265746	 0.867490
C	 -2.149452	 -0.435131	 -0.000098
H	 -0.770201	 0.977095	 -0.865636
H	 -0.771220	 0.975655	 0.869608
C	 -3.368779	 0.488503	 -0.000883
H	 -2.193746	 -1.087250	 -0.871175
H	 -2.195311	 -1.087803	 0.870418
C	 -4.693822	 -0.272754	 -0.001129
H	 -3.325798	 1.139422	 -0.871284
H	 -3.326423	 1.139959	 0.869145
H	 -4.781274	 -0.907928	 -0.878124
H	 -5.538651	 0.408946	 -0.001420
H	 -4.781694	 -0.907783	 0.875984
C	 2.963266	 1.751917	 -1.099293
H	 3.129913	 2.334825	 -0.204880
H	 2.823189	 2.402079	 -1.948731
H	 3.810120	 1.100789	 -1.261699

	symmetry c1
}
set optking {
	frozen_dihedral = ("
		15 11 8 12,
		9 5 8 12,
		9 5 3 6,
		1 2 4 20
	")
}

ee = energy('scf')
oeprop('DIPOLE', 'QUADRUPOLE', 'MULLIKEN_CHARGES')
f=open( 'psi4out.xyz', 'w' )
f.write( "23  " )
f.write( str(ee) + "\n" )
f.write( MOL.save_string_xyz() )
f.close()
--------------------------------------------------------------------------

    Molecular point group: c1

    Geometry (in Angstrom), charge = 0, multiplicity = 1:

       Center              X                  Y                   Z               Mass
    ------------   -----------------  -----------------  -----------------  -----------------
           O          2.738393406745    -0.330069869595     0.930685206525    15.994914619560
           C          1.854294406745    -0.156202869595     0.155278206525    12.000000000000
           C          0.530994406745    -0.881973869595     0.154739206525    12.000000000000
           O          1.918964406745     0.726117130405    -0.833895793475    15.994914619560
           C         -0.673804593255     0.054030130405     0.154862206525    12.000000000000
           H          0.520453406745    -1.537243869595    -0.711992793475     1.007825032070
           H          0.520111406745    -1.537902869595     1.020971206525     1.007825032070
           C         -2.000248593255    -0.707287869595     0.153383206525    12.000000000000
           H         -0.620997593255     0.704938130405    -0.712154793475     1.007825032070
           H         -0.622016593255     0.703498130405     1.023089206525     1.007825032070
           C         -3.219575593255     0.216346130405     0.152598206525    12.000000000000
           H         -2.044542593255    -1.359406869595    -0.717693793475     1.007825032070
           H         -2.046107593255    -1.359959869595     1.023899206525     1.007825032070
           C         -4.544618593255    -0.544910869595     0.152352206525    12.000000000000
           H         -3.176594593255     0.867265130405    -0.717802793475     1.007825032070
           H         -3.177219593255     0.867802130405     1.022626206525     1.007825032070
           H         -4.632070593255    -1.180084869595    -0.724642793475     1.007825032070
           H         -5.389447593255     0.136789130405     0.152061206525     1.007825032070
           H         -4.632490593255    -1.179939869595     1.029465206525     1.007825032070
           C          3.112469406745     1.479760130405    -0.945811793475    12.000000000000
           H          3.279116406745     2.062668130405    -0.051398793475     1.007825032070
           H          2.972392406745     2.129922130405    -1.795249793475     1.007825032070
           H          3.959323406745     0.828632130405    -1.108217793475     1.007825032070

  Charge       = 0
  Multiplicity = 1
  Basis Set: 6-31G*
  Basis Set:

    Orbital Energies (a.u.)
    -----------------------

    Doubly Occupied:

       1A    -20.604306     2A    -20.544133     3A    -11.371349
       4A    -11.281041     5A    -11.234221     6A    -11.226259
       7A    -11.221249     8A    -11.219619     9A    -11.211941
      10A     -1.469241    11A     -1.361782    12A     -1.097441
      13A     -1.046057    14A     -0.983641    15A     -0.934811
      16A     -0.848037    17A     -0.798511    18A     -0.773877
      19A     -0.693745    20A     -0.681117    21A     -0.672638
      22A     -0.652859    23A     -0.608314    24A     -0.592343
      25A     -0.579165    26A     -0.569961    27A     -0.546778
      28A     -0.528705    29A     -0.524113    30A     -0.508522
      31A     -0.488271    32A     -0.478239    33A     -0.470429
      34A     -0.468544    35A     -0.454669    36A     -0.426565

  @DF-RHF Final Energy:  -422.97457450430244

   => Energetics <=

    Nuclear Repulsion Energy =            455.7025691867821138
    One-Electron Energy =               -1479.0097125119903012
    Two-Electron Energy =                 600.3325688209056352
    DFT Exchange-Correlation Energy =       0.0000000000000000
    Empirical Dispersion Energy =           0.0000000000000000
    PCM Polarization Energy =               0.0000000000000000
    EFP Energy =                            0.0000000000000000
    Total Energy =                       -422.9745745043026091

  Mulliken Charges: (a.u.)
   Center  Symbol    Alpha    Beta     Spin     Total
       1     O     4.28599  4.28599  0.00000 -0.57199
       2     C     2.61273  2.61273  0.00000  0.77455
       3     C     3.20032  3.20032  0.00000 -0.40063
       4     O     4.30204  4.30204  0.00000 -0.60408
       5     C     3.16247  3.16247  0.00000 -0.32493
       6     H     0.40361  0.40361  0.00000  0.19278
       7     H     0.39924  0.39924  0.00000  0.20153
       8     C     3.15274  3.15274  0.00000 -0.30547
       9     H     0.40653  0.40653  0.00000  0.18694
      10     H     0.41575  0.41575  0.00000  0.16851
      11     C     3.15213  3.15213  0.00000 -0.30427
      12     H     0.42218  0.42218  0.00000  0.15564
      13     H     0.42153  0.42153  0.00000  0.15695
      14     C     3.23980  3.23980  0.00000 -0.47961
      15     H     0.42179  0.42179  0.00000  0.15643
      16     H     0.42170  0.42170  0.00000  0.15661
      17     H     0.42134  0.42134  0.00000  0.15732
      18     H     0.41827  0.41827  0.00000  0.16346
      19     H     0.42101  0.42101  0.00000  0.15799
      20     C     3.09234  3.09234  0.00000 -0.18467
      21     H     0.40881  0.40881  0.00000  0.18238
      22     H     0.40889  0.40889  0.00000  0.18223
      23     H     0.40883  0.40883  0.00000  0.18234

   Total alpha = 36.00000, Total beta = 36.00000, Total charge = -0.00000
