  ==> Input File <==

--------------------------------------------------------------------------
set {
	reference rhf
	basis cc-pvtz
}

set_num_threads( 4 )
memory 2 gb

molecule MOL {
0 1

H	 1.019083	 2.538282	 -0.004990
O	 1.279736	 1.791896	 0.504343
C	 0.706474	 0.636793	 -0.025501
C	 -0.793473	 0.591216	 0.050087
H	 1.117205	 -0.194482	 0.535378
H	 1.010719	 0.492507	 -1.060545
C	 -1.534243	 -0.493009	 -0.013340
H	 -1.266611	 1.552628	 0.164437
H	 -1.101195	 -1.466332	 -0.144046
H	 -2.604242	 -0.437780	 0.050785

	symmetry c1
}
set optking {
	frozen_dihedral = ("
		5 3 4 7
	")
}

ee = optimize('scf')
oeprop('DIPOLE', 'QUADRUPOLE', 'MULLIKEN_CHARGES')
f=open( 'psi4out.xyz', 'w' )
f.write( "10  " )
f.write( str(ee) + "\n" )
f.write( MOL.save_string_xyz() )
f.close()
--------------------------------------------------------------------------

    Molecular point group: c1
  Charge       = 0
  Multiplicity = 1
  Basis Set: CC-PVTZ
  Basis Set:
  @DF-RHF Final Energy:  -191.99452569850069
    Total Energy =                       -191.9945256985007234
    Molecular point group: c1
  Basis Set: CC-PVTZ
  Basis Set:
  Basis Set: CC-PVTZ
  Basis Set:
  @DF-RHF Final Energy:  -191.99504342302026
    Total Energy =                       -191.9950434230202632
  Basis Set: CC-PVTZ
  Basis Set:
  Basis Set: CC-PVTZ
  Basis Set:
  @DF-RHF Final Energy:  -191.99509952960153
    Total Energy =                       -191.9950995296015890
  Basis Set: CC-PVTZ
  Basis Set:
  Basis Set: CC-PVTZ
  Basis Set:
  @DF-RHF Final Energy:  -191.99510774580278
    Total Energy =                       -191.9951077458029260
  Basis Set: CC-PVTZ
  Basis Set:
  Basis Set: CC-PVTZ
  Basis Set:
  @DF-RHF Final Energy:  -191.99510896422908
    Total Energy =                       -191.9951089642290754
  Basis Set: CC-PVTZ
  Basis Set:
  Charge       = 0
  Multiplicity = 1
  Basis Set: CC-PVTZ
  Basis Set:

    Orbital Energies (a.u.)
    -----------------------

    Doubly Occupied:

       1A    -20.553146     2A    -11.277207     3A    -11.230722
       4A    -11.218799     5A     -1.372088     6A     -1.065499
       7A     -0.923164     8A     -0.779813     9A     -0.700103
      10A     -0.648497    11A     -0.625541    12A     -0.577429
      13A     -0.532577    14A     -0.506620    15A     -0.448688
      16A     -0.369257

  @DF-RHF Final Energy:  -191.99510917033550

   => Energetics <=

    Nuclear Repulsion Energy =            117.1339629606667643
    One-Electron Energy =                -492.5998462786283199
    Two-Electron Energy =                 183.4707741476260594
    DFT Exchange-Correlation Energy =       0.0000000000000000
    Empirical Dispersion Energy =           0.0000000000000000
    PCM Polarization Energy =               0.0000000000000000
    EFP Energy =                            0.0000000000000000
    Total Energy =                       -191.9951091703355246
    Molecular point group: c1
  Basis Set: CC-PVTZ
  Basis Set:

  -Total Gradient:
     Atom            X                  Y                   Z
    ------   -----------------  -----------------  -----------------
       1       -0.000006005001     0.000007476665    -0.000005863940
       2        0.000040480496     0.000041597241     0.000038329181
       3       -0.000193822791    -0.001201475116    -0.002689445563
       4        0.000179857131    -0.000003218306     0.002856325724
       5        0.000072409071     0.000999713308     0.001460445508
       6        0.000016335568    -0.000008480905     0.000002423097
       7       -0.000108419603     0.000164373585    -0.001662021688
       8       -0.000000514690     0.000000498527    -0.000002618274
       9        0.000000553813     0.000003211555     0.000001610802
      10       -0.000000873992    -0.000003696553     0.000000815152

  **** Optimization is complete! (in 6 steps) ****
    Final optimized geometry and variables:
    Molecular point group: c1

    Geometry (in Angstrom), charge = 0, multiplicity = 1:

    H            1.092988389580     1.844998982237    -0.145673937623
    O            1.276820694991     1.097192918201     0.392930865742
    C            0.726496264843    -0.057801629262    -0.178830317730
    C           -0.778723531414    -0.090194346345    -0.084680227378
    H            1.149828611989    -0.889331127091     0.366327742198
    H            1.033860191361    -0.150371458359    -1.216963964275
    C           -1.512197948966    -1.178738641477    -0.148081299738
    H           -1.258680944804     0.870125358025     0.004492209424
    H           -1.070804244340    -2.156398615928    -0.231241047584
    H           -2.583919969391    -1.135069169674    -0.112285400183

  Mulliken Charges: (a.u.)
   Center  Symbol    Alpha    Beta     Spin     Total
       1     H     0.39281  0.39281  0.00000  0.21437
       2     O     4.20307  4.20307  0.00000 -0.40613
       3     C     2.95192  2.95192  0.00000  0.09616
       4     C     3.07382  3.07382  0.00000 -0.14765
       5     H     0.45162  0.45162  0.00000  0.09675
       6     H     0.46592  0.46592  0.00000  0.06817
       7     C     3.17273  3.17273  0.00000 -0.34547
       8     H     0.42709  0.42709  0.00000  0.14582
       9     H     0.43255  0.43255  0.00000  0.13490
      10     H     0.42846  0.42846  0.00000  0.14308

   Total alpha = 16.00000, Total beta = 16.00000, Total charge = -0.00000
