  ==> Input File <==

--------------------------------------------------------------------------
set {
	reference rhf
	basis cc-pvtz
}

set_num_threads( 4 )
memory 2 gb

molecule MOL {
0 1

H	 2.803323	 -0.590805	 -0.088592
O	 2.112021	 -0.031504	 -0.390815
C	 1.135873	 0.113391	 0.608264
C	 0.027642	 1.012027	 0.090274
H	 1.569481	 0.562137	 1.498420
H	 0.739304	 -0.856808	 0.894459
C	 -1.138737	 0.285728	 -0.581921
H	 0.464661	 1.708096	 -0.618252
H	 -0.340737	 1.603071	 0.925246
C	 -1.933983	 -0.631436	 0.343653
H	 -0.763151	 -0.285569	 -1.422081
H	 -1.808359	 1.035291	 -0.992333
H	 -2.789188	 -1.049673	 -0.174718
H	 -1.335629	 -1.461368	 0.700418
H	 -2.305435	 -0.092167	 1.209725

	symmetry c1
}
set optking {
	frozen_dihedral = ("
		2 3 4 8
	")
}

ee = optimize('scf')
oeprop('DIPOLE', 'QUADRUPOLE', 'MULLIKEN_CHARGES')
f=open( 'psi4out.xyz', 'w' )
f.write( "15  " )
f.write( str(ee) + "\n" )
f.write( MOL.save_string_xyz() )
f.close()
--------------------------------------------------------------------------

    Molecular point group: c1
  Charge       = 0
  Multiplicity = 1
  Basis Set: CC-PVTZ
  Basis Set:
  @DF-RHF Final Energy:  -232.23393278259186
    Total Energy =                       -232.2339327825918076
    Molecular point group: c1
  Basis Set: CC-PVTZ
  Basis Set:
  Basis Set: CC-PVTZ
  Basis Set:
  @DF-RHF Final Energy:  -232.23443468548476
    Total Energy =                       -232.2344346854848709
  Basis Set: CC-PVTZ
  Basis Set:
  Basis Set: CC-PVTZ
  Basis Set:
  @DF-RHF Final Energy:  -232.23471425532236
    Total Energy =                       -232.2347142553223875
  Basis Set: CC-PVTZ
  Basis Set:
  Basis Set: CC-PVTZ
  Basis Set:
  @DF-RHF Final Energy:  -232.23474561967774
    Total Energy =                       -232.2347456196778239
  Basis Set: CC-PVTZ
  Basis Set:
  Basis Set: CC-PVTZ
  Basis Set:
  @DF-RHF Final Energy:  -232.23474931266998
    Total Energy =                       -232.2347493126699760
  Basis Set: CC-PVTZ
  Basis Set:
  Charge       = 0
  Multiplicity = 1
  Basis Set: CC-PVTZ
  Basis Set:

    Orbital Energies (a.u.)
    -----------------------

    Doubly Occupied:

       1A    -20.545784     2A    -11.265366     3A    -11.211216
       4A    -11.209950     5A    -11.206332     6A     -1.363013
       7A     -1.067010     8A     -0.971301     9A     -0.869174
      10A     -0.780565    11A     -0.707440    12A     -0.648121
      13A     -0.605716    14A     -0.583935    15A     -0.561842
      16A     -0.537195    17A     -0.509999    18A     -0.476918
      19A     -0.472422    20A     -0.454428    21A     -0.431466

  @DF-RHF Final Energy:  -232.23474995456027

   => Energetics <=

    Nuclear Repulsion Energy =            189.6693436613107622
    One-Electron Energy =                -690.8497978102827801
    Two-Electron Energy =                 268.9457041944117464
    DFT Exchange-Correlation Energy =       0.0000000000000000
    Empirical Dispersion Energy =           0.0000000000000000
    PCM Polarization Energy =               0.0000000000000000
    EFP Energy =                            0.0000000000000000
    Total Energy =                       -232.2347499545602432
    Molecular point group: c1
  Basis Set: CC-PVTZ
  Basis Set:

  -Total Gradient:
     Atom            X                  Y                   Z
    ------   -----------------  -----------------  -----------------
       1        0.000001521939     0.000004846162     0.000005999217
       2        0.001580471523     0.002691066136     0.001267470110
       3       -0.002202682849    -0.004023085603    -0.002325125335
       4        0.001418619762     0.004015983775     0.004394089912
       5       -0.000000544285    -0.000001208246     0.000006412498
       6       -0.000012690848     0.000000158067    -0.000005270699
       7       -0.000029995227    -0.000003786647    -0.000019201671
       8       -0.000795634630    -0.002685349692    -0.003332748254
       9        0.000003743449    -0.000007277117     0.000001836717
      10        0.000031445002    -0.000006348272    -0.000003600143
      11       -0.000002901642     0.000002955646     0.000023952130
      12       -0.000007018384     0.000012152176    -0.000017494374
      13        0.000002933796     0.000008271261    -0.000003599594
      14        0.000001254504    -0.000011478203     0.000015883635
      15        0.000011477890     0.000003100555    -0.000008604150

  **** Optimization is complete! (in 6 steps) ****
    Final optimized geometry and variables:
    Molecular point group: c1

    Geometry (in Angstrom), charge = 0, multiplicity = 1:

    H            2.696814774835    -0.701822003573    -0.255548334857
    O            2.016968761524    -0.087621615585    -0.462648790176
    C            1.078834011106    -0.034607360285     0.583595863796
    C           -0.078885462177     0.854666869873     0.144081596444
    H            1.546743968812     0.381014811460     1.472113246310
    H            0.732397145925    -1.032189809045     0.835573741674
    C           -1.202856128953     0.110624830164    -0.583652909580
    H            0.334533657254     1.587346396529    -0.538439498330
    H           -0.484633306882     1.383692088080     1.000226960499
    C           -2.088161258424    -0.736876000539     0.326442904891
    H           -0.767856276336    -0.512131932746    -1.359326224529
    H           -1.826916831814     0.838101745267    -1.093034267104
    H           -2.866001980104    -1.232812264657    -0.242853738024
    H           -1.525067866760    -1.506015229947     0.842945800522
    H           -2.571407046530    -0.122207869091     1.079138955379

  Mulliken Charges: (a.u.)
   Center  Symbol    Alpha    Beta     Spin     Total
       1     H     0.39506  0.39506  0.00000  0.20987
       2     O     4.20053  4.20053  0.00000 -0.40107
       3     C     2.96687  2.96687  0.00000  0.06625
       4     C     3.09344  3.09344  0.00000 -0.18688
       5     H     0.46897  0.46897  0.00000  0.06206
       6     H     0.47426  0.47426  0.00000  0.05148
       7     C     3.09365  3.09365  0.00000 -0.18729
       8     H     0.44503  0.44503  0.00000  0.10993
       9     H     0.45269  0.45269  0.00000  0.09463
      10     C     3.15002  3.15002  0.00000 -0.30004
      11     H     0.44906  0.44906  0.00000  0.10189
      12     H     0.44973  0.44973  0.00000  0.10054
      13     H     0.44763  0.44763  0.00000  0.10473
      14     H     0.45708  0.45708  0.00000  0.08583
      15     H     0.45596  0.45596  0.00000  0.08807

   Total alpha = 21.00000, Total beta = 21.00000, Total charge =  0.00000
