                              Psi4 1.0.54 Driver

  ==> Input File <==

--------------------------------------------------------------------------
set {
	reference rhf
	basis cc-pvtz
}

set_num_threads( 4 )
memory 2 gb

molecule MOL {
0 1

O	 -0.988175	 -1.402891	 0.050086
C	 -0.675048	 -0.248293	 -0.009686
C	 -1.742492	 0.826599	 -0.011538
N	 0.622280	 0.144970	 -0.099307
H	 -1.692153	 1.431066	 -0.908439
H	 -2.698310	 0.331559	 0.031353
H	 -1.642148	 1.483784	 0.843455
C	 1.048878	 1.319369	 0.631959
C	 1.534530	 -0.310973	 -1.120910
H	 2.044212	 1.156998	 1.027142
H	 0.369179	 1.506537	 1.443227
H	 1.075552	 2.196242	 -0.009924
H	 2.536464	 -0.346876	 -0.712897
H	 1.286996	 -1.301205	 -1.463054
H	 1.548644	 0.356259	 -1.979773

	symmetry c1
}
set optking {
	frozen_dihedral = ("
		8 4 2 3
	")
}

ee,wfn = optimize('scf', return_wfn=True)
oeprop( wfn, 'DIPOLE', 'QUADRUPOLE', 'MULLIKEN_CHARGES')
f=open( 'psi4out.xyz', 'w' )
f.write( "15  " )
f.write( str(ee) + "\n" )
f.write( MOL.save_string_xyz() )
f.close()
--------------------------------------------------------------------------

    Molecular point group: c1
  Charge       = 0
  Multiplicity = 1
  Basis Set: CC-PVTZ
  Basis Set:
  @DF-RHF Final Energy:  -286.11469792055505
    Total Energy =                       -286.1146979205548178
    Molecular point group: c1
  Basis Set: CC-PVTZ
  Basis Set:
  Basis Set: CC-PVTZ
  Basis Set:
  @DF-RHF Final Energy:  -286.09006837492529
    Total Energy =                       -286.0900683749255222
  Basis Set: CC-PVTZ
  Basis Set:
  Basis Set: CC-PVTZ
  Basis Set:
  @DF-RHF Final Energy:  -286.11861665116669
    Total Energy =                       -286.1186166511668603
  Basis Set: CC-PVTZ
  Basis Set:
  Basis Set: CC-PVTZ
  Basis Set:
  @DF-RHF Final Energy:  -286.12284722862739
    Total Energy =                       -286.1228472286272222
  Basis Set: CC-PVTZ
  Basis Set:
  @DF-RHF Final Energy:  -286.12640533521585
    Total Energy =                       -286.1264053352159067
  @DF-RHF Final Energy:  -286.12803272502492
    Total Energy =                       -286.1280327250249798
  @DF-RHF Final Energy:  -286.12982602937791
    Total Energy =                       -286.1298260293781368
  @DF-RHF Final Energy:  -286.12407414669701
    Total Energy =                       -286.1240741466971258
  @DF-RHF Final Energy:  -286.13209279399905
    Total Energy =                       -286.1320927939994476
  @DF-RHF Final Energy:  -286.13274686538682
    Total Energy =                       -286.1327468653869346
  @DF-RHF Final Energy:  -286.13343151440284
    Total Energy =                       -286.1334315144026164
  @DF-RHF Final Energy:  -286.13348977305424
    Total Energy =                       -286.1334897730538387
  Basis Set: CC-PVTZ
  Basis Set:
  @DF-RHF Final Energy:  -286.13349814025241
    Total Energy =                       -286.1334981402525273
  Basis Set: CC-PVTZ
  Basis Set:
  Basis Set: CC-PVTZ
  Basis Set:
  @DF-RHF Final Energy:  -286.13350245457593
    Total Energy =                       -286.1335024545761598
  Basis Set: CC-PVTZ
  Basis Set:
  Basis Set: CC-PVTZ
  Basis Set:
  @DF-RHF Final Energy:  -286.13350413872979
    Total Energy =                       -286.1335041387300180
  Basis Set: CC-PVTZ
  Basis Set:
  Charge       = 0
  Multiplicity = 1
  Basis Set: CC-PVTZ
  Basis Set:

    Orbital Energies (a.u.)
    -----------------------

    Doubly Occupied:

       1A    -20.514166     2A    -15.575617     3A    -11.336257
       4A    -11.262890     5A    -11.244713     6A    -11.226703
       7A     -1.395105     8A     -1.244582     9A     -1.014470
      10A     -0.970152    11A     -0.915531    12A     -0.737744
      13A     -0.682999    14A     -0.660563    15A     -0.653023
      16A     -0.594583    17A     -0.579871    18A     -0.569550
      19A     -0.560562    20A     -0.543384    21A     -0.528062
      22A     -0.503707    23A     -0.420185    24A     -0.377277

  @DF-RHF Final Energy:  -286.13350440120439

   => Energetics <=

    Nuclear Repulsion Energy =            253.2543553010711150
    One-Electron Energy =                -890.5523249879197465
    Two-Electron Energy =                 351.1644652856443827
    DFT Exchange-Correlation Energy =       0.0000000000000000
    Empirical Dispersion Energy =           0.0000000000000000
    PCM Polarization Energy =               0.0000000000000000
    EFP Energy =                            0.0000000000000000
    Total Energy =                       -286.1335044012042772
    Molecular point group: c1
  Basis Set: CC-PVTZ
  Basis Set:

  -Total Gradient:
     Atom            X                  Y                   Z
    ------   -----------------  -----------------  -----------------
       1       -0.000019711132     0.000020067136    -0.000039687169
       2        0.003795550177    -0.003441547675     0.005580511322
       3       -0.001638885699     0.001199840280    -0.003183862050
       4       -0.004657030264     0.005214190841    -0.003644936652
       5        0.000004066328     0.000000073408    -0.000005072314
       6       -0.000004820278     0.000004238145     0.000001248848
       7       -0.000003892242     0.000006218452    -0.000011178112
       8        0.002458356223    -0.003001295175     0.001288119827
       9        0.000078547657    -0.000025201897     0.000020494662
      10        0.000015665670    -0.000003524541     0.000010688632
      11        0.000002048424     0.000004830085    -0.000007480873
      12       -0.000002404495     0.000006526672    -0.000008001893
      13       -0.000016772682     0.000007593499    -0.000000129465
      14       -0.000001685883     0.000008351664    -0.000003531906
      15       -0.000009031806    -0.000000360894     0.000002817142

  **** Optimization is complete! (in 16 steps) ****
    Final optimized geometry and variables:
    Molecular point group: c1

    Geometry (in Angstrom), charge = 0, multiplicity = 1:

    O           -0.729674799590    -1.450877461784    -0.435431933583
    C           -0.610237236026    -0.359637321195     0.034551395718
    C           -1.730917606782     0.253810460791     0.847554643423
    N            0.483542527527     0.426967341574    -0.223780971150
    H           -1.909674030542     1.281628708772     0.563036037564
    H           -2.616864048939    -0.335807174064     0.676420422221
    H           -1.500918759355     0.228679423644     1.906478382319
    C            1.007029821840     1.304103099033     0.803916457101
    C            1.510907714275    -0.170367353178    -1.056469193053
    H            1.612243084207     0.763186746865     1.528602470797
    H            0.213711903804     1.809339921738     1.330560129847
    H            1.629478841680     2.059648652861     0.344383148206
    H            2.108902161545    -0.896334634611    -0.511766776990
    H            1.058199197399    -0.669743193721    -1.895779849660
    H            2.161959741121     0.614310944386    -1.418005324973

  Mulliken Charges: (a.u.)
   Center  Symbol    Alpha    Beta     Spin     Total
       1     O     4.20792  4.20792  0.00000 -0.41584
       2     C     2.84210  2.84210  0.00000  0.31580
       3     C     3.15962  3.15962  0.00000 -0.31924
       4     N     3.57833  3.57833  0.00000 -0.15666
       5     H     0.44720  0.44720  0.00000  0.10560
       6     H     0.42920  0.42920  0.00000  0.14160
       7     H     0.44784  0.44784  0.00000  0.10432
       8     C     3.09563  3.09563  0.00000 -0.19126
       9     C     3.09390  3.09390  0.00000 -0.18780
      10     H     0.45652  0.45652  0.00000  0.08696
      11     H     0.44599  0.44599  0.00000  0.10802
      12     H     0.44786  0.44786  0.00000  0.10428
      13     H     0.45807  0.45807  0.00000  0.08387
      14     H     0.43387  0.43387  0.00000  0.13226
      15     H     0.45595  0.45595  0.00000  0.08810

   Total alpha = 24.00000, Total beta = 24.00000, Total charge =  0.00000

*** Psi4 exiting successfully. Buy a developer a beer!
