  ==> Input File <==

--------------------------------------------------------------------------
set {
	reference rhf
	basis 6-31G*
}

set_num_threads( 4 )
memory 2 gb

molecule MOL {
0 1

H	 -3.892951	 0.981613	 -0.358725
C	 -3.196921	 0.361773	 0.172313
C	 -2.076860	 -0.007332	 -0.404944
H	 -3.439953	 0.057760	 1.173024
O	 -1.180634	 -0.819263	 0.215062
H	 -1.811520	 0.292194	 -1.403480
C	 0.051604	 -1.018856	 -0.387932
C	 1.043764	 0.054862	 -0.001873
H	 -0.017620	 -1.041351	 -1.469781
H	 0.437898	 -1.966374	 -0.042284
F	 0.400901	 1.066605	 0.562848
F	 1.934979	 -0.390443	 0.868340
F	 1.698859	 0.521497	 -1.044703

	symmetry c1
}
set optking {
	frozen_dihedral = ("
		11 8 7 9
	")
}

ee = optimize('scf')
oeprop('DIPOLE', 'QUADRUPOLE', 'MULLIKEN_CHARGES')
f=open( 'psi4out.xyz', 'w' )
f.write( "13  " )
f.write( str(ee) + "\n" )
f.write( MOL.save_string_xyz() )
f.close()
--------------------------------------------------------------------------

    Molecular point group: c1
  Charge       = 0
  Multiplicity = 1
  Basis Set: 6-31G*
  Basis Set:
  @DF-RHF Final Energy:  -527.52845569194733
    Total Energy =                       -527.5284556919473289
    Molecular point group: c1
  Basis Set: 6-31G*
  Basis Set:
  Basis Set: 6-31G*
  Basis Set:
  @DF-RHF Final Energy:  -527.52952194386762
    Total Energy =                       -527.5295219438680761
  Basis Set: 6-31G*
  Basis Set:
  Basis Set: 6-31G*
  Basis Set:
  @DF-RHF Final Energy:  -527.52981863657965
    Total Energy =                       -527.5298186365791935
  Basis Set: 6-31G*
  Basis Set:
  Basis Set: 6-31G*
  Basis Set:
  @DF-RHF Final Energy:  -527.52984960909896
    Total Energy =                       -527.5298496090988465
  Basis Set: 6-31G*
  Basis Set:
  @DF-RHF Final Energy:  -527.52985735946072
    Total Energy =                       -527.5298573594609479
  Basis Set: 6-31G*
  Basis Set:
  @DF-RHF Final Energy:  -527.52986203325509
    Total Energy =                       -527.5298620332550854
  Basis Set: 6-31G*
  Basis Set:
  Basis Set: 6-31G*
  Basis Set:
  @DF-RHF Final Energy:  -527.52986596120240
    Total Energy =                       -527.5298659612024039
  Basis Set: 6-31G*
  Basis Set:
  Basis Set: 6-31G*
  Basis Set:
  @DF-RHF Final Energy:  -527.52986722696255
    Total Energy =                       -527.5298672269623239
  Basis Set: 6-31G*
  Basis Set:
  Charge       = 0
  Multiplicity = 1
  Basis Set: 6-31G*
  Basis Set:

    Orbital Energies (a.u.)
    -----------------------

    Doubly Occupied:

       1A    -26.343728     2A    -26.343550     3A    -26.339759
       4A    -20.607996     5A    -11.504751     6A    -11.318628
       7A    -11.299716     8A    -11.216220     9A     -1.742050
      10A     -1.640308    11A     -1.636577    12A     -1.438348
      13A     -1.080906    14A     -1.015133    15A     -0.925650
      16A     -0.837288    17A     -0.829574    18A     -0.821513
      19A     -0.789434    20A     -0.725878    21A     -0.714818
      22A     -0.695432    23A     -0.674110    24A     -0.660683
      25A     -0.654357    26A     -0.642115    27A     -0.627177
      28A     -0.584260    29A     -0.561941    30A     -0.525263
      31A     -0.511920    32A     -0.351719

  @DF-RHF Final Energy:  -527.52986779357730

   => Energetics <=

    Nuclear Repulsion Energy =            412.3385669548418377
    One-Electron Energy =               -1548.4152605795788986
    Two-Electron Energy =                 608.5468258311593672
    DFT Exchange-Correlation Energy =       0.0000000000000000
    Empirical Dispersion Energy =           0.0000000000000000
    PCM Polarization Energy =               0.0000000000000000
    EFP Energy =                            0.0000000000000000
    Total Energy =                       -527.5298677935777505
    Molecular point group: c1
  Basis Set: 6-31G*
  Basis Set:

  -Total Gradient:
     Atom            X                  Y                   Z
    ------   -----------------  -----------------  -----------------
       1        0.000001090957     0.000004511839     0.000002562616
       2       -0.000017566178     0.000014776617    -0.000000503696
       3       -0.000034162188    -0.000074313138     0.000002234173
       4        0.000002198063     0.000000776558     0.000000367675
       5       -0.000013857798     0.000010970913    -0.000039911754
       6        0.000002706768     0.000007404864    -0.000001897739
       7       -0.002752769959     0.002366330207     0.000851293171
       8        0.000211006716     0.000794233977    -0.003413992507
       9        0.002306623842    -0.002203210953     0.000015142901
      10        0.000000313264    -0.000010621421    -0.000000957612
      11        0.000362942370    -0.000983657356     0.002513346635
      12       -0.000034634099     0.000039689018     0.000015414359
      13       -0.000033891745     0.000033108876     0.000056901776

  **** Optimization is complete! (in 9 steps) ****
    Final optimized geometry and variables:
    Molecular point group: c1

    Geometry (in Angstrom), charge = 0, multiplicity = 1:

    H           -3.923005436017     0.971559538356    -0.349499090271
    C           -3.259455752051     0.300497315481     0.160410080297
    C           -2.074730914572     0.042347737738    -0.343262288370
    H           -3.585667820136    -0.141720363752     1.083006791972
    O           -1.204912036552    -0.809114368267     0.259940381816
    H           -1.728528040180     0.479905601649    -1.263457803658
    C            0.018741913611    -1.023341230980    -0.349975107767
    C            1.054725428174     0.057254957991    -0.020623449061
    H           -0.060113825463    -1.102917118430    -1.427819148940
    H            0.399676652460    -1.960783268740     0.026037769613
    F            0.508926740978     1.138175389645     0.495933626017
    F            1.950297074219    -0.385379799814     0.847681176126
    F            1.718409372535     0.415107311446    -1.110409292432

  Mulliken Charges: (a.u.)
   Center  Symbol    Alpha    Beta     Spin     Total
       1     H     0.40698  0.40698  0.00000  0.18604
       2     C     3.23633  3.23633  0.00000 -0.47265
       3     C     2.89426  2.89426  0.00000  0.21148
       4     H     0.40201  0.40201  0.00000  0.19597
       5     O     4.29808  4.29808  0.00000 -0.59617
       6     H     0.40751  0.40751  0.00000  0.18499
       7     C     3.08349  3.08349  0.00000 -0.16699
       8     C     2.44642  2.44642  0.00000  1.10716
       9     H     0.40089  0.40089  0.00000  0.19821
      10     H     0.38490  0.38490  0.00000  0.23020
      11     F     4.67338  4.67338  0.00000 -0.34675
      12     F     4.68161  4.68161  0.00000 -0.36322
      13     F     4.68413  4.68413  0.00000 -0.36826

   Total alpha = 32.00000, Total beta = 32.00000, Total charge =  0.00000
