                              Psi4 1.0.54 Driver

  ==> Input File <==

--------------------------------------------------------------------------
set {
	reference rhf
	basis cc-pvtz
}

set_num_threads( 4 )
memory 2 gb

molecule MOL {
0 1

H	 -1.835082	 1.385983	 0.000069
C	 -1.300516	 0.441153	 -0.000028
O	 -0.006604	 0.654344	 -0.000106
O	 -1.828920	 -0.612308	 0.000113
C	 0.544458	 1.384198	 -1.092565
C	 2.033478	 1.497220	 -0.867291
H	 0.072671	 2.355482	 -1.137102
H	 0.318288	 0.861746	 -2.011180
H	 2.244968	 2.018806	 0.057474
H	 2.484493	 2.048933	 -1.683412
H	 2.491821	 0.517555	 -0.820971

	symmetry c1
}
set optking {
	frozen_dihedral = ("
		5 3 2 4
	")
}

ee,wfn = optimize('scf', return_wfn=True)
oeprop( wfn, 'DIPOLE', 'QUADRUPOLE', 'MULLIKEN_CHARGES')
f=open( 'psi4out.xyz', 'w' )
f.write( "11  " )
f.write( str(ee) + "\n" )
f.write( MOL.save_string_xyz() )
f.close()
--------------------------------------------------------------------------

    Molecular point group: c1
  Charge       = 0
  Multiplicity = 1
  Basis Set: CC-PVTZ
  Basis Set:
  @DF-RHF Final Energy:  -266.91465199990040
    Total Energy =                       -266.9146519999003999
    Molecular point group: c1
  Basis Set: CC-PVTZ
  Basis Set:
  Basis Set: CC-PVTZ
  Basis Set:
  @DF-RHF Final Energy:  -266.91567787359571
    Total Energy =                       -266.9156778735955413
  Basis Set: CC-PVTZ
  Basis Set:
  Basis Set: CC-PVTZ
  Basis Set:
  @DF-RHF Final Energy:  -266.91386420886556
    Total Energy =                       -266.9138642088655615
  Basis Set: CC-PVTZ
  Basis Set:
  Basis Set: CC-PVTZ
  Basis Set:
  @DF-RHF Final Energy:  -266.91597857863314
    Total Energy =                       -266.9159785786332009
  Basis Set: CC-PVTZ
  Basis Set:
  Basis Set: CC-PVTZ
  Basis Set:
  @DF-RHF Final Energy:  -266.91600905989145
    Total Energy =                       -266.9160090598915076
  Basis Set: CC-PVTZ
  Basis Set:
  Basis Set: CC-PVTZ
  Basis Set:
  @DF-RHF Final Energy:  -266.91602181681867
    Total Energy =                       -266.9160218168184429
  Basis Set: CC-PVTZ
  Basis Set:
  Charge       = 0
  Multiplicity = 1
  Basis Set: CC-PVTZ
  Basis Set:

    Orbital Energies (a.u.)
    -----------------------

    Doubly Occupied:

       1A    -20.592552     2A    -20.556388     3A    -11.373468
       4A    -11.302863     5A    -11.229623     6A     -1.472385
       7A     -1.384869     8A     -1.052339     9A     -0.887603
      10A     -0.839540    11A     -0.743691    12A     -0.693982
      13A     -0.657993    14A     -0.633337    15A     -0.567897
      16A     -0.547191    17A     -0.539170    18A     -0.510518
      19A     -0.467624    20A     -0.456565

  @DF-RHF Final Energy:  -266.91602293618490

   => Energetics <=

    Nuclear Repulsion Energy =            176.9351771611405297
    One-Electron Energy =                -714.6832031267633738
    Two-Electron Energy =                 270.8320030294378284
    DFT Exchange-Correlation Energy =       0.0000000000000000
    Empirical Dispersion Energy =           0.0000000000000000
    PCM Polarization Energy =               0.0000000000000000
    EFP Energy =                            0.0000000000000000
    Total Energy =                       -266.9160229361850725
    Molecular point group: c1
  Basis Set: CC-PVTZ
  Basis Set:

  -Total Gradient:
     Atom            X                  Y                   Z
    ------   -----------------  -----------------  -----------------
       1       -0.000009396968     0.000041560090    -0.000042639747
       2        0.000411727398    -0.002621972353     0.007185359582
       3       -0.000281698863     0.005394974986     0.000991354564
       4       -0.000294792427     0.000567579645    -0.005577494981
       5        0.000154375212    -0.003386995061    -0.002534033882
       6        0.000000380510     0.000000579026    -0.000010334910
       7        0.000016167201     0.000003964623    -0.000011173116
       8        0.000020210101     0.000006581373     0.000007930149
       9       -0.000012864823    -0.000006388703    -0.000013643653
      10       -0.000000157607    -0.000003121833     0.000003427250
      11       -0.000003949738     0.000003238207     0.000001248745

  **** Optimization is complete! (in 7 steps) ****
    Final optimized geometry and variables:
    Molecular point group: c1

    Geometry (in Angstrom), charge = 0, multiplicity = 1:

    H           -1.687574796294     0.772089934360     0.506066187717
    C           -1.196994379544    -0.196886201527     0.401264311817
    O            0.130908153045    -0.113096046180     0.369886274977
    O           -1.792198112422    -1.201477916872     0.313608821858
    C            0.689064671824     0.671793873037    -0.670744956359
    C            2.165866316876     0.838813732770    -0.403484482446
    H            0.192149884033     1.637335564301    -0.706761087272
    H            0.519283420333     0.167912980139    -1.614680568625
    H            2.327976621244     1.348885782745     0.537231319181
    H            2.620032502466     1.420888136869    -1.196469843646
    H            2.653242418315    -0.126125340822    -0.360068717152

  Mulliken Charges: (a.u.)
   Center  Symbol    Alpha    Beta     Spin     Total
       1     H     0.47258  0.47258  0.00000  0.05484
       2     C     2.84018  2.84018  0.00000  0.31963
       3     O     4.14546  4.14546  0.00000 -0.29092
       4     O     4.16451  4.16451  0.00000 -0.32902
       5     C     2.97200  2.97200  0.00000  0.05599
       6     C     3.13314  3.13314  0.00000 -0.26627
       7     H     0.46552  0.46552  0.00000  0.06895
       8     H     0.45642  0.45642  0.00000  0.08716
       9     H     0.44942  0.44942  0.00000  0.10117
      10     H     0.45563  0.45563  0.00000  0.08874
      11     H     0.44514  0.44514  0.00000  0.10972

   Total alpha = 20.00000, Total beta = 20.00000, Total charge =  0.00000

*** Psi4 exiting successfully. Buy a developer a beer!
