  ==> Input File <==

--------------------------------------------------------------------------
set {
	reference rhf
	basis 6-31G*
}

set_num_threads( 1 )
memory 2 gb

molecule MOL {
0 1

O	 3.225979	 0.970355	 -0.599647
C	 2.701189	 0.057885	 -0.047330
C	 1.245376	 -0.013843	 0.345420
O	 3.347903	 -1.046386	 0.304773
C	 0.455112	 1.231400	 -0.050772
H	 0.838542	 -0.913825	 -0.103701
H	 1.208210	 -0.175333	 1.419774
C	 -0.998893	 1.219485	 0.433193
H	 0.482531	 1.345121	 -1.130325
H	 0.957290	 2.103070	 0.354729
C	 -1.883438	 0.145884	 -0.207175
H	 -1.431207	 2.195402	 0.224832
H	 -1.019646	 1.105716	 1.516076
C	 -3.347647	 0.245583	 0.225435
H	 -1.822183	 0.231698	 -1.291012
H	 -1.510341	 -0.844814	 0.042401
C	 -3.524684	 0.380076	 1.738941
H	 -3.886062	 -0.634681	 -0.121669
H	 -3.811276	 1.099035	 -0.266873
C	 -4.989903	 0.475210	 2.162950
H	 -3.061078	 -0.471450	 2.232515
H	 -2.990812	 1.261846	 2.087140
H	 -5.082673	 0.569666	 3.240484
H	 -5.543961	 -0.408642	 1.859602
H	 -5.473214	 1.337674	 1.712572
C	 4.728119	 -1.109107	 -0.004993
H	 4.882018	 -1.033965	 -1.071845
H	 5.068212	 -2.067527	 0.355250
H	 5.265056	 -0.311663	 0.488280

	symmetry c1
}
set optking {
	frozen_dihedral = ("
		21 17 14 11,
		15 11 8 5,
		6 3 5 9,
		11 8 5 9,
		2 4 26 27,
		1 2 4 26,
		6 3 2 1
	")
}

ee = energy('scf')
oeprop('DIPOLE', 'QUADRUPOLE', 'MULLIKEN_CHARGES')
f=open( 'psi4out.xyz', 'w' )
f.write( "29  " )
f.write( str(ee) + "\n" )
f.write( MOL.save_string_xyz() )
f.close()
--------------------------------------------------------------------------

    Molecular point group: c1

    Geometry (in Angstrom), charge = 0, multiplicity = 1:

       Center              X                  Y                   Z               Mass
    ------------   -----------------  -----------------  -----------------  -----------------
           O          3.095021636811     0.750306457432    -0.992171327908    15.994914619560
           C          2.570231636811    -0.162163542568    -0.439854327908    12.000000000000
           C          1.114418636811    -0.233891542568    -0.047104327908    12.000000000000
           O          3.216945636811    -1.266434542568    -0.087751327908    15.994914619560
           C          0.324154636811     1.011351457432    -0.443296327908    12.000000000000
           H          0.707584636811    -1.133873542568    -0.496225327908     1.007825032070
           H          1.077252636811    -0.395381542568     1.027249672092     1.007825032070
           C         -1.129850363189     0.999436457432     0.040668672092    12.000000000000
           H          0.351573636811     1.125072457432    -1.522849327908     1.007825032070
           H          0.826332636811     1.883021457432    -0.037795327908     1.007825032070
           C         -2.014395363189    -0.074164542568    -0.599699327908    12.000000000000
           H         -1.562164363189     1.975353457432    -0.167692327908     1.007825032070
           H         -1.150603363189     0.885667457432     1.123551672092     1.007825032070
           C         -3.478604363189     0.025534457432    -0.167089327908    12.000000000000
           H         -1.953140363189     0.011649457432    -1.683536327908     1.007825032070
           H         -1.641298363189    -1.064862542568    -0.350123327908     1.007825032070
           C         -3.655641363189     0.160027457432     1.346416672092    12.000000000000
           H         -4.017019363189    -0.854729542568    -0.514193327908     1.007825032070
           H         -3.942233363189     0.878986457432    -0.659397327908     1.007825032070
           C         -5.120860363189     0.255161457432     1.770425672092    12.000000000000
           H         -3.192035363189    -0.691498542568     1.839990672092     1.007825032070
           H         -3.121769363189     1.041797457432     1.694615672092     1.007825032070
           H         -5.213630363189     0.349617457432     2.847959672092     1.007825032070
           H         -5.674918363189    -0.628690542568     1.467077672092     1.007825032070
           H         -5.604171363189     1.117625457432     1.320047672092     1.007825032070
           C          4.597161636811    -1.329155542568    -0.397517327908    12.000000000000
           H          4.751060636811    -1.254013542568    -1.464369327908     1.007825032070
           H          4.937254636811    -2.287575542568    -0.037274327908     1.007825032070
           H          5.134098636811    -0.531711542568     0.095755672092     1.007825032070

  Charge       = 0
  Multiplicity = 1
  Basis Set: 6-31G*
  Basis Set:

    Orbital Energies (a.u.)
    -----------------------

    Doubly Occupied:

       1A    -20.603295     2A    -20.545068     3A    -11.371914
       4A    -11.280609     5A    -11.234631     6A    -11.218718
       7A    -11.216758     8A    -11.215862     9A    -11.215141
      10A    -11.214324    11A    -11.208853    12A     -1.468985
      13A     -1.362412    14A     -1.099902    15A     -1.066286
      16A     -1.016820    17A     -0.977141    18A     -0.928783
      19A     -0.861505    20A     -0.819631    21A     -0.775532
      22A     -0.758892    23A     -0.700833    24A     -0.682221
      25A     -0.671686    26A     -0.644577    27A     -0.628007
      28A     -0.607319    29A     -0.599160    30A     -0.581314
      31A     -0.565008    32A     -0.555012    33A     -0.545295
      34A     -0.524103    35A     -0.515087    36A     -0.508593
      37A     -0.492584    38A     -0.485165    39A     -0.472853
      40A     -0.456823    41A     -0.454098    42A     -0.449579
      43A     -0.442808    44A     -0.436869

  @DF-RHF Final Energy:  -501.03984579093287

   => Energetics <=

    Nuclear Repulsion Energy =            618.1140360151963478
    One-Electron Energy =               -1907.3477917606874144
    Two-Electron Energy =                 788.1939099545569434
    DFT Exchange-Correlation Energy =       0.0000000000000000
    Empirical Dispersion Energy =           0.0000000000000000
    PCM Polarization Energy =               0.0000000000000000
    EFP Energy =                            0.0000000000000000
    Total Energy =                       -501.0398457909342369

  Mulliken Charges: (a.u.)
   Center  Symbol    Alpha    Beta     Spin     Total
       1     O     4.28600  4.28600  0.00000 -0.57199
       2     C     2.60480  2.60480  0.00000  0.79041
       3     C     3.20971  3.20971  0.00000 -0.41943
       4     O     4.30750  4.30750  0.00000 -0.61500
       5     C     3.15233  3.15233  0.00000 -0.30466
       6     H     0.39884  0.39884  0.00000  0.20233
       7     H     0.40136  0.40136  0.00000  0.19728
       8     C     3.16274  3.16274  0.00000 -0.32549
       9     H     0.41345  0.41345  0.00000  0.17309
      10     H     0.40904  0.40904  0.00000  0.18192
      11     C     3.15509  3.15509  0.00000 -0.31019
      12     H     0.41867  0.41867  0.00000  0.16266
      13     H     0.41997  0.41997  0.00000  0.16005
      14     C     3.15104  3.15104  0.00000 -0.30207
      15     H     0.42048  0.42048  0.00000  0.15903
      16     H     0.42366  0.42366  0.00000  0.15268
      17     C     3.15714  3.15714  0.00000 -0.31427
      18     H     0.42146  0.42146  0.00000  0.15707
      19     H     0.42335  0.42335  0.00000  0.15331
      20     C     3.23817  3.23817  0.00000 -0.47634
      21     H     0.42414  0.42414  0.00000  0.15171
      22     H     0.41864  0.41864  0.00000  0.16272
      23     H     0.41957  0.41957  0.00000  0.16086
      24     H     0.42208  0.42208  0.00000  0.15585
      25     H     0.42161  0.42161  0.00000  0.15677
      26     C     3.09240  3.09240  0.00000 -0.18480
      27     H     0.40908  0.40908  0.00000  0.18184
      28     H     0.40853  0.40853  0.00000  0.18293
      29     H     0.40914  0.40914  0.00000  0.18172

   Total alpha = 44.00000, Total beta = 44.00000, Total charge =  0.00000
