  ==> Input File <==

--------------------------------------------------------------------------
set {
	reference rhf
	basis 6-31G*
}

set_num_threads( 4 )
memory 2 gb

molecule MOL {
0 1

O	 -0.655917	 -0.072580	 0.225741
C	 0.486307	 0.169203	 0.000779
C	 1.608116	 -0.841643	 0.000302
O	 0.933273	 1.384636	 -0.283039
C	 2.990107	 -0.200498	 -0.000684
H	 1.468623	 -1.481519	 -0.865924
H	 1.469683	 -1.481289	 0.866878
H	 3.129736	 0.423364	 -0.875135
H	 3.757882	 -0.966877	 -0.001197
H	 3.130964	 0.423383	 0.873533
C	 -0.017604	 2.443916	 -0.317093
C	 0.731230	 3.715210	 -0.656752
H	 -0.504218	 2.511909	 0.646323
H	 -0.773536	 2.215570	 -1.056022
H	 1.488183	 3.927001	 0.089790
H	 0.041138	 4.551927	 -0.693174
H	 1.217387	 3.629169	 -1.621897

	symmetry c1
}
set optking {
	frozen_dihedral = ("
		4 2 3 6
	")
}

ee = optimize('scf')
oeprop('DIPOLE', 'QUADRUPOLE', 'MULLIKEN_CHARGES')
f=open( 'psi4out.xyz', 'w' )
f.write( "17  " )
f.write( str(ee) + "\n" )
f.write( MOL.save_string_xyz() )
f.close()
--------------------------------------------------------------------------

    Molecular point group: c1
  Charge       = 0
  Multiplicity = 1
  Basis Set: 6-31G*
  Basis Set:
  @DF-RHF Final Energy:  -344.90823595523960
    Total Energy =                       -344.9082359552394337
    Molecular point group: c1
  Basis Set: 6-31G*
  Basis Set:
  Basis Set: 6-31G*
  Basis Set:
  @DF-RHF Final Energy:  -344.90896788701252
    Total Energy =                       -344.9089678870124089
  Basis Set: 6-31G*
  Basis Set:
  Basis Set: 6-31G*
  Basis Set:
  @DF-RHF Final Energy:  -344.90938753498193
    Total Energy =                       -344.9093875349821019
  Basis Set: 6-31G*
  Basis Set:
  Basis Set: 6-31G*
  Basis Set:
  @DF-RHF Final Energy:  -344.90938662200364
    Total Energy =                       -344.9093866220033533
  Basis Set: 6-31G*
  Basis Set:
  Basis Set: 6-31G*
  Basis Set:
  @DF-RHF Final Energy:  -344.90947176382849
    Total Energy =                       -344.9094717638283214
  Basis Set: 6-31G*
  Basis Set:
  Charge       = 0
  Multiplicity = 1
  Basis Set: 6-31G*
  Basis Set:

    Orbital Energies (a.u.)
    -----------------------

    Doubly Occupied:

       1A    -20.603704     2A    -20.539273     3A    -11.371526
       4A    -11.285567     5A    -11.237817     6A    -11.223076
       7A    -11.220293     8A     -1.468355     9A     -1.359922
      10A     -1.072033    11A     -1.030281    12A     -0.904990
      13A     -0.861112    14A     -0.778417    15A     -0.690359
      16A     -0.678412    17A     -0.670633    18A     -0.629454
      19A     -0.575227    20A     -0.571792    21A     -0.553040
      22A     -0.549162    23A     -0.522192    24A     -0.514506
      25A     -0.506645    26A     -0.490774    27A     -0.450064
      28A     -0.430475

  @DF-RHF Final Energy:  -344.90947783428118

   => Energetics <=

    Nuclear Repulsion Energy =            317.5936087573864484
    One-Electron Energy =               -1099.4279679034843866
    Two-Electron Energy =                 436.9248813118166481
    DFT Exchange-Correlation Energy =       0.0000000000000000
    Empirical Dispersion Energy =           0.0000000000000000
    PCM Polarization Energy =               0.0000000000000000
    EFP Energy =                            0.0000000000000000
    Total Energy =                       -344.9094778342813470
    Molecular point group: c1
  Basis Set: 6-31G*
  Basis Set:

  -Total Gradient:
     Atom            X                  Y                   Z
    ------   -----------------  -----------------  -----------------
       1       -0.000011634963    -0.000006973334    -0.000001254506
       2       -0.000194877870    -0.000252497291    -0.000405010772
       3        0.000304674943     0.000375256977    -0.000164510265
       4        0.000057035603     0.000207030801     0.000324916333
       5        0.000012701788    -0.000014403268     0.000013048025
       6       -0.000235452384    -0.000280158885     0.000240805774
       7        0.000013431805    -0.000011438747    -0.000005791507
       8       -0.000002680047    -0.000003139587     0.000010934961
       9        0.000018215101     0.000001320765    -0.000004085049
      10        0.000001452874    -0.000004860274    -0.000013900783
      11        0.000020731759    -0.000015712848     0.000018028318
      12        0.000008941571     0.000003943347    -0.000005902852
      13       -0.000004213224     0.000003539051    -0.000006427299
      14       -0.000000598912    -0.000002561706     0.000000758510
      15        0.000005808934     0.000006212751     0.000001082268
      16        0.000000985370    -0.000011904076     0.000001608467
      17        0.000005477653     0.000006346333    -0.000004299624

  **** Optimization is complete! (in 6 steps) ****
    Final optimized geometry and variables:
    Molecular point group: c1

    Geometry (in Angstrom), charge = 0, multiplicity = 1:

    O           -1.497292926621    -1.033453979843     0.370387215950
    C           -0.358374927625    -0.765767103594     0.152748950292
    C            0.748705729402    -1.798216451925     0.153753867022
    O            0.058668281793     0.457210940501    -0.130982474832
    C            2.177895342150    -1.263657537581     0.155476085499
    H            0.575105352759    -2.424956582842    -0.716866896816
    H            0.566662130819    -2.432706788361     1.013679180837
    H            2.380249469910    -0.669701178980    -0.726823757828
    H            2.879209566024    -2.091136219965     0.175821716430
    H            2.366602862221    -0.642884346191     1.023903723855
    C           -0.919920653914     1.491332707529    -0.174468447396
    C           -0.202072089532     2.781338440875    -0.510264372396
    H           -1.415594134618     1.546327918352     0.784867129829
    H           -1.663006583931     1.240519936909    -0.918841519518
    H            0.543094423396     3.014396330228     0.241839283223
    H           -0.913969634904     3.599228344236    -0.553234060169
    H            0.293610309765     2.707411162659    -1.471579045051

  Mulliken Charges: (a.u.)
   Center  Symbol    Alpha    Beta     Spin     Total
       1     O     4.28934  4.28934  0.00000 -0.57868
       2     C     2.60501  2.60501  0.00000  0.78998
       3     C     3.20823  3.20823  0.00000 -0.41646
       4     O     4.31094  4.31094  0.00000 -0.62188
       5     C     3.23826  3.23826  0.00000 -0.47652
       6     H     0.39874  0.39874  0.00000  0.20252
       7     H     0.39736  0.39736  0.00000  0.20528
       8     H     0.41071  0.41071  0.00000  0.17858
       9     H     0.41686  0.41686  0.00000  0.16629
      10     H     0.41447  0.41447  0.00000  0.17106
      11     C     3.00269  3.00269  0.00000 -0.00537
      12     C     3.24885  3.24885  0.00000 -0.49771
      13     H     0.40927  0.40927  0.00000  0.18146
      14     H     0.40955  0.40955  0.00000  0.18090
      15     H     0.41178  0.41178  0.00000  0.17643
      16     H     0.41597  0.41597  0.00000  0.16806
      17     H     0.41197  0.41197  0.00000  0.17606

   Total alpha = 28.00000, Total beta = 28.00000, Total charge = -0.00000
