  ==> Input File <==

--------------------------------------------------------------------------
set {
	reference rhf
	basis cc-pvtz
}

set_num_threads( 4 )
memory 2 gb

molecule MOL {
0 1

O	 0.074770	 1.259872	 0.000487
C	 0.029490	 0.077183	 0.000078
C	 -1.232113	 -0.748027	 0.000015
O	 1.106773	 -0.690081	 -0.000204
C	 -2.501422	 0.088592	 -0.000052
H	 -1.188777	 -1.400384	 -0.865133
H	 -1.188857	 -1.400312	 0.865225
H	 -2.548170	 0.725504	 -0.873205
H	 -3.371613	 -0.556398	 -0.000040
H	 -2.548215	 0.725571	 0.873047
C	 1.077236	 -1.849798	 -0.807562
H	 0.280111	 -2.509440	 -0.498210
H	 2.032188	 -2.331099	 -0.672503
H	 0.935133	 -1.587986	 -1.845592

	symmetry c1
}
set optking {
	frozen_dihedral = ("
		11 4 2 3
	")
}

ee = optimize('scf')
oeprop('DIPOLE', 'QUADRUPOLE', 'MULLIKEN_CHARGES')
f=open( 'psi4out.xyz', 'w' )
f.write( "14  " )
f.write( str(ee) + "\n" )
f.write( MOL.save_string_xyz() )
f.close()
--------------------------------------------------------------------------

    Molecular point group: c1
  Charge       = 0
  Multiplicity = 1
  Basis Set: CC-PVTZ
  Basis Set:
  @DF-RHF Final Energy:  -305.96322311048988
    Total Energy =                       -305.9632231104899347
    Molecular point group: c1
  Basis Set: CC-PVTZ
  Basis Set:
  Basis Set: CC-PVTZ
  Basis Set:
  @DF-RHF Final Energy:  -305.96485317576412
    Total Energy =                       -305.9648531757640058
  Basis Set: CC-PVTZ
  Basis Set:
  Basis Set: CC-PVTZ
  Basis Set:
  @DF-RHF Final Energy:  -305.96979315476727
    Total Energy =                       -305.9697931547673306
  Basis Set: CC-PVTZ
  Basis Set:
  Basis Set: CC-PVTZ
  Basis Set:
  @DF-RHF Final Energy:  -305.97080622466189
    Total Energy =                       -305.9708062246619988
  Basis Set: CC-PVTZ
  Basis Set:
  @DF-RHF Final Energy:  -305.97081711695159
    Total Energy =                       -305.9708171169514799
  Basis Set: CC-PVTZ
  Basis Set:
  @DF-RHF Final Energy:  -305.97096094733160
    Total Energy =                       -305.9709609473317187
  Basis Set: CC-PVTZ
  Basis Set:
  Basis Set: CC-PVTZ
  Basis Set:
  @DF-RHF Final Energy:  -305.97099610067482
    Total Energy =                       -305.9709961006745971
  Basis Set: CC-PVTZ
  Basis Set:
  Basis Set: CC-PVTZ
  Basis Set:
  @DF-RHF Final Energy:  -305.97099914501541
    Total Energy =                       -305.9709991450154121
  Basis Set: CC-PVTZ
  Basis Set:
  Charge       = 0
  Multiplicity = 1
  Basis Set: CC-PVTZ
  Basis Set:

    Orbital Energies (a.u.)
    -----------------------

    Doubly Occupied:

       1A    -20.590143     2A    -20.535186     3A    -11.367183
       4A    -11.293472     5A    -11.245683     6A    -11.218977
       7A     -1.465005     8A     -1.370242     9A     -1.063821
      10A     -0.984152    11A     -0.899253    12A     -0.769065
      13A     -0.705763    14A     -0.686662    15A     -0.676411
      16A     -0.628111    17A     -0.610234    18A     -0.560818
      19A     -0.550377    20A     -0.526501    21A     -0.513494
      22A     -0.498149    23A     -0.456503    24A     -0.437548

  @DF-RHF Final Energy:  -305.97099946761023

   => Energetics <=

    Nuclear Repulsion Energy =            247.7849636181626636
    One-Electron Energy =                -908.2064176619804812
    Two-Electron Energy =                 354.4504545762072780
    DFT Exchange-Correlation Energy =       0.0000000000000000
    Empirical Dispersion Energy =           0.0000000000000000
    PCM Polarization Energy =               0.0000000000000000
    EFP Energy =                            0.0000000000000000
    Total Energy =                       -305.9709994676105111
    Molecular point group: c1
  Basis Set: CC-PVTZ
  Basis Set:

  -Total Gradient:
     Atom            X                  Y                   Z
    ------   -----------------  -----------------  -----------------
       1        0.000009630076     0.000003887809     0.000005662780
       2        0.000716643392     0.000721916615    -0.005504110767
       3       -0.000084785305     0.000111203744     0.002693063321
       4       -0.001820363900    -0.002438690106     0.005204224834
       5        0.000013513129    -0.000011760909     0.000022893700
       6       -0.000013489504     0.000001408364     0.000040124162
       7        0.000021582161    -0.000001728809     0.000027715772
       8       -0.000005155613     0.000008023617    -0.000010454516
       9        0.000002276352    -0.000000419065    -0.000004873638
      10        0.000001166687    -0.000003890124    -0.000006389992
      11        0.001147742753     0.001607513674    -0.002479964603
      12        0.000005268175     0.000007756307     0.000007472062
      13       -0.000000620941     0.000010042963     0.000007189445
      14        0.000006592541    -0.000015264077    -0.000002552560

  **** Optimization is complete! (in 9 steps) ****
    Final optimized geometry and variables:
    Molecular point group: c1

    Geometry (in Angstrom), charge = 0, multiplicity = 1:

    O            0.287508624960     1.536336717647     0.133776960817
    C            0.218631386120     0.362151184709     0.083165897231
    C           -1.088460985952    -0.400798520515     0.086083034052
    O            1.339132057217    -0.366950333374     0.124918944888
    C           -2.302487986301     0.505037661977     0.222325635810
    H           -1.156363272849    -0.986655481834    -0.824327205543
    H           -1.041333018193    -1.115887139330     0.900973776339
    H           -2.355004542601     1.208478000453    -0.597154937615
    H           -3.208873523813    -0.088173130941     0.225469720625
    H           -2.260780541715     1.074153856525     1.140711204982
    C            1.462907370251    -1.561329617422    -0.607278884310
    H            0.825992335594    -2.344848361104    -0.217567664057
    H            2.491863454445    -1.866799396233    -0.509971790679
    H            1.242185649588    -1.402024308763    -1.655470507135

  Mulliken Charges: (a.u.)
   Center  Symbol    Alpha    Beta     Spin     Total
       1     O     4.17335  4.17335  0.00000 -0.34671
       2     C     2.80535  2.80535  0.00000  0.38930
       3     C     3.11952  3.11952  0.00000 -0.23903
       4     O     4.13822  4.13822  0.00000 -0.27644
       5     C     3.13916  3.13916  0.00000 -0.27831
       6     H     0.44463  0.44463  0.00000  0.11073
       7     H     0.43750  0.43750  0.00000  0.12500
       8     H     0.44629  0.44629  0.00000  0.10742
       9     H     0.45129  0.45129  0.00000  0.09742
      10     H     0.44542  0.44542  0.00000  0.10916
      11     C     3.04601  3.04601  0.00000 -0.09201
      12     H     0.46049  0.46049  0.00000  0.07902
      13     H     0.43489  0.43489  0.00000  0.13021
      14     H     0.45787  0.45787  0.00000  0.08425

   Total alpha = 24.00000, Total beta = 24.00000, Total charge = -0.00000
