                              Psi4 1.0.54 Driver

  ==> Input File <==

--------------------------------------------------------------------------
set {
	reference rhf
	basis cc-pvtz
}

set_num_threads( 4 )
memory 2 gb

molecule MOL {
0 1

H	 -1.828265	 -2.245073	 -4.776616
O	 -2.145859	 -3.118470	 -4.911310
C	 -1.438886	 -4.022268	 -4.103466
C	 -1.796182	 -3.924457	 -2.627845
H	 -1.690722	 -5.007459	 -4.472191
H	 -0.366667	 -3.892552	 -4.237517
C	 -1.404384	 -2.601264	 -1.974006
H	 -2.864940	 -4.083455	 -2.519979
H	 -1.301369	 -4.742231	 -2.109383
C	 -1.748597	 -2.552426	 -0.486065
H	 -1.903402	 -1.786052	 -2.487243
H	 -0.334683	 -2.441103	 -2.098003
C	 -1.311023	 -1.277304	 0.237018
H	 -2.820831	 -2.684562	 -0.363258
H	 -1.281757	 -3.402290	 0.004098
C	 -2.041121	 -0.006551	 -0.194127
H	 -1.465887	 -1.419715	 1.302975
H	 -0.240268	 -1.139401	 0.104276
C	 -3.489218	 0.042606	 0.286507
H	 -2.022185	 0.066287	 -1.279394
H	 -1.518764	 0.869305	 0.178730
C	 -4.219984	 1.311773	 -0.139038
H	 -4.022855	 -0.824300	 -0.093339
H	 -3.510372	 -0.038577	 1.370031
H	 -4.244251	 1.405725	 -1.219696
H	 -5.244345	 1.313233	 0.215630
H	 -3.732090	 2.196311	 0.257073

	symmetry c1
}
set optking {
	frozen_dihedral = ("
		10 13 16 20
	")
}

ee,wfn = optimize('scf', return_wfn=True)
oeprop( wfn, 'DIPOLE', 'QUADRUPOLE', 'MULLIKEN_CHARGES')
f=open( 'psi4out.xyz', 'w' )
f.write( "27  " )
f.write( str(ee) + "\n" )
f.write( MOL.save_string_xyz() )
f.close()
--------------------------------------------------------------------------

    Molecular point group: c1
  Charge       = 0
  Multiplicity = 1
  Basis Set: CC-PVTZ
  Basis Set:
  @DF-RHF Final Energy:  -388.42539437970396
    Total Energy =                       -388.4253943797039028
    Molecular point group: c1
  Basis Set: CC-PVTZ
  Basis Set:
  Basis Set: CC-PVTZ
  Basis Set:
  @DF-RHF Final Energy:  -388.42541458164618
    Total Energy =                       -388.4254145816462369
  Basis Set: CC-PVTZ
  Basis Set:
  Basis Set: CC-PVTZ
  Basis Set:
  @DF-RHF Final Energy:  -388.42581594056844
    Total Energy =                       -388.4258159405684410
  Basis Set: CC-PVTZ
  Basis Set:
  Basis Set: CC-PVTZ
  Basis Set:
  @DF-RHF Final Energy:  -388.42582186772256
    Total Energy =                       -388.4258218677224477
  Basis Set: CC-PVTZ
  Basis Set:
  Basis Set: CC-PVTZ
  Basis Set:
  @DF-RHF Final Energy:  -388.42582295112226
    Total Energy =                       -388.4258229511225409
  Basis Set: CC-PVTZ
  Basis Set:
  Charge       = 0
  Multiplicity = 1
  Basis Set: CC-PVTZ
  Basis Set:

    Orbital Energies (a.u.)
    -----------------------

    Doubly Occupied:

       1A    -20.545633     2A    -11.265203     3A    -11.216870
       4A    -11.214354     5A    -11.213467     6A    -11.213435
       7A    -11.213056     8A    -11.211850     9A    -11.206816
      10A     -1.363512    11A     -1.095973    12A     -1.061420
      13A     -1.011145    14A     -0.949997    15A     -0.887888
      16A     -0.829029    17A     -0.803618    18A     -0.767370
      19A     -0.696567    20A     -0.653590    21A     -0.636583
      22A     -0.613172    23A     -0.603708    24A     -0.590507
      25A     -0.576235    26A     -0.564337    27A     -0.534253
      28A     -0.526062    29A     -0.510600    30A     -0.494413
      31A     -0.488914    32A     -0.480967    33A     -0.467815
      34A     -0.453104    35A     -0.447076    36A     -0.445690
      37A     -0.426616

  @DF-RHF Final Energy:  -388.42582311491094

   => Energetics <=

    Nuclear Repulsion Energy =            466.1832062499109952
    One-Electron Energy =               -1450.6563811814417022
    Two-Electron Energy =                 596.0473518166197664
    DFT Exchange-Correlation Energy =       0.0000000000000000
    Empirical Dispersion Energy =           0.0000000000000000
    PCM Polarization Energy =               0.0000000000000000
    EFP Energy =                            0.0000000000000000
    Total Energy =                       -388.4258231149109406
    Molecular point group: c1
  Basis Set: CC-PVTZ
  Basis Set:

  -Total Gradient:
     Atom            X                  Y                   Z
    ------   -----------------  -----------------  -----------------
       1        0.000001734473    -0.000008837421     0.000004413793
       2        0.000008941773    -0.000015474160     0.000006305337
       3        0.000010363356     0.000005478488     0.000001899188
       4        0.000002787057    -0.000000817415    -0.000003796669
       5       -0.000007822023     0.000008388014    -0.000009761871
       6       -0.000006049252     0.000001096478    -0.000005831701
       7       -0.000007499396    -0.000001092165    -0.000004357664
       8        0.000005202325     0.000003897793     0.000003620445
       9       -0.000002273498     0.000001818192    -0.000004176832
      10        0.000697851523     0.000244119619    -0.000792476360
      11        0.000006497790    -0.000021516882     0.000003244063
      12       -0.000002331135     0.000004179929    -0.000002890979
      13       -0.001318679145    -0.000529851732     0.001120848401
      14       -0.000019188615     0.000013105700     0.000000973527
      15       -0.000004898145     0.000004661970     0.000006106516
      16        0.001817110515     0.001139915819    -0.000327897444
      17       -0.000004088274    -0.000004776357     0.000002420228
      18       -0.000002041069     0.000011943313    -0.000004009839
      19        0.000031053014     0.000006808939     0.000007759437
      20       -0.001199698086    -0.000837003992    -0.000015249301
      21       -0.000011570793    -0.000000554657     0.000003450296
      22        0.000005497626     0.000000733329     0.000008439289
      23        0.000010266972    -0.000012323329    -0.000006227273
      24       -0.000015734239    -0.000008762302     0.000011333548
      25        0.000003734790    -0.000002002623    -0.000000059293
      26        0.000004099986     0.000000383005    -0.000000886632
      27       -0.000003267530    -0.000003517549    -0.000003192213

  **** Optimization is complete! (in 6 steps) ****
    Final optimized geometry and variables:
    Molecular point group: c1

    Geometry (in Angstrom), charge = 0, multiplicity = 1:

    H            0.310375778465    -0.466711561847    -3.209101181073
    O            0.045774892458    -1.360309142550    -3.323214556307
    C            0.833685406579    -2.205615859527    -2.527010476236
    C            0.506040616069    -2.120294259260    -1.043826873124
    H            0.642902868830    -3.209177492221    -2.882591422781
    H            1.890473208379    -2.002165161493    -2.688420986053
    C            0.810861230028    -0.764306912388    -0.411169027826
    H           -0.544385609927    -2.359433423335    -0.908011612227
    H            1.074407427045    -2.892677315396    -0.531289444009
    C            0.512951070138    -0.731098020399     1.087152655630
    H            0.232243236975     0.003146084553    -0.914315927422
    H            1.859404201161    -0.519829268713    -0.571306321472
    C            0.877125251539     0.582726502826     1.785631661649
    H           -0.535710987695    -0.962439023056     1.247942250530
    H            1.070269297138    -1.531842567127     1.565261232006
    C            0.040802771111     1.808245989526     1.403643630374
    H            0.806676323049     0.437134964518     2.859903333134
    H            1.922874369685     0.797269117859     1.581532112915
    C           -1.380939155655     1.799331266851     1.964324940186
    H           -0.010309050330     1.905312637956     0.323530504019
    H            0.548653902411     2.698082963023     1.764418243449
    C           -2.169260440805     3.053176700881     1.599498959194
    H           -1.916854705945     0.927107995220     1.604038338706
    H           -1.336752848987     1.704371064419     3.045998497906
    H           -2.261088789124     3.158736512352     0.523502114655
    H           -3.170268922942     3.022818979996     2.014267235709
    H           -1.681678283419     3.945908858582     1.977001808875

  Mulliken Charges: (a.u.)
   Center  Symbol    Alpha    Beta     Spin     Total
       1     H     0.39221  0.39221  0.00000  0.21558
       2     O     4.20558  4.20558  0.00000 -0.41116
       3     C     2.98046  2.98046  0.00000  0.03909
       4     C     3.08845  3.08845  0.00000 -0.17691
       5     H     0.44844  0.44844  0.00000  0.10312
       6     H     0.46936  0.46936  0.00000  0.06128
       7     C     3.10212  3.10212  0.00000 -0.20423
       8     H     0.45076  0.45076  0.00000  0.09848
       9     H     0.45517  0.45517  0.00000  0.08965
      10     C     3.10181  3.10181  0.00000 -0.20363
      11     H     0.45631  0.45631  0.00000  0.08739
      12     H     0.45351  0.45351  0.00000  0.09298
      13     C     3.10681  3.10681  0.00000 -0.21363
      14     H     0.44978  0.44978  0.00000  0.10044
      15     H     0.44600  0.44600  0.00000  0.10799
      16     C     3.09887  3.09887  0.00000 -0.19775
      17     H     0.44714  0.44714  0.00000  0.10573
      18     H     0.44803  0.44803  0.00000  0.10395
      19     C     3.08292  3.08292  0.00000 -0.16585
      20     H     0.45453  0.45453  0.00000  0.09094
      21     H     0.44587  0.44587  0.00000  0.10826
      22     C     3.14973  3.14973  0.00000 -0.29946
      23     H     0.45362  0.45362  0.00000  0.09276
      24     H     0.45444  0.45444  0.00000  0.09112
      25     H     0.45509  0.45509  0.00000  0.08983
      26     H     0.44814  0.44814  0.00000  0.10372
      27     H     0.45485  0.45485  0.00000  0.09030

   Total alpha = 37.00000, Total beta = 37.00000, Total charge = -0.00000

*** Psi4 exiting successfully. Buy a developer a beer!
