                              Psi4 1.0.54 Driver

  ==> Input File <==

--------------------------------------------------------------------------
set {
	reference rhf
	basis cc-pvtz
}

set_num_threads( 4 )
memory 2 gb

molecule MOL {
0 1

O	 0.876308	 1.842498	 -0.473877
C	 0.136129	 1.684621	 -1.383970
C	 -1.131502	 0.870107	 -1.350193
O	 0.333130	 2.217784	 -2.578669
C	 -1.413045	 0.229353	 0.001137
H	 -1.942138	 1.525844	 -1.650790
H	 -1.052469	 0.121215	 -2.131459
C	 -2.702562	 -0.586401	 0.000228
H	 -1.467975	 1.002276	 0.759499
H	 -0.577880	 -0.404146	 0.278128
C	 -3.953810	 0.284959	 -0.000782
H	 -2.717793	 -1.238567	 -0.869075
H	 -2.719108	 -1.238472	 0.869576
H	 -3.983727	 0.924403	 -0.876454
H	 -4.852989	 -0.320147	 -0.001515
H	 -3.985140	 0.924399	 0.874841
C	 1.490248	 3.010299	 -2.752786
H	 1.477519	 3.856345	 -2.081764
H	 1.469108	 3.346974	 -3.776539
H	 2.381732	 2.428902	 -2.569871

	symmetry c1
}
set optking {
	frozen_dihedral = ("
		9 5 8 12
	")
}

ee,wfn = optimize('scf', return_wfn=True)
oeprop( wfn, 'DIPOLE', 'QUADRUPOLE', 'MULLIKEN_CHARGES')
f=open( 'psi4out.xyz', 'w' )
f.write( "20  " )
f.write( str(ee) + "\n" )
f.write( MOL.save_string_xyz() )
f.close()
--------------------------------------------------------------------------

    Molecular point group: c1
  Charge       = 0
  Multiplicity = 1
  Basis Set: CC-PVTZ
  Basis Set:
  @DF-RHF Final Energy:  -384.08106807574239
    Total Energy =                       -384.0810680757431328
    Molecular point group: c1
  Basis Set: CC-PVTZ
  Basis Set:
  Basis Set: CC-PVTZ
  Basis Set:
  @DF-RHF Final Energy:  -384.08125743177897
    Total Energy =                       -384.0812574317789085
  Basis Set: CC-PVTZ
  Basis Set:
  Basis Set: CC-PVTZ
  Basis Set:
  @DF-RHF Final Energy:  -384.08120812963580
    Total Energy =                       -384.0812081296362521
  Basis Set: CC-PVTZ
  Basis Set:
  Basis Set: CC-PVTZ
  Basis Set:
  @DF-RHF Final Energy:  -384.08133750294769
    Total Energy =                       -384.0813375029474628
  Basis Set: CC-PVTZ
  Basis Set:
  Basis Set: CC-PVTZ
  Basis Set:
  @DF-RHF Final Energy:  -384.08134154535696
    Total Energy =                       -384.0813415453570769
  Basis Set: CC-PVTZ
  Basis Set:
  Charge       = 0
  Multiplicity = 1
  Basis Set: CC-PVTZ
  Basis Set:

    Orbital Energies (a.u.)
    -----------------------

    Doubly Occupied:

       1A    -20.596319     2A    -20.534168     3A    -11.364625
       4A    -11.278493     5A    -11.233560     6A    -11.218711
       7A    -11.217546     8A    -11.210590     9A     -1.472227
      10A     -1.365815    11A     -1.089787    12A     -1.023794
      13A     -0.968764    14A     -0.893924    15A     -0.801261
      16A     -0.766998    17A     -0.703488    18A     -0.685970
      19A     -0.676188    20A     -0.634026    21A     -0.613413
      22A     -0.596354    23A     -0.571274    24A     -0.549529
      25A     -0.532622    26A     -0.524532    27A     -0.510583
      28A     -0.475476    29A     -0.473882    30A     -0.467992
      31A     -0.459089    32A     -0.440700

  @DF-RHF Final Energy:  -384.08134217970127

   => Energetics <=

    Nuclear Repulsion Energy =            385.1090919529810321
    One-Electron Energy =               -1286.4774663565301580
    Two-Electron Energy =                 517.2870322238479730
    DFT Exchange-Correlation Energy =       0.0000000000000000
    Empirical Dispersion Energy =           0.0000000000000000
    PCM Polarization Energy =               0.0000000000000000
    EFP Energy =                            0.0000000000000000
    Total Energy =                       -384.0813421797010960
    Molecular point group: c1
  Basis Set: CC-PVTZ
  Basis Set:

  -Total Gradient:
     Atom            X                  Y                   Z
    ------   -----------------  -----------------  -----------------
       1        0.000005038935     0.000002455336    -0.000002550785
       2       -0.000009761494     0.000012933703    -0.000012716650
       3        0.000011580085    -0.000005608205     0.000018023023
       4        0.000004873234    -0.000005003675     0.000005461088
       5        0.000640307364    -0.000949369732     0.001075360218
       6       -0.000003957038     0.000005586622    -0.000002364972
       7       -0.000003017549     0.000002043205     0.000005786493
       8        0.000741934725    -0.001120583351     0.000779105883
       9       -0.000633160274     0.000962026736    -0.001043893070
      10        0.000017816425     0.000007880164     0.000001430910
      11       -0.000014691695    -0.000012809570     0.000007561253
      12       -0.000725008259     0.001098237534    -0.000809728678
      13        0.000001120497    -0.000014104932     0.000003623742
      14       -0.000004525353     0.000026810507    -0.000027790594
      15       -0.000037355279    -0.000006877262     0.000003567002
      16        0.000004310229    -0.000006085338    -0.000000034392
      17        0.000003409846     0.000002676623    -0.000001420119
      18       -0.000000838195     0.000000251196     0.000001145756
      19        0.000000412733     0.000001208830    -0.000001478015
      20        0.000001511064    -0.000001668389     0.000000911900

  **** Optimization is complete! (in 6 steps) ****
    Final optimized geometry and variables:
    Molecular point group: c1

    Geometry (in Angstrom), charge = 0, multiplicity = 1:

    O            1.649600054334     0.623762440203     0.609835548401
    C            0.910850257296     0.474188994979    -0.302799693141
    C           -0.361102801998    -0.334276351070    -0.277526790957
    O            1.113741527759     1.012667574583    -1.494295833059
    C           -0.641220151313    -0.986277616922     1.071290884958
    H           -1.162513822888     0.329763793859    -0.579900177242
    H           -0.281742190874    -1.079625152246    -1.062267196139
    C           -1.925201321607    -1.819130965682     1.084150232820
    H           -0.698777127471    -0.212743258220     1.828823025261
    H            0.202082470671    -1.611930810324     1.335781420917
    C           -3.208862955879    -0.991457893923     1.106200690479
    H           -1.941946639756    -2.473640364601     0.216590715853
    H           -1.911647046109    -2.463710503398     1.956313581227
    H           -3.304210377286    -0.365142693852     0.226430591887
    H           -4.081442815794    -1.633491060827     1.141930146958
    H           -3.238504619974    -0.344778817741     1.976711244915
    C            2.275510207875     1.799784474576    -1.661309477828
    H            2.265480884887     2.642577817508    -0.986153175786
    H            2.259058359020     2.141644530744    -2.683443757498
    H            3.163390020792     1.212742039261    -1.478824734460

  Mulliken Charges: (a.u.)
   Center  Symbol    Alpha    Beta     Spin     Total
       1     O     4.19688  4.19688  0.00000 -0.39376
       2     C     2.80469  2.80469  0.00000  0.39061
       3     C     3.10132  3.10132  0.00000 -0.20264
       4     O     4.14719  4.14719  0.00000 -0.29438
       5     C     3.08773  3.08773  0.00000 -0.17547
       6     H     0.44004  0.44004  0.00000  0.11992
       7     H     0.44025  0.44025  0.00000  0.11950
       8     C     3.09406  3.09406  0.00000 -0.18812
       9     H     0.44730  0.44730  0.00000  0.10541
      10     H     0.44124  0.44124  0.00000  0.11752
      11     C     3.15041  3.15041  0.00000 -0.30081
      12     H     0.45641  0.45641  0.00000  0.08718
      13     H     0.44512  0.44512  0.00000  0.10975
      14     H     0.45612  0.45612  0.00000  0.08776
      15     H     0.44629  0.44629  0.00000  0.10743
      16     H     0.45324  0.45324  0.00000  0.09351
      17     C     3.03786  3.03786  0.00000 -0.07572
      18     H     0.45431  0.45431  0.00000  0.09138
      19     H     0.44527  0.44527  0.00000  0.10946
      20     H     0.45426  0.45426  0.00000  0.09147

   Total alpha = 32.00000, Total beta = 32.00000, Total charge = -0.00000

*** Psi4 exiting successfully. Buy a developer a beer!
