  ==> Input File <==

--------------------------------------------------------------------------
set {
	reference rhf
	basis cc-pvtz
}

set_num_threads( 4 )
memory 2 gb

molecule MOL {
0 1

O	 -0.294688	 1.318815	 -0.000872
C	 -0.448732	 0.145721	 -0.000187
C	 -1.780748	 -0.548101	 0.000195
O	 0.550743	 -0.719877	 0.000412
H	 -1.859389	 -1.183260	 -0.872613
H	 -2.570236	 0.185547	 -0.001342
H	 -1.860233	 -1.180337	 0.875064
C	 0.328021	 -1.967088	 -0.627224
H	 -0.483635	 -2.494455	 -0.148552
H	 1.246339	 -2.521336	 -0.521466
H	 0.092456	 -1.830646	 -1.672171

	symmetry c1
}
set optking {
	frozen_dihedral = ("
		8 4 2 1
	")
}

ee = optimize('scf')
oeprop('DIPOLE', 'QUADRUPOLE', 'MULLIKEN_CHARGES')
f=open( 'psi4out.xyz', 'w' )
f.write( "11  " )
f.write( str(ee) + "\n" )
f.write( MOL.save_string_xyz() )
f.close()
--------------------------------------------------------------------------

    Molecular point group: c1
  Charge       = 0
  Multiplicity = 1
  Basis Set: CC-PVTZ
  Basis Set:
  @DF-RHF Final Energy:  -266.91615831217496
    Total Energy =                       -266.9161583121748436
    Molecular point group: c1
  Basis Set: CC-PVTZ
  Basis Set:
  Basis Set: CC-PVTZ
  Basis Set:
  @DF-RHF Final Energy:  -266.91672658084457
    Total Energy =                       -266.9167265808445677
  Basis Set: CC-PVTZ
  Basis Set:
  Basis Set: CC-PVTZ
  Basis Set:
  @DF-RHF Final Energy:  -266.92208057148520
    Total Energy =                       -266.9220805714851394
  Basis Set: CC-PVTZ
  Basis Set:
  Basis Set: CC-PVTZ
  Basis Set:
  @DF-RHF Final Energy:  -266.92327613641595
    Total Energy =                       -266.9232761364157795
  Basis Set: CC-PVTZ
  Basis Set:
  @DF-RHF Final Energy:  -266.92302538436911
    Total Energy =                       -266.9230253843690548
  @DF-RHF Final Energy:  -266.92344092762681
    Total Energy =                       -266.9234409276267002
  Basis Set: CC-PVTZ
  Basis Set:
  @DF-RHF Final Energy:  -266.92357135631056
    Total Energy =                       -266.9235713563106742
  Basis Set: CC-PVTZ
  Basis Set:
  Basis Set: CC-PVTZ
  Basis Set:
  @DF-RHF Final Energy:  -266.92357568939724
    Total Energy =                       -266.9235756893975235
  Basis Set: CC-PVTZ
  Basis Set:
  Basis Set: CC-PVTZ
  Basis Set:
  @DF-RHF Final Energy:  -266.92357755722173
    Total Energy =                       -266.9235775572215061
  Basis Set: CC-PVTZ
  Basis Set:
  Charge       = 0
  Multiplicity = 1
  Basis Set: CC-PVTZ
  Basis Set:

    Orbital Energies (a.u.)
    -----------------------

    Doubly Occupied:

       1A    -20.593975     2A    -20.533851     3A    -11.371042
       4A    -11.295266     5A    -11.242163     6A     -1.467391
       7A     -1.371236     8A     -1.023416     9A     -0.983139
      10A     -0.784764    11A     -0.700009    12A     -0.688149
      13A     -0.681184    14A     -0.609164    15A     -0.594050
      16A     -0.578662    17A     -0.548105    18A     -0.512296
      19A     -0.456836    20A     -0.440681

  @DF-RHF Final Energy:  -266.92357766827195

   => Energetics <=

    Nuclear Repulsion Energy =            183.2303290095118484
    One-Electron Energy =                -727.3570564495996678
    Two-Electron Energy =                 277.2031497718156743
    DFT Exchange-Correlation Energy =       0.0000000000000000
    Empirical Dispersion Energy =           0.0000000000000000
    PCM Polarization Energy =               0.0000000000000000
    EFP Energy =                            0.0000000000000000
    Total Energy =                       -266.9235776682721735
    Molecular point group: c1
  Basis Set: CC-PVTZ
  Basis Set:

  -Total Gradient:
     Atom            X                  Y                   Z
    ------   -----------------  -----------------  -----------------
       1       -0.000004158156    -0.000016519681    -0.003256298222
       2        0.000461211157     0.000646731017     0.003305844701
       3        0.000003814149    -0.000005212373     0.000028121913
       4       -0.001353589013    -0.001704029301     0.002379278895
       5       -0.000005612651     0.000001670982    -0.000001404713
       6       -0.000002148142    -0.000001212814    -0.000003772425
       7        0.000001872117     0.000001505730    -0.000002149590
       8        0.000896516280     0.001086629083    -0.002453212519
       9        0.000001480876     0.000006896579     0.000007330548
      10       -0.000000334321    -0.000001345236     0.000002207328
      11        0.000000947704    -0.000015113985    -0.000005945915

  **** Optimization is complete! (in 10 steps) ****
    Final optimized geometry and variables:
    Molecular point group: c1

    Geometry (in Angstrom), charge = 0, multiplicity = 1:

    O            0.054271596841     1.662124134299     0.121882354501
    C           -0.156439186245     0.503752337952     0.122393603434
    C           -1.547986094980    -0.078066825965     0.151993164095
    O            0.865949433140    -0.354002855970     0.120552810025
    H           -1.768483539006    -0.596021536132    -0.773082051029
    H           -2.249985041606     0.728547131592     0.281377566334
    H           -1.647284678603    -0.787444463219     0.963845356419
    C            0.762139158128    -1.621892339428    -0.477997328334
    H            0.050047901719    -2.256132853372     0.033615386768
    H            1.740843675492    -2.067163414590    -0.406234666550
    H            0.489925586986    -1.539589066962    -1.522787518127

  Mulliken Charges: (a.u.)
   Center  Symbol    Alpha    Beta     Spin     Total
       1     O     4.17543  4.17543  0.00000 -0.35085
       2     C     2.81088  2.81088  0.00000  0.37824
       3     C     3.16454  3.16454  0.00000 -0.32907
       4     O     4.13327  4.13327  0.00000 -0.26655
       5     H     0.44825  0.44825  0.00000  0.10350
       6     H     0.42717  0.42717  0.00000  0.14565
       7     H     0.44394  0.44394  0.00000  0.11212
       8     C     3.04274  3.04274  0.00000 -0.08547
       9     H     0.46171  0.46171  0.00000  0.07659
      10     H     0.43412  0.43412  0.00000  0.13177
      11     H     0.45796  0.45796  0.00000  0.08407

   Total alpha = 20.00000, Total beta = 20.00000, Total charge = -0.00000
