  ==> Input File <==

--------------------------------------------------------------------------
set {
	reference rhf
	basis 6-31G*
}

set_num_threads( 4 )
memory 2 gb

molecule MOL {
0 1

O	 3.225979	 0.970355	 -0.599647
C	 2.701189	 0.057885	 -0.047330
C	 1.245376	 -0.013843	 0.345420
O	 3.347903	 -1.046386	 0.304773
C	 0.455112	 1.231400	 -0.050772
H	 0.838542	 -0.913825	 -0.103701
H	 1.208210	 -0.175333	 1.419774
C	 -0.998893	 1.219485	 0.433193
H	 0.482531	 1.345121	 -1.130325
H	 0.957290	 2.103070	 0.354729
C	 -1.187239	 0.826343	 1.901210
H	 -1.554764	 0.520672	 -0.187607
H	 -1.446346	 2.197310	 0.260990
C	 -2.659327	 0.722416	 2.305138
H	 -0.696719	 -0.129030	 2.081407
H	 -0.695754	 1.549004	 2.548648
C	 -2.859626	 0.335235	 3.771460
H	 -3.155828	 -0.009322	 1.670094
H	 -3.152927	 1.674236	 2.115147
C	 -4.332428	 0.229858	 4.165733
H	 -2.366145	 -0.615197	 3.963289
H	 -2.367740	 1.067860	 4.407925
H	 -4.441738	 -0.045816	 5.210081
H	 -4.844919	 -0.520492	 3.570314
H	 -4.846565	 1.175395	 4.017759
C	 4.728119	 -1.109107	 -0.004993
H	 4.882018	 -1.033965	 -1.071845
H	 5.068212	 -2.067527	 0.355250
H	 5.265056	 -0.311663	 0.488280

	symmetry c1
}
set optking {
	frozen_dihedral = ("
		11 8 5 9
	")
}

ee = optimize('scf')
oeprop('DIPOLE', 'QUADRUPOLE', 'MULLIKEN_CHARGES')
f=open( 'psi4out.xyz', 'w' )
f.write( "29  " )
f.write( str(ee) + "\n" )
f.write( MOL.save_string_xyz() )
f.close()
--------------------------------------------------------------------------

    Molecular point group: c1
  Charge       = 0
  Multiplicity = 1
  Basis Set: 6-31G*
  Basis Set:
  @DF-RHF Final Energy:  -501.04109600630613
    Total Energy =                       -501.0410960063067023
    Molecular point group: c1
  Basis Set: 6-31G*
  Basis Set:
  Basis Set: 6-31G*
  Basis Set:
  @DF-RHF Final Energy:  -501.04213002779034
    Total Energy =                       -501.0421300277905630
  Basis Set: 6-31G*
  Basis Set:
  Basis Set: 6-31G*
  Basis Set:
  @DF-RHF Final Energy:  -501.04292218237754
    Total Energy =                       -501.0429221823776516
  Basis Set: 6-31G*
  Basis Set:
  Basis Set: 6-31G*
  Basis Set:
  @DF-RHF Final Energy:  -501.04294168250226
    Total Energy =                       -501.0429416825022599
  Basis Set: 6-31G*
  Basis Set:
  @DF-RHF Final Energy:  -501.04289377541727
    Total Energy =                       -501.0428937754170420
  @DF-RHF Final Energy:  -501.04301357159773
    Total Energy =                       -501.0430135715977258
  Basis Set: 6-31G*
  Basis Set:
  @DF-RHF Final Energy:  -501.04301483885808
    Total Energy =                       -501.0430148388576299
  Basis Set: 6-31G*
  Basis Set:
  Basis Set: 6-31G*
  Basis Set:
  @DF-RHF Final Energy:  -501.04301791566184
    Total Energy =                       -501.0430179156617214
  Basis Set: 6-31G*
  Basis Set:
  Basis Set: 6-31G*
  Basis Set:
  @DF-RHF Final Energy:  -501.04301936505374
    Total Energy =                       -501.0430193650536239
  Basis Set: 6-31G*
  Basis Set:
  Charge       = 0
  Multiplicity = 1
  Basis Set: 6-31G*
  Basis Set:

    Orbital Energies (a.u.)
    -----------------------

    Doubly Occupied:

       1A    -20.603256     2A    -20.545135     3A    -11.371867
       4A    -11.280593     5A    -11.234530     6A    -11.219236
       7A    -11.217727     8A    -11.216362     9A    -11.216074
      10A    -11.214671    11A    -11.209220    12A     -1.468975
      13A     -1.362414    14A     -1.098204    15A     -1.066646
      16A     -1.019078    17A     -0.977136    18A     -0.928666
      19A     -0.863086    20A     -0.799059    21A     -0.790809
      22A     -0.761727    23A     -0.700123    24A     -0.682658
      25A     -0.671609    26A     -0.653187    27A     -0.629549
      28A     -0.604021    29A     -0.593592    30A     -0.580607
      31A     -0.567323    32A     -0.551160    33A     -0.530980
      34A     -0.528840    35A     -0.517379    36A     -0.512685
      37A     -0.496795    38A     -0.478631    39A     -0.469015
      40A     -0.461454    41A     -0.459109    42A     -0.455263
      43A     -0.440417    44A     -0.436270

  @DF-RHF Final Energy:  -501.04301967390575

   => Energetics <=

    Nuclear Repulsion Energy =            611.6494203978450059
    One-Electron Energy =               -1894.4146002186214446
    Two-Electron Energy =                 781.7221601468703511
    DFT Exchange-Correlation Energy =       0.0000000000000000
    Empirical Dispersion Energy =           0.0000000000000000
    PCM Polarization Energy =               0.0000000000000000
    EFP Energy =                            0.0000000000000000
    Total Energy =                       -501.0430196739060875
    Molecular point group: c1
  Basis Set: 6-31G*
  Basis Set:

  -Total Gradient:
     Atom            X                  Y                   Z
    ------   -----------------  -----------------  -----------------
       1        0.000009698967     0.000008786703     0.000008443435
       2       -0.000010300323     0.000003750999     0.000001204223
       3       -0.000019809188    -0.000027554807    -0.000056119037
       4       -0.000005233194    -0.000006177349    -0.000017151741
       5       -0.000240569176     0.003424618563     0.000140083373
       6        0.000001468815     0.000005833497     0.000018963303
       7       -0.000002211169     0.000017378657     0.000017422137
       8       -0.000002313391     0.002989764715     0.000925657955
       9        0.000222899971    -0.003732357294    -0.000332963352
      10        0.000006558976    -0.000001078326    -0.000003407183
      11        0.000033877314    -0.002690079748    -0.000708447424
      12       -0.000009612956    -0.000000712780     0.000005050149
      13        0.000006981269    -0.000000200953    -0.000000317308
      14        0.000002627180    -0.000000133213    -0.000005663389
      15        0.000002016210     0.000000630610     0.000001779382
      16        0.000002282071     0.000005091423    -0.000005829283
      17        0.000000383051    -0.000001820536    -0.000000392018
      18       -0.000005647752     0.000003400634    -0.000000054550
      19        0.000004101259     0.000000784062     0.000001791222
      20       -0.000001124762    -0.000005740670     0.000000416806
      21        0.000002934541     0.000000447905     0.000004027719
      22       -0.000003285865     0.000002606864    -0.000002553954
      23       -0.000001340477    -0.000002195989    -0.000000250392
      24       -0.000000590970     0.000001541188    -0.000001004680
      25        0.000001505681     0.000000116523     0.000001575590
      26        0.000005011222     0.000004957097     0.000010793046
      27       -0.000003301636     0.000000017951     0.000000091947
      28        0.000000582505    -0.000000637067    -0.000001377821
      29        0.000002411820    -0.000001038658    -0.000001768151

  **** Optimization is complete! (in 10 steps) ****
    Final optimized geometry and variables:
    Molecular point group: c1

    Geometry (in Angstrom), charge = 0, multiplicity = 1:

    O            2.811629771042     0.655727198320    -1.888088778828
    C            2.376066654745    -0.220117566692    -1.212571087896
    C            0.972484749912    -0.293192669671    -0.661153858389
    O            3.090626426419    -1.276613033782    -0.845127746779
    C            0.114269372165     0.909581585324    -1.052220850036
    H            0.533724591527    -1.222000656806    -1.017152390069
    H            1.059909879459    -0.399833073567     0.414802944237
    C           -1.358714796104     0.784022197698    -0.640266011581
    H            0.166550842579     1.009211412394    -2.130762643217
    H            0.548418506343     1.810122280489    -0.630049387021
    C           -1.607940287127     0.397211252796     0.820504461568
    H           -1.842015152969     0.046288935556    -1.279256083641
    H           -1.850867808954     1.730507747023    -0.849822957341
    C           -3.090235584531     0.437620589573     1.197762884888
    H           -1.224527262690    -0.602125999300     1.009935525111
    H           -1.053292974637     1.067992590447     1.475936952426
    C           -3.358278030450     0.027576611763     2.646940026967
    H           -3.649075346759    -0.217116551146     0.530805680594
    H           -3.476739539920     1.441665493078     1.031784932712
    C           -4.840585992462     0.073160380792     3.016277930910
    H           -2.976175883427    -0.977420317027     2.813554602661
    H           -2.800112307221     0.680363108390     3.314775580187
    H           -4.998451156657    -0.223206422826     4.048680027027
    H           -5.422000397525    -0.595482404028     2.387685874783
    H           -5.244394255701     1.074271100683     2.894209191055
    C            4.431578117019    -1.333782190167    -1.296113821131
    H            4.469424928769    -1.343294033382    -2.375938574687
    H            4.837424143122    -2.251473154370    -0.899704308608
    H            4.992683848089    -0.486656137200    -0.928606544240

  Mulliken Charges: (a.u.)
   Center  Symbol    Alpha    Beta     Spin     Total
       1     O     4.28598  4.28598  0.00000 -0.57197
       2     C     2.60466  2.60466  0.00000  0.79067
       3     C     3.21174  3.21174  0.00000 -0.42349
       4     O     4.30743  4.30743  0.00000 -0.61485
       5     C     3.15262  3.15262  0.00000 -0.30525
       6     H     0.40145  0.40145  0.00000  0.19709
       7     H     0.39828  0.39828  0.00000  0.20344
       8     C     3.15572  3.15572  0.00000 -0.31145
       9     H     0.40859  0.40859  0.00000  0.18281
      10     H     0.41306  0.41306  0.00000  0.17389
      11     C     3.15705  3.15705  0.00000 -0.31410
      12     H     0.42342  0.42342  0.00000  0.15316
      13     H     0.41808  0.41808  0.00000  0.16384
      14     C     3.15019  3.15019  0.00000 -0.30038
      15     H     0.42237  0.42237  0.00000  0.15526
      16     H     0.42346  0.42346  0.00000  0.15309
      17     C     3.15144  3.15144  0.00000 -0.30289
      18     H     0.42386  0.42386  0.00000  0.15229
      19     H     0.42320  0.42320  0.00000  0.15359
      20     C     3.23936  3.23936  0.00000 -0.47871
      21     H     0.42340  0.42340  0.00000  0.15320
      22     H     0.42295  0.42295  0.00000  0.15410
      23     H     0.41922  0.41922  0.00000  0.16155
      24     H     0.42176  0.42176  0.00000  0.15648
      25     H     0.42153  0.42153  0.00000  0.15693
      26     C     3.09237  3.09237  0.00000 -0.18474
      27     H     0.40915  0.40915  0.00000  0.18170
      28     H     0.40853  0.40853  0.00000  0.18294
      29     H     0.40911  0.40911  0.00000  0.18178

   Total alpha = 44.00000, Total beta = 44.00000, Total charge = -0.00000
