  ==> Input File <==

--------------------------------------------------------------------------
set {
	reference rhf
	basis cc-pvtz
}

set_num_threads( 4 )
memory 2 gb

molecule MOL {
0 1

O	 -0.294688	 1.318815	 -0.000872
C	 -0.448732	 0.145721	 -0.000187
C	 -1.780748	 -0.548101	 0.000195
O	 0.550743	 -0.719877	 0.000412
H	 -1.859389	 -1.183260	 -0.872613
H	 -2.570236	 0.185547	 -0.001342
H	 -1.860233	 -1.180337	 0.875064
C	 0.897712	 -1.309708	 -1.236834
H	 0.063730	 -1.863466	 -1.641623
H	 1.720583	 -1.974095	 -1.029092
H	 1.197960	 -0.554350	 -1.947684

	symmetry c1
}
set optking {
	frozen_dihedral = ("
		8 4 2 1
	")
}

ee = optimize('scf')
oeprop('DIPOLE', 'QUADRUPOLE', 'MULLIKEN_CHARGES')
f=open( 'psi4out.xyz', 'w' )
f.write( "11  " )
f.write( str(ee) + "\n" )
f.write( MOL.save_string_xyz() )
f.close()
--------------------------------------------------------------------------

    Molecular point group: c1
  Charge       = 0
  Multiplicity = 1
  Basis Set: CC-PVTZ
  Basis Set:
  @DF-RHF Final Energy:  -266.91699267730377
    Total Energy =                       -266.9169926773038242
    Molecular point group: c1
  Basis Set: CC-PVTZ
  Basis Set:
  Basis Set: CC-PVTZ
  Basis Set:
  @DF-RHF Final Energy:  -266.91607624357300
    Total Energy =                       -266.9160762435728884
  Basis Set: CC-PVTZ
  Basis Set:
  Basis Set: CC-PVTZ
  Basis Set:
  @DF-RHF Final Energy:  -266.91809592213986
    Total Energy =                       -266.9180959221400826
  Basis Set: CC-PVTZ
  Basis Set:
  Basis Set: CC-PVTZ
  Basis Set:
  @DF-RHF Final Energy:  -266.91891712511267
    Total Energy =                       -266.9189171251126709
  Basis Set: CC-PVTZ
  Basis Set:
  @DF-RHF Final Energy:  -266.91894360638179
    Total Energy =                       -266.9189436063818448
  Basis Set: CC-PVTZ
  Basis Set:
  @DF-RHF Final Energy:  -266.91894900911484
    Total Energy =                       -266.9189490091147263
  Basis Set: CC-PVTZ
  Basis Set:
  Basis Set: CC-PVTZ
  Basis Set:
  @DF-RHF Final Energy:  -266.91895138719929
    Total Energy =                       -266.9189513871991153
  Basis Set: CC-PVTZ
  Basis Set:
  Basis Set: CC-PVTZ
  Basis Set:
  @DF-RHF Final Energy:  -266.91895262119431
    Total Energy =                       -266.9189526211943644
  Basis Set: CC-PVTZ
  Basis Set:
  Charge       = 0
  Multiplicity = 1
  Basis Set: CC-PVTZ
  Basis Set:

    Orbital Energies (a.u.)
    -----------------------

    Doubly Occupied:

       1A    -20.580913     2A    -20.546999     3A    -11.372357
       4A    -11.291905     5A    -11.238608     6A     -1.463817
       7A     -1.372558     8A     -1.026348     9A     -0.967603
      10A     -0.780786    11A     -0.697368    12A     -0.687283
      13A     -0.672162    14A     -0.617268    15A     -0.589704
      16A     -0.580072    17A     -0.544400    18A     -0.497265
      19A     -0.464831    20A     -0.444385

  @DF-RHF Final Energy:  -266.91895327554664

   => Energetics <=

    Nuclear Repulsion Energy =            182.7140435795679423
    One-Electron Energy =                -726.3927282242059391
    Two-Electron Energy =                 276.7597313690914120
    DFT Exchange-Correlation Energy =       0.0000000000000000
    Empirical Dispersion Energy =           0.0000000000000000
    PCM Polarization Energy =               0.0000000000000000
    EFP Energy =                            0.0000000000000000
    Total Energy =                       -266.9189532755465848
    Molecular point group: c1
  Basis Set: CC-PVTZ
  Basis Set:

  -Total Gradient:
     Atom            X                  Y                   Z
    ------   -----------------  -----------------  -----------------
       1       -0.000025155077    -0.000044292887     0.001106748585
       2       -0.000274337547    -0.000224870505    -0.001551858221
       3        0.000004285215    -0.000015975449    -0.000006382291
       4        0.000858217380     0.000952144929     0.000337206459
       5        0.000007437363     0.000008739255     0.000003109641
       6       -0.000004273003     0.000000393713     0.000003753520
       7        0.000001987711     0.000004396731     0.000002782887
       8       -0.000569282105    -0.000694986013     0.000095536857
       9        0.000002845513     0.000004318625     0.000000060024
      10       -0.000002060520     0.000008748400     0.000006212943
      11        0.000000335069     0.000001383202     0.000002829597

  **** Optimization is complete! (in 9 steps) ****
    Final optimized geometry and variables:
    Molecular point group: c1

    Geometry (in Angstrom), charge = 0, multiplicity = 1:

    O           -0.081553845784     1.530652699049     0.287947032287
    C           -0.264858832945     0.370592526777     0.247958430563
    C           -1.623528443267    -0.273539981996     0.285644320398
    O            0.764189590757    -0.502888059917     0.245419574900
    H           -1.748730586058    -0.957032270986    -0.544236406190
    H           -2.390394073550     0.483353929032     0.256593394956
    H           -1.707068494604    -0.851367335782     1.198013225557
    C            1.150681556259    -1.052666322165    -0.992571168547
    H            0.351259090754    -1.633545172699    -1.438082315183
    H            1.987479420090    -1.702327090220    -0.794703896250
    H            1.457265620549    -0.272123177696    -1.677640794116

  Mulliken Charges: (a.u.)
   Center  Symbol    Alpha    Beta     Spin     Total
       1     O     4.16649  4.16649  0.00000 -0.33298
       2     C     2.79906  2.79906  0.00000  0.40188
       3     C     3.14381  3.14381  0.00000 -0.28763
       4     O     4.16277  4.16277  0.00000 -0.32554
       5     H     0.45151  0.45151  0.00000  0.09698
       6     H     0.43637  0.43637  0.00000  0.12727
       7     H     0.44335  0.44335  0.00000  0.11330
       8     C     3.03132  3.03132  0.00000 -0.06264
       9     H     0.46681  0.46681  0.00000  0.06637
      10     H     0.44208  0.44208  0.00000  0.11584
      11     H     0.45642  0.45642  0.00000  0.08715

   Total alpha = 20.00000, Total beta = 20.00000, Total charge = -0.00000
