                              Psi4 1.0.54 Driver

  ==> Input File <==

--------------------------------------------------------------------------
set {
	reference rhf
	basis cc-pvtz
}

set_num_threads( 4 )
memory 2 gb

molecule MOL {
0 1

H	 1.053212	 -0.405487	 -4.234108
O	 1.100395	 -1.195236	 -4.739974
C	 1.521313	 -2.263938	 -3.933762
C	 0.459239	 -2.739122	 -2.953514
H	 1.770812	 -3.066863	 -4.614234
H	 2.431826	 -2.000241	 -3.399084
C	 0.088232	 -1.713430	 -1.884796
H	 -0.427227	 -3.020202	 -3.514165
H	 0.828287	 -3.641963	 -2.472807
C	 -0.955880	 -2.237361	 -0.899828
H	 -0.286188	 -0.815230	 -2.364431
H	 0.983267	 -1.425345	 -1.335975
C	 -1.311023	 -1.277304	 0.237018
H	 -1.860084	 -2.499234	 -1.443947
H	 -0.586712	 -3.162205	 -0.465261
C	 -2.041121	 -0.006551	 -0.194127
H	 -1.935170	 -1.809151	 0.949835
H	 -0.404615	 -1.006612	 0.773959
C	 -3.489218	 0.042606	 0.286507
H	 -2.022185	 0.066287	 -1.279394
H	 -1.518764	 0.869305	 0.178730
C	 -4.219984	 1.311773	 -0.139038
H	 -4.022855	 -0.824300	 -0.093339
H	 -3.510372	 -0.038577	 1.370031
H	 -4.244251	 1.405725	 -1.219696
H	 -5.244345	 1.313233	 0.215630
H	 -3.732090	 2.196311	 0.257073

	symmetry c1
}
set optking {
	frozen_dihedral = ("
		10 13 16 20
	")
}

ee,wfn = optimize('scf', return_wfn=True)
oeprop( wfn, 'DIPOLE', 'QUADRUPOLE', 'MULLIKEN_CHARGES')
f=open( 'psi4out.xyz', 'w' )
f.write( "27  " )
f.write( str(ee) + "\n" )
f.write( MOL.save_string_xyz() )
f.close()
--------------------------------------------------------------------------

    Molecular point group: c1
  Charge       = 0
  Multiplicity = 1
  Basis Set: CC-PVTZ
  Basis Set:
  @DF-RHF Final Energy:  -388.42246776159112
    Total Energy =                       -388.4224677615907240
    Molecular point group: c1
  Basis Set: CC-PVTZ
  Basis Set:
  Basis Set: CC-PVTZ
  Basis Set:
  @DF-RHF Final Energy:  -388.42265860563089
    Total Energy =                       -388.4226586056309998
  Basis Set: CC-PVTZ
  Basis Set:
  Basis Set: CC-PVTZ
  Basis Set:
  @DF-RHF Final Energy:  -388.42293034986710
    Total Energy =                       -388.4229303498671015
  Basis Set: CC-PVTZ
  Basis Set:
  Basis Set: CC-PVTZ
  Basis Set:
  @DF-RHF Final Energy:  -388.42295052813199
    Total Energy =                       -388.4229505281317643
  Basis Set: CC-PVTZ
  Basis Set:
  Basis Set: CC-PVTZ
  Basis Set:
  @DF-RHF Final Energy:  -388.42296585020864
    Total Energy =                       -388.4229658502081293
  Basis Set: CC-PVTZ
  Basis Set:
  Basis Set: CC-PVTZ
  Basis Set:
  @DF-RHF Final Energy:  -388.42296252936950
    Total Energy =                       -388.4229625293688741
  Basis Set: CC-PVTZ
  Basis Set:
  Basis Set: CC-PVTZ
  Basis Set:
  @DF-RHF Final Energy:  -388.42296718181024
    Total Energy =                       -388.4229671818101224
  Basis Set: CC-PVTZ
  Basis Set:
  Charge       = 0
  Multiplicity = 1
  Basis Set: CC-PVTZ
  Basis Set:

    Orbital Energies (a.u.)
    -----------------------

    Doubly Occupied:

       1A    -20.545413     2A    -11.265070     3A    -11.216773
       4A    -11.214962     5A    -11.213873     6A    -11.213328
       7A    -11.212789     8A    -11.211699     9A    -11.206622
      10A     -1.363271    11A     -1.095342    12A     -1.061673
      13A     -1.011679    14A     -0.948360    15A     -0.887976
      16A     -0.823180    17A     -0.803002    18A     -0.775992
      19A     -0.696445    20A     -0.654885    21A     -0.628761
      22A     -0.616163    23A     -0.606283    24A     -0.589117
      25A     -0.576760    26A     -0.558614    27A     -0.536371
      28A     -0.530785    29A     -0.506380    30A     -0.494525
      31A     -0.483728    32A     -0.480929    33A     -0.468687
      34A     -0.453118    35A     -0.450912    36A     -0.444640
      37A     -0.425688

  @DF-RHF Final Energy:  -388.42296762014536

   => Energetics <=

    Nuclear Repulsion Energy =            461.6809019905255695
    One-Electron Energy =               -1441.6601487860125417
    Two-Electron Energy =                 591.5562791753411602
    DFT Exchange-Correlation Energy =       0.0000000000000000
    Empirical Dispersion Energy =           0.0000000000000000
    PCM Polarization Energy =               0.0000000000000000
    EFP Energy =                            0.0000000000000000
    Total Energy =                       -388.4229676201457551
    Molecular point group: c1
  Basis Set: CC-PVTZ
  Basis Set:

  -Total Gradient:
     Atom            X                  Y                   Z
    ------   -----------------  -----------------  -----------------
       1       -0.000005580879     0.000030906724     0.000000920304
       2       -0.000015989900     0.000038560520    -0.000001658425
       3       -0.000012589464    -0.000023934953    -0.000009536964
       4        0.000003946613    -0.000008426458     0.000002722780
       5       -0.000000239441    -0.000035370297     0.000015853613
       6        0.000012387486     0.000001325415     0.000015909916
       7        0.000009794044     0.000005786576     0.000022134041
       8       -0.000018946979    -0.000003279442    -0.000011104844
       9        0.000011569127    -0.000020076643     0.000001344158
      10        0.000571881606     0.000378180188    -0.000175282777
      11       -0.000004922672     0.000015180217    -0.000002207064
      12        0.000032800628    -0.000001047140     0.000003565431
      13       -0.001025948922    -0.000645007038     0.000191205995
      14       -0.000010574145    -0.000016489841    -0.000013881447
      15        0.000004168599     0.000012324588     0.000016239322
      16        0.001235107430     0.000833289294    -0.000089981500
      17       -0.000005720142    -0.000010185199    -0.000006906174
      18        0.000003324370     0.000018499401     0.000005305393
      19        0.000002438587    -0.000008855051     0.000007136096
      20       -0.000802134901    -0.000557151774     0.000030369673
      21        0.000014414296     0.000000006939     0.000003683822
      22        0.000003889965    -0.000004283448    -0.000005454081
      23       -0.000004870497    -0.000005114964     0.000000310078
      24        0.000003007702    -0.000000866919     0.000004172683
      25       -0.000003896551     0.000002830609    -0.000008009263
      26       -0.000000558033    -0.000002234976     0.000001279165
      27        0.000003242072     0.000005433672     0.000001870066

  **** Optimization is complete! (in 8 steps) ****
    Final optimized geometry and variables:
    Molecular point group: c1

    Geometry (in Angstrom), charge = 0, multiplicity = 1:

    H            2.111607151483     0.758209929331    -2.540726993544
    O            2.101473785740    -0.009273997274    -3.081600032330
    C            2.472686656324    -1.136474780103    -2.332642310777
    C            1.400913033130    -1.593771137606    -1.354612748877
    H            2.663810445496    -1.920493162136    -3.052911331605
    H            3.405547194502    -0.950228992949    -1.804029853413
    C            1.100554658268    -0.593034454274    -0.241319607684
    H            0.492819256151    -1.805100247378    -1.911147822932
    H            1.728022718319    -2.533382771661    -0.915634869327
    C            0.066489003709    -1.106364348848     0.759067868103
    H            0.751147846604     0.337839571934    -0.676890089034
    H            2.020503889634    -0.360230281042     0.291883580985
    C           -0.280867835714    -0.110566033492     1.868194006263
    H           -0.840890257658    -1.386476190498     0.228838350977
    H            0.446631987040    -2.018358507849     1.210854651459
    C           -1.129868993039     1.093180072738     1.409296126125
    H           -0.812703411107    -0.638966253783     2.652510718617
    H            0.642318865476     0.237842763157     2.321306091038
    C           -2.553596941653     1.073381635029     1.963808460902
    H           -1.188502006622     1.113406230286     0.325504910960
    H           -0.653547524247     2.023165630969     1.702735682545
    C           -3.403472471736     2.242521822196     1.479036677760
    H           -3.032744734153     0.138425202992     1.684736647977
    H           -2.513944198422     1.081521048449     3.049585976072
    H           -3.493772581460     2.239512497927     0.397779106943
    H           -4.403989097450     2.200166646573     1.894063268799
    H           -2.965099666488     3.191641348606     1.769664449502

  Mulliken Charges: (a.u.)
   Center  Symbol    Alpha    Beta     Spin     Total
       1     H     0.39204  0.39204  0.00000  0.21592
       2     O     4.20580  4.20580  0.00000 -0.41159
       3     C     2.97997  2.97997  0.00000  0.04005
       4     C     3.08922  3.08922  0.00000 -0.17843
       5     H     0.44863  0.44863  0.00000  0.10274
       6     H     0.46936  0.46936  0.00000  0.06128
       7     C     3.10324  3.10324  0.00000 -0.20647
       8     H     0.45077  0.45077  0.00000  0.09846
       9     H     0.45517  0.45517  0.00000  0.08966
      10     C     3.09649  3.09649  0.00000 -0.19299
      11     H     0.45529  0.45529  0.00000  0.08941
      12     H     0.45328  0.45328  0.00000  0.09343
      13     C     3.10777  3.10777  0.00000 -0.21554
      14     H     0.45214  0.45214  0.00000  0.09572
      15     H     0.44790  0.44790  0.00000  0.10419
      16     C     3.09697  3.09697  0.00000 -0.19394
      17     H     0.44761  0.44761  0.00000  0.10479
      18     H     0.44774  0.44774  0.00000  0.10451
      19     C     3.08145  3.08145  0.00000 -0.16291
      20     H     0.45393  0.45393  0.00000  0.09213
      21     H     0.44819  0.44819  0.00000  0.10363
      22     C     3.15046  3.15046  0.00000 -0.30092
      23     H     0.45431  0.45431  0.00000  0.09138
      24     H     0.45353  0.45353  0.00000  0.09294
      25     H     0.45501  0.45501  0.00000  0.08999
      26     H     0.44837  0.44837  0.00000  0.10325
      27     H     0.45535  0.45535  0.00000  0.08931

   Total alpha = 37.00000, Total beta = 37.00000, Total charge =  0.00000

*** Psi4 exiting successfully. Buy a developer a beer!
