  ==> Input File <==

--------------------------------------------------------------------------
set {
	reference rhf
	basis 6-31G*
}

set_num_threads( 4 )
memory 2 gb

molecule MOL {
0 1

O	 3.225979	 0.970355	 -0.599647
C	 2.701189	 0.057885	 -0.047330
C	 1.245376	 -0.013843	 0.345420
O	 3.347903	 -1.046386	 0.304773
C	 0.317069	 0.651416	 -0.668381
H	 1.005901	 -1.062208	 0.489554
H	 1.151698	 0.449347	 1.324386
C	 -1.152303	 0.679628	 -0.234047
H	 0.408338	 0.144895	 -1.624532
H	 0.657937	 1.667617	 -0.834414
C	 -1.824190	 -0.693321	 -0.140821
H	 -1.702860	 1.288017	 -0.947821
H	 -1.237235	 1.189038	 0.724753
C	 -3.315750	 -0.604636	 0.188394
H	 -1.695220	 -1.219529	 -1.085433
H	 -1.333036	 -1.300171	 0.616458
C	 -3.996482	 -1.970861	 0.289225
H	 -3.817392	 -0.009456	 -0.572756
H	 -3.446011	 -0.069136	 1.127527
C	 -5.486586	 -1.873349	 0.614468
H	 -3.866411	 -2.507726	 -0.648058
H	 -3.499207	 -2.565653	 1.052586
H	 -5.940683	 -2.857318	 0.679328
H	 -6.018712	 -1.313321	 -0.149342
H	 -5.648593	 -1.371142	 1.564108
C	 4.728119	 -1.109107	 -0.004993
H	 4.882018	 -1.033965	 -1.071845
H	 5.068212	 -2.067527	 0.355250
H	 5.265056	 -0.311663	 0.488280

	symmetry c1
}
set optking {
	frozen_dihedral = ("
		6 3 2 1
	")
}

ee = optimize('scf')
oeprop('DIPOLE', 'QUADRUPOLE', 'MULLIKEN_CHARGES')
f=open( 'psi4out.xyz', 'w' )
f.write( "29  " )
f.write( str(ee) + "\n" )
f.write( MOL.save_string_xyz() )
f.close()
--------------------------------------------------------------------------

    Molecular point group: c1
  Charge       = 0
  Multiplicity = 1
  Basis Set: 6-31G*
  Basis Set:
  @DF-RHF Final Energy:  -501.04304528646560
    Total Energy =                       -501.0430452864651443
    Molecular point group: c1
  Basis Set: 6-31G*
  Basis Set:
  Basis Set: 6-31G*
  Basis Set:
  @DF-RHF Final Energy:  -501.04231655642400
    Total Energy =                       -501.0423165564238843
  Basis Set: 6-31G*
  Basis Set:
  Basis Set: 6-31G*
  Basis Set:
  @DF-RHF Final Energy:  -501.04322816390504
    Total Energy =                       -501.0432281639052690
  Basis Set: 6-31G*
  Basis Set:
  Basis Set: 6-31G*
  Basis Set:
  @DF-RHF Final Energy:  -501.04339680444468
    Total Energy =                       -501.0433968044441144
  Basis Set: 6-31G*
  Basis Set:
  Basis Set: 6-31G*
  Basis Set:
  @DF-RHF Final Energy:  -501.04337245437659
    Total Energy =                       -501.0433724543765948
  Basis Set: 6-31G*
  Basis Set:
  Basis Set: 6-31G*
  Basis Set:
  @DF-RHF Final Energy:  -501.04339891703103
    Total Energy =                       -501.0433989170304585
  Basis Set: 6-31G*
  Basis Set:
  Charge       = 0
  Multiplicity = 1
  Basis Set: 6-31G*
  Basis Set:

    Orbital Energies (a.u.)
    -----------------------

    Doubly Occupied:

       1A    -20.605081     2A    -20.543503     3A    -11.371946
       4A    -11.280740     5A    -11.234033     6A    -11.221341
       7A    -11.218359     8A    -11.216309     9A    -11.216094
      10A    -11.214724    11A    -11.209245    12A     -1.469572
      13A     -1.361890    14A     -1.098485    15A     -1.066880
      16A     -1.019307    17A     -0.977475    18A     -0.929145
      19A     -0.862001    20A     -0.799380    21A     -0.790610
      22A     -0.766556    23A     -0.699989    24A     -0.680873
      25A     -0.672414    26A     -0.651315    27A     -0.627588
      28A     -0.605468    29A     -0.595104    30A     -0.580759
      31A     -0.563486    32A     -0.555795    33A     -0.532707
      34A     -0.529187    35A     -0.515452    36A     -0.514653
      37A     -0.495328    38A     -0.478200    39A     -0.470210
      40A     -0.462864    41A     -0.459249    42A     -0.455728
      43A     -0.440421    44A     -0.434763

  @DF-RHF Final Energy:  -501.04339905335121

   => Energetics <=

    Nuclear Repulsion Energy =            610.3165552867948236
    One-Electron Energy =               -1891.7314562911219582
    Two-Electron Energy =                 780.3715019509758122
    DFT Exchange-Correlation Energy =       0.0000000000000000
    Empirical Dispersion Energy =           0.0000000000000000
    PCM Polarization Energy =               0.0000000000000000
    EFP Energy =                            0.0000000000000000
    Total Energy =                       -501.0433990533512087
    Molecular point group: c1
  Basis Set: 6-31G*
  Basis Set:

  -Total Gradient:
     Atom            X                  Y                   Z
    ------   -----------------  -----------------  -----------------
       1        0.000201461574     0.000382180859     0.000961939909
       2       -0.000273761616    -0.000521392099    -0.001167723797
       3       -0.000201543671     0.000088753907    -0.000776316163
       4        0.000017591640    -0.000004008696     0.000025956290
       5        0.000015707102    -0.000005795886    -0.000010943724
       6        0.000255721990     0.000055285927     0.000967169314
       7        0.000002110813     0.000005452223    -0.000002845096
       8       -0.000005579240     0.000002611653     0.000007099323
       9        0.000007598622     0.000001834215     0.000004544574
      10        0.000002173740     0.000002669134    -0.000005994734
      11        0.000002340556    -0.000000358279     0.000008743114
      12       -0.000003699499     0.000002537619     0.000003225204
      13       -0.000004053502    -0.000003578332     0.000001384893
      14        0.000000921226     0.000000904318     0.000000813206
      15        0.000003071750    -0.000003409433     0.000004471125
      16       -0.000008062133     0.000004903878     0.000001025423
      17       -0.000001461314     0.000000474583    -0.000007749363
      18       -0.000000357382     0.000004651128     0.000003457821
      19        0.000002051556    -0.000004693343     0.000002278938
      20       -0.000000665538     0.000000767090    -0.000003817695
      21        0.000001223449    -0.000003112477    -0.000000187612
      22       -0.000000850695     0.000003335466     0.000000605308
      23        0.000000249203     0.000000067024    -0.000000418735
      24       -0.000000962420     0.000000029788     0.000000204058
      25        0.000000866600    -0.000000010271    -0.000000190573
      26       -0.000027248773    -0.000016522634    -0.000029442889
      27        0.000011930437    -0.000000535541     0.000002952432
      28        0.000006606828     0.000001378382     0.000004217973
      29       -0.000003381312     0.000005579800     0.000005541477

  **** Optimization is complete! (in 7 steps) ****
    Final optimized geometry and variables:
    Molecular point group: c1

    Geometry (in Angstrom), charge = 0, multiplicity = 1:

    O            3.168334932404     1.431029664618    -0.601189560955
    C            2.678514615092     0.482721215533    -0.076156175539
    C            1.221826549065     0.361304519571     0.305459702018
    O            3.375271739102    -0.587122133296     0.281235786408
    C            0.293693502925     1.069289384734    -0.683594964213
    H            0.981384939366    -0.686292005846     0.427112439754
    H            1.128910329900     0.816564872247     1.290119501259
    C           -1.169862823683     1.118384765579    -0.233321622378
    H            0.359280362142     0.577989090296    -1.651710786306
    H            0.658079295022     2.079345468722    -0.828319936385
    C           -1.866415849095    -0.242809975937    -0.151732288584
    H           -1.716254681925     1.747988564399    -0.931788574501
    H           -1.232617963668     1.615388050836     0.733560003628
    C           -3.351887110720    -0.131032608307     0.197267845494
    H           -1.759013991751    -0.757485724172    -1.105409045605
    H           -1.377008574241    -0.869622975155     0.590134552997
    C           -4.057455345213    -1.485522525119     0.284682318895
    H           -3.851217623231     0.485893754591    -0.547939161779
    H           -3.460458620039     0.391545483176     1.146368345537
    C           -5.541338295435    -1.364985370641     0.630024171082
    H           -3.949141394862    -2.009488702562    -0.662625594553
    H           -3.562405318357    -2.101964457980     1.032122823955
    H           -6.013377232360    -2.341085911445     0.684914684471
    H           -6.071913506031    -0.782704039975    -0.118062577150
    H           -5.682081522876    -0.875179647565     1.589469182949
    C            4.767762156918    -0.561540567721     0.024045972141
    H            4.956146561847    -0.459984941035    -1.034942340229
    H            5.151473753253    -1.503403333919     0.384028711290
    H            5.235836287701     0.259096489047     0.548408446916

  Mulliken Charges: (a.u.)
   Center  Symbol    Alpha    Beta     Spin     Total
       1     O     4.28676  4.28676  0.00000 -0.57353
       2     C     2.60340  2.60340  0.00000  0.79320
       3     C     3.21154  3.21154  0.00000 -0.42308
       4     O     4.30602  4.30602  0.00000 -0.61204
       5     C     3.15908  3.15908  0.00000 -0.31817
       6     H     0.39830  0.39830  0.00000  0.20340
       7     H     0.40117  0.40117  0.00000  0.19766
       8     C     3.15633  3.15633  0.00000 -0.31267
       9     H     0.41794  0.41794  0.00000  0.16413
      10     H     0.40105  0.40105  0.00000  0.19791
      11     C     3.15486  3.15486  0.00000 -0.30971
      12     H     0.41822  0.41822  0.00000  0.16356
      13     H     0.42297  0.42297  0.00000  0.15407
      14     C     3.15040  3.15040  0.00000 -0.30080
      15     H     0.42311  0.42311  0.00000  0.15379
      16     H     0.42295  0.42295  0.00000  0.15410
      17     C     3.15144  3.15144  0.00000 -0.30289
      18     H     0.42338  0.42338  0.00000  0.15323
      19     H     0.42384  0.42384  0.00000  0.15232
      20     C     3.23936  3.23936  0.00000 -0.47872
      21     H     0.42291  0.42291  0.00000  0.15419
      22     H     0.42331  0.42331  0.00000  0.15337
      23     H     0.41921  0.41921  0.00000  0.16157
      24     H     0.42156  0.42156  0.00000  0.15687
      25     H     0.42175  0.42175  0.00000  0.15649
      26     C     3.09326  3.09326  0.00000 -0.18651
      27     H     0.40846  0.40846  0.00000  0.18309
      28     H     0.40842  0.40842  0.00000  0.18315
      29     H     0.40899  0.40899  0.00000  0.18203

   Total alpha = 44.00000, Total beta = 44.00000, Total charge =  0.00000
