  ==> Input File <==

--------------------------------------------------------------------------
set {
	reference rhf
	basis cc-pvtz
}

set_num_threads( 4 )
memory 2 gb

molecule MOL {
0 1

H	 1.128311	 0.207724	 1.465118
C	 1.134565	 0.093781	 0.372499
C	 0.062554	 0.862911	 -0.350953
O	 1.948932	 -0.587720	 -0.146651
C	 -1.255768	 0.088646	 -0.446635
H	 0.435087	 1.135628	 -1.329900
H	 -0.100344	 1.778296	 0.213502
C	 -1.169450	 -1.149616	 -1.334276
H	 -2.018096	 0.756388	 -0.830758
H	 -1.578598	 -0.197013	 0.550675
H	 -0.885139	 -0.882866	 -2.345992
H	 -2.124854	 -1.658357	 -1.379296
H	 -0.435856	 -1.857823	 -0.965065

	symmetry c1
}
set optking {
	frozen_dihedral = ("
		6 3 2 4
	")
}

ee = optimize('scf')
oeprop('DIPOLE', 'QUADRUPOLE', 'MULLIKEN_CHARGES')
f=open( 'psi4out.xyz', 'w' )
f.write( "13  " )
f.write( str(ee) + "\n" )
f.write( MOL.save_string_xyz() )
f.close()
--------------------------------------------------------------------------

    Molecular point group: c1
  Charge       = 0
  Multiplicity = 1
  Basis Set: CC-PVTZ
  Basis Set:
  @DF-RHF Final Energy:  -231.06919880108001
    Total Energy =                       -231.0691988010799207
    Molecular point group: c1
  Basis Set: CC-PVTZ
  Basis Set:
  Basis Set: CC-PVTZ
  Basis Set:
  @DF-RHF Final Energy:  -231.06739407302115
    Total Energy =                       -231.0673940730210916
  Basis Set: CC-PVTZ
  Basis Set:
  Basis Set: CC-PVTZ
  Basis Set:
  @DF-RHF Final Energy:  -231.06941791620329
    Total Energy =                       -231.0694179162033493
  Basis Set: CC-PVTZ
  Basis Set:
  Basis Set: CC-PVTZ
  Basis Set:
  @DF-RHF Final Energy:  -231.06944919729571
    Total Energy =                       -231.0694491972956826
  Basis Set: CC-PVTZ
  Basis Set:
  Basis Set: CC-PVTZ
  Basis Set:
  @DF-RHF Final Energy:  -231.06945030737148
    Total Energy =                       -231.0694503073715964
  Basis Set: CC-PVTZ
  Basis Set:
  Charge       = 0
  Multiplicity = 1
  Basis Set: CC-PVTZ
  Basis Set:

    Orbital Energies (a.u.)
    -----------------------

    Doubly Occupied:

       1A    -20.553033     2A    -11.322086     3A    -11.236808
       4A    -11.234521     5A    -11.213324     6A     -1.407924
       7A     -1.084153     8A     -0.972753     9A     -0.845859
      10A     -0.785628    11A     -0.677079    12A     -0.652909
      13A     -0.614455    14A     -0.594820    15A     -0.563126
      16A     -0.532175    17A     -0.504219    18A     -0.492476
      19A     -0.481952    20A     -0.411885

  @DF-RHF Final Energy:  -231.06945074985231

   => Energetics <=

    Nuclear Repulsion Energy =            175.4147732297852826
    One-Electron Energy =                -660.6060793223773544
    Two-Electron Energy =                 254.1218553427396216
    DFT Exchange-Correlation Energy =       0.0000000000000000
    Empirical Dispersion Energy =           0.0000000000000000
    PCM Polarization Energy =               0.0000000000000000
    EFP Energy =                            0.0000000000000000
    Total Energy =                       -231.0694507498524501
    Molecular point group: c1
  Basis Set: CC-PVTZ
  Basis Set:

  -Total Gradient:
     Atom            X                  Y                   Z
    ------   -----------------  -----------------  -----------------
       1        0.000007099186    -0.000002660269    -0.000012166920
       2        0.002197459279     0.002907356175    -0.000147103059
       3       -0.001618181193    -0.003017651627    -0.000841794867
       4       -0.001363779242    -0.001724927873     0.000240182675
       5        0.000007929220     0.000018118322     0.000018688835
       6        0.000791923184     0.001828930859     0.000739242942
       7       -0.000009973684    -0.000007782026     0.000004756168
       8       -0.000011585251    -0.000012655757    -0.000018268636
       9        0.000006031243     0.000000087696    -0.000002663120
      10       -0.000013320137     0.000000784871     0.000015479072
      11       -0.000000412784     0.000000247077    -0.000005239394
      12        0.000001539451     0.000011834418     0.000002984855
      13        0.000005270729    -0.000001681867     0.000005901448

  **** Optimization is complete! (in 6 steps) ****
    Final optimized geometry and variables:
    Molecular point group: c1

    Geometry (in Angstrom), charge = 0, multiplicity = 1:

    H            0.952859886208     0.366840214051     1.866358304961
    C            0.983898471718     0.266659799648     0.773715963617
    C           -0.078816299721     1.027094474603     0.024839931413
    O            1.788357174889    -0.438446861222     0.269322924852
    C           -1.393660154735     0.235719038098    -0.058510811176
    H            0.295594407043     1.267726522241    -0.962406995987
    H           -0.260203975912     1.959416354430     0.550499827978
    C           -1.323836835546    -0.990194391254    -0.963440449369
    H           -2.164358118829     0.907290603853    -0.418974539824
    H           -1.696911545919    -0.061979819557     0.941754997581
    H           -1.075078035246    -0.706562014480    -1.979881440800
    H           -2.279867323536    -1.499989948253    -0.983977234149
    H           -0.574448693033    -1.695373777851    -0.627792834076

  Mulliken Charges: (a.u.)
   Center  Symbol    Alpha    Beta     Spin     Total
       1     H     0.46013  0.46013  0.00000  0.07975
       2     C     2.90935  2.90935  0.00000  0.18129
       3     C     3.08828  3.08828  0.00000 -0.17657
       4     O     4.16734  4.16734  0.00000 -0.33468
       5     C     3.09788  3.09788  0.00000 -0.19576
       6     H     0.44392  0.44392  0.00000  0.11216
       7     H     0.44485  0.44485  0.00000  0.11031
       8     C     3.14156  3.14156  0.00000 -0.28311
       9     H     0.44458  0.44458  0.00000  0.11084
      10     H     0.45239  0.45239  0.00000  0.09522
      11     H     0.45383  0.45383  0.00000  0.09234
      12     H     0.44918  0.44918  0.00000  0.10164
      13     H     0.44671  0.44671  0.00000  0.10658

   Total alpha = 20.00000, Total beta = 20.00000, Total charge = -0.00000
