  ==> Input File <==

--------------------------------------------------------------------------
set {
	reference rhf
	basis 6-31G*
}

set_num_threads( 1 )
memory 2 gb

molecule MOL {
0 1

H	 -3.892951	 0.981613	 -0.358725
C	 -3.196921	 0.361773	 0.172313
C	 -2.076860	 -0.007332	 -0.404944
H	 -3.439953	 0.057760	 1.173024
O	 -1.147408	 0.894710	 -0.816404
H	 -1.819833	 -1.039036	 -0.568406
C	 -0.078387	 0.438137	 -1.571775
C	 -0.412862	 0.395096	 -3.045738
H	 0.246652	 -0.551387	 -1.270299
H	 0.739310	 1.130907	 -1.437888
F	 0.648658	 -0.011009	 -3.726957
F	 -1.400035	 -0.447750	 -3.300553
F	 -0.764258	 1.577038	 -3.508258

	symmetry c1
}
set optking {
	frozen_dihedral = ("
		11 8 7 9,
		3 5 7 9,
		6 3 5 7
	")
}

ee = energy('scf')
oeprop('DIPOLE', 'QUADRUPOLE', 'MULLIKEN_CHARGES')
f=open( 'psi4out.xyz', 'w' )
f.write( "13  " )
f.write( str(ee) + "\n" )
f.write( MOL.save_string_xyz() )
f.close()
--------------------------------------------------------------------------

    Molecular point group: c1

    Geometry (in Angstrom), charge = 0, multiplicity = 1:

       Center              X                  Y                   Z               Mass
    ------------   -----------------  -----------------  -----------------  -----------------
           H         -2.904621872578     0.581762901416     1.814614694827     1.007825032070
           C         -2.208591872578    -0.038077098584     2.345652694827    12.000000000000
           C         -1.088530872578    -0.407182098584     1.768395694827    12.000000000000
           H         -2.451623872578    -0.342090098584     3.346363694827     1.007825032070
           O         -0.159078872578     0.494859901416     1.356935694827    15.994914619560
           H         -0.831503872578    -1.438886098584     1.604933694827     1.007825032070
           C          0.909942127422     0.038286901416     0.601564694827    12.000000000000
           C          0.575467127422    -0.004754098584    -0.872398305173    12.000000000000
           H          1.234981127422    -0.951237098584     0.903040694827     1.007825032070
           H          1.727639127422     0.731056901416     0.735451694827     1.007825032070
           F          1.636987127422    -0.410859098584    -1.553617305173    18.998403224000
           F         -0.411705872578    -0.847600098584    -1.127213305173    18.998403224000
           F          0.224071127422     1.177187901416    -1.334918305173    18.998403224000

  Charge       = 0
  Multiplicity = 1
  Basis Set: 6-31G*
  Basis Set:

    Orbital Energies (a.u.)
    -----------------------

    Doubly Occupied:

       1A    -26.349598     2A    -26.347661     3A    -26.344509
       4A    -20.622639     5A    -11.507518     6A    -11.321260
       7A    -11.317238     8A    -11.200466     9A     -1.746018
      10A     -1.644316    11A     -1.642314    12A     -1.448477
      13A     -1.088151    14A     -1.018108    15A     -0.929252
      16A     -0.840811    17A     -0.835344    18A     -0.824814
      19A     -0.795956    20A     -0.725275    21A     -0.715036
      22A     -0.698260    23A     -0.678120    24A     -0.663941
      25A     -0.658363    26A     -0.647308    27A     -0.642448
      28A     -0.585265    29A     -0.579890    30A     -0.529074
      31A     -0.508297    32A     -0.303952

  @DF-RHF Final Energy:  -527.45945477605778

   => Energetics <=

    Nuclear Repulsion Energy =            413.5402442509421803
    One-Electron Energy =               -1550.4801180450867832
    Two-Electron Energy =                 609.4804190180873320
    DFT Exchange-Correlation Energy =       0.0000000000000000
    Empirical Dispersion Energy =           0.0000000000000000
    PCM Polarization Energy =               0.0000000000000000
    EFP Energy =                            0.0000000000000000
    Total Energy =                       -527.4594547760573278

  Mulliken Charges: (a.u.)
   Center  Symbol    Alpha    Beta     Spin     Total
       1     H     0.40324  0.40324  0.00000  0.19351
       2     C     3.26805  3.26805  0.00000 -0.53610
       3     C     2.88795  2.88795  0.00000  0.22410
       4     H     0.40198  0.40198  0.00000  0.19604
       5     O     4.27971  4.27971  0.00000 -0.55943
       6     H     0.40680  0.40680  0.00000  0.18640
       7     C     3.06811  3.06811  0.00000 -0.13622
       8     C     2.45643  2.45643  0.00000  1.08714
       9     H     0.40374  0.40374  0.00000  0.19252
      10     H     0.38784  0.38784  0.00000  0.22433
      11     F     4.68229  4.68229  0.00000 -0.36458
      12     F     4.67992  4.67992  0.00000 -0.35985
      13     F     4.67394  4.67394  0.00000 -0.34788

   Total alpha = 32.00000, Total beta = 32.00000, Total charge = -0.00000
