  ==> Input File <==

--------------------------------------------------------------------------
set {
	reference rhf
	basis 6-31G*
}

set_num_threads( 1 )
memory 2 gb

molecule MOL {
0 1

H	 2.993211	 -1.271012	 1.053015
O	 2.826016	 -1.159218	 0.122261
C	 2.077727	 -0.067559	 -0.035091
C	 0.624473	 -0.343591	 0.253101
O	 2.542965	 0.974826	 -0.363729
C	 -0.265902	 0.883932	 0.072916
H	 0.324016	 -1.163849	 -0.390541
H	 0.565024	 -0.726111	 1.268924
C	 -1.728698	 0.646073	 0.462102
H	 -0.209144	 1.219470	 -0.958188
H	 0.135059	 1.692851	 0.673903
C	 -2.482460	 -0.343073	 -0.431425
H	 -2.245265	 1.602650	 0.432430
H	 -1.779332	 0.308348	 1.496285
C	 -3.960546	 -0.461025	 -0.060175
H	 -2.395034	 -0.026811	 -1.468912
H	 -2.024850	 -1.327147	 -0.371646
H	 -4.472726	 -1.168004	 -0.705284
H	 -4.465146	 0.496508	 -0.151489
H	 -4.081218	 -0.800940	 0.964585

	symmetry c1
}
set optking {
	frozen_dihedral = ("
		16 12 9 6,
		7 4 6 10,
		12 9 6 10,
		5 3 4 7
	")
}

ee = energy('scf')
oeprop('DIPOLE', 'QUADRUPOLE', 'MULLIKEN_CHARGES')
f=open( 'psi4out.xyz', 'w' )
f.write( "20  " )
f.write( str(ee) + "\n" )
f.write( MOL.save_string_xyz() )
f.close()
--------------------------------------------------------------------------

    Molecular point group: c1

    Geometry (in Angstrom), charge = 0, multiplicity = 1:

       Center              X                  Y                   Z               Mass
    ------------   -----------------  -----------------  -----------------  -----------------
           H          2.999603268957    -1.268036509785     1.043260143432     1.007825032070
           O          2.832408268957    -1.156242509785     0.112506143432    15.994914619560
           C          2.084119268957    -0.064583509785    -0.044845856568    12.000000000000
           C          0.630865268957    -0.340615509785     0.243346143432    12.000000000000
           O          2.549357268957     0.977801490215    -0.373483856568    15.994914619560
           C         -0.259509731043     0.886907490215     0.063161143432    12.000000000000
           H          0.330408268957    -1.160873509785    -0.400295856568     1.007825032070
           H          0.571416268957    -0.723135509785     1.259169143432     1.007825032070
           C         -1.722305731043     0.649048490215     0.452347143432    12.000000000000
           H         -0.202751731043     1.222445490215    -0.967942856568     1.007825032070
           H          0.141451268957     1.695826490215     0.664148143432     1.007825032070
           C         -2.476067731043    -0.340097509785    -0.441179856568    12.000000000000
           H         -2.238872731043     1.605625490215     0.422675143432     1.007825032070
           H         -1.772939731043     0.311323490215     1.486530143432     1.007825032070
           C         -3.954153731043    -0.458049509785    -0.069929856568    12.000000000000
           H         -2.388641731043    -0.023835509785    -1.478666856568     1.007825032070
           H         -2.018457731043    -1.324171509785    -0.381400856568     1.007825032070
           H         -4.466333731043    -1.165028509785    -0.715038856568     1.007825032070
           H         -4.458753731043     0.499483490215    -0.161243856568     1.007825032070
           H         -4.074825731043    -0.797964509785     0.954830143432     1.007825032070

  Charge       = 0
  Multiplicity = 1
  Basis Set: 6-31G*
  Basis Set:

    Orbital Energies (a.u.)
    -----------------------

    Doubly Occupied:

       1A    -20.598633     2A    -20.559909     3A    -11.379832
       4A    -11.242731     5A    -11.224251     6A    -11.222349
       7A    -11.221752     8A    -11.213897     9A     -1.468483
      10A     -1.369409    11A     -1.097639    12A     -1.041266
      13A     -0.959249    14A     -0.865388    15A     -0.819925
      16A     -0.786089    17A     -0.714941    18A     -0.678171
      19A     -0.661458    20A     -0.639463    21A     -0.618835
      22A     -0.589144    23A     -0.561905    24A     -0.553303
      25A     -0.533237    26A     -0.506436    27A     -0.502872
      28A     -0.491178    29A     -0.471205    30A     -0.465498
      31A     -0.459374    32A     -0.442751

  @DF-RHF Final Energy:  -383.92528771496865

   => Energetics <=

    Nuclear Repulsion Energy =            376.1550083176998100
    One-Electron Energy =               -1268.2395833345854044
    Two-Electron Energy =                 508.1592873019172885
    DFT Exchange-Correlation Energy =       0.0000000000000000
    Empirical Dispersion Energy =           0.0000000000000000
    PCM Polarization Energy =               0.0000000000000000
    EFP Energy =                            0.0000000000000000
    Total Energy =                       -383.9252877149682490

  Mulliken Charges: (a.u.)
   Center  Symbol    Alpha    Beta     Spin     Total
       1     H     0.26622  0.26622  0.00000  0.46756
       2     O     4.35666  4.35666  0.00000 -0.71331
       3     C     2.63305  2.63305  0.00000  0.73390
       4     C     3.21400  3.21400  0.00000 -0.42800
       5     O     4.25159  4.25159  0.00000 -0.50318
       6     C     3.15491  3.15491  0.00000 -0.30981
       7     H     0.39473  0.39473  0.00000  0.21054
       8     H     0.41255  0.41255  0.00000  0.17490
       9     C     3.15533  3.15533  0.00000 -0.31066
      10     H     0.41059  0.41059  0.00000  0.17882
      11     H     0.40938  0.40938  0.00000  0.18124
      12     C     3.15477  3.15477  0.00000 -0.30953
      13     H     0.41766  0.41766  0.00000  0.16468
      14     H     0.42515  0.42515  0.00000  0.14970
      15     C     3.23921  3.23921  0.00000 -0.47842
      16     H     0.42069  0.42069  0.00000  0.15862
      17     H     0.42340  0.42340  0.00000  0.15320
      18     H     0.41802  0.41802  0.00000  0.16396
      19     H     0.42033  0.42033  0.00000  0.15934
      20     H     0.42177  0.42177  0.00000  0.15646

   Total alpha = 32.00000, Total beta = 32.00000, Total charge = -0.00000
