  ==> Input File <==

--------------------------------------------------------------------------
set {
	reference rhf
	basis cc-pvtz
}

set_num_threads( 4 )
memory 2 gb

molecule MOL {
0 1

H	 -2.266619	 1.169943	 0.000098
O	 -1.438073	 1.611259	 0.000041
C	 -0.408657	 0.734701	 0.000005
C	 -0.206585	 0.008639	 1.159061
C	 0.416029	 0.560714	 -1.105316
H	 -0.864458	 0.171667	 1.990058
C	 0.825004	 -0.903418	 1.229371
C	 1.444508	 -0.362321	 -1.006497
C	 0.194185	 1.353806	 -2.369433
H	 0.975823	 -1.463481	 2.132456
C	 1.658374	 -1.094441	 0.144274
H	 2.090702	 -0.508426	 -1.852106
H	 0.282115	 2.422593	 -2.195411
H	 0.925735	 1.089227	 -3.119283
H	 -0.787438	 1.166613	 -2.795694
H	 2.462871	 -1.802186	 0.191729

	symmetry c1
}
set optking {
	frozen_dihedral = ("
		4 3 2 1
	")
}

ee = optimize('scf')
oeprop('DIPOLE', 'QUADRUPOLE', 'MULLIKEN_CHARGES')
f=open( 'psi4out.xyz', 'w' )
f.write( "16  " )
f.write( str(ee) + "\n" )
f.write( MOL.save_string_xyz() )
f.close()
--------------------------------------------------------------------------

    Molecular point group: c1
  Charge       = 0
  Multiplicity = 1
  Basis Set: CC-PVTZ
  Basis Set:
  @DF-RHF Final Energy:  -344.71511323408362
    Total Energy =                       -344.7151132340836739
    Molecular point group: c1
  Basis Set: CC-PVTZ
  Basis Set:
  Basis Set: CC-PVTZ
  Basis Set:
  @DF-RHF Final Energy:  -344.71648414615362
    Total Energy =                       -344.7164841461536753
  Basis Set: CC-PVTZ
  Basis Set:
  Basis Set: CC-PVTZ
  Basis Set:
  @DF-RHF Final Energy:  -344.71656822654313
    Total Energy =                       -344.7165682265430178
  Basis Set: CC-PVTZ
  Basis Set:
  Basis Set: CC-PVTZ
  Basis Set:
  @DF-RHF Final Energy:  -344.71657492053265
    Total Energy =                       -344.7165749205320253
  Basis Set: CC-PVTZ
  Basis Set:
  Basis Set: CC-PVTZ
  Basis Set:
  @DF-RHF Final Energy:  -344.71657618044458
    Total Energy =                       -344.7165761804443491
  Basis Set: CC-PVTZ
  Basis Set:
  Charge       = 0
  Multiplicity = 1
  Basis Set: CC-PVTZ
  Basis Set:

    Orbital Energies (a.u.)
    -----------------------

    Doubly Occupied:

       1A    -20.571221     2A    -11.283595     3A    -11.232339
       4A    -11.227494     5A    -11.225816     6A    -11.223590
       7A    -11.222119     8A    -11.215642     9A     -1.397944
      10A     -1.153373    11A     -1.047587    12A     -1.006719
      13A     -0.933723    14A     -0.836794    15A     -0.805848
      16A     -0.731305    17A     -0.669836    18A     -0.659588
      19A     -0.624136    20A     -0.594368    21A     -0.573978
      22A     -0.565398    23A     -0.544535    24A     -0.524081
      25A     -0.502509    26A     -0.487313    27A     -0.467888
      28A     -0.333503    29A     -0.320252

  @DF-RHF Final Energy:  -344.71657640687994

   => Energetics <=

    Nuclear Repulsion Energy =            350.4798258293879485
    One-Electron Energy =               -1162.4278214391561050
    Two-Electron Energy =                 467.2314192028885600
    DFT Exchange-Correlation Energy =       0.0000000000000000
    Empirical Dispersion Energy =           0.0000000000000000
    PCM Polarization Energy =               0.0000000000000000
    EFP Energy =                            0.0000000000000000
    Total Energy =                       -344.7165764068796534
    Molecular point group: c1
  Basis Set: CC-PVTZ
  Basis Set:

  -Total Gradient:
     Atom            X                  Y                   Z
    ------   -----------------  -----------------  -----------------
       1        0.000027500885    -0.000077411247    -0.001540059111
       2        0.000264113330     0.000558541288     0.002107594648
       3       -0.000984484876    -0.001295845531    -0.000981570872
       4        0.000694626701     0.000805029205     0.000399526847
       5       -0.000039727942     0.000036244883     0.000026762174
       6        0.000008132585    -0.000000925182    -0.000011100460
       7       -0.000006556258     0.000003533284     0.000021870233
       8        0.000005813556    -0.000019950843     0.000010502698
       9        0.000009105916    -0.000017897937    -0.000004204091
      10        0.000005790709    -0.000009071508    -0.000001349128
      11        0.000011346787     0.000013311346    -0.000033914029
      12        0.000000352718     0.000001174066    -0.000006862432
      13        0.000006358949     0.000003727827     0.000003858935
      14        0.000000045178     0.000001588334    -0.000003016736
      15        0.000001603496    -0.000002148312     0.000006715215
      16       -0.000004021740     0.000000100330     0.000005246107

  **** Optimization is complete! (in 6 steps) ****
    Final optimized geometry and variables:
    Molecular point group: c1

    Geometry (in Angstrom), charge = 0, multiplicity = 1:

    H           -2.510675952943     0.936870898285     0.225542437313
    O           -1.666836232599     1.352765177431     0.215604158393
    C           -0.667111266686     0.420130094394     0.273895759333
    C           -0.455582106144    -0.293682144071     1.435645481077
    C            0.160420364403     0.259253143672    -0.829711100895
    H           -1.099917780136    -0.122721980578     2.277079742993
    C            0.579495154389    -1.206533186082     1.509658356671
    C            1.197076190966    -0.653699573262    -0.729849672280
    C           -0.069287990403     1.061009718558    -2.084237295050
    H            0.738012662799    -1.762734295949     2.413602154230
    C            1.409397712604    -1.387394531413     0.423023634589
    H            1.849150375490    -0.794343809565    -1.571557814570
    H           -0.015166771388     2.123520191732    -1.883135992634
    H            0.670917744221     0.816284796124    -2.834010696364
    H           -1.050419009463     0.865988937129    -2.500880542496
    H            2.219831661202    -2.089025800887     0.470317566823

  Mulliken Charges: (a.u.)
   Center  Symbol    Alpha    Beta     Spin     Total
       1     H     0.38699  0.38699  0.00000  0.22602
       2     O     4.18932  4.18932  0.00000 -0.37865
       3     C     2.88574  2.88574  0.00000  0.22853
       4     C     3.11382  3.11382  0.00000 -0.22763
       5     C     2.99179  2.99179  0.00000  0.01643
       6     H     0.42153  0.42153  0.00000  0.15695
       7     C     3.07636  3.07636  0.00000 -0.15272
       8     C     3.09336  3.09336  0.00000 -0.18673
       9     C     3.13974  3.13974  0.00000 -0.27948
      10     H     0.42228  0.42228  0.00000  0.15544
      11     C     3.08042  3.08042  0.00000 -0.16084
      12     H     0.42446  0.42446  0.00000  0.15108
      13     H     0.44357  0.44357  0.00000  0.11287
      14     H     0.45329  0.45329  0.00000  0.09341
      15     H     0.45320  0.45320  0.00000  0.09361
      16     H     0.42415  0.42415  0.00000  0.15171

   Total alpha = 29.00000, Total beta = 29.00000, Total charge = -0.00000
