                              Psi4 1.0.54 Driver

  ==> Input File <==

--------------------------------------------------------------------------
set {
	reference rhf
	basis cc-pvtz
}

set_num_threads( 4 )
memory 2 gb

molecule MOL {
0 1

H	 -1.752232	 -2.214755	 -0.011938
C	 -1.343852	 -1.221619	 -0.018179
N	 -0.058800	 -1.097635	 -0.261688
C	 -2.148159	 -0.124236	 0.219734
C	 0.449026	 0.119242	 -0.273393
H	 -3.196988	 -0.237571	 0.417076
N	 -1.655094	 1.094230	 0.209506
C	 -0.370318	 1.215445	 -0.035100
C	 1.924033	 0.265863	 -0.538106
H	 0.033214	 2.210441	 -0.046812
C	 2.270890	 0.147402	 -2.023066
H	 2.238098	 1.235811	 -0.171598
H	 2.466737	 -0.482573	 0.027165
H	 3.333598	 0.291989	 -2.176950
H	 1.738967	 0.893160	 -2.599158
H	 2.005485	 -0.830417	 -2.409040

	symmetry c1
}
set optking {
	frozen_dihedral = ("
		12 9 5 3
	")
}

ee,wfn = optimize('scf', return_wfn=True)
oeprop( wfn, 'DIPOLE', 'QUADRUPOLE', 'MULLIKEN_CHARGES')
f=open( 'psi4out.xyz', 'w' )
f.write( "16  " )
f.write( str(ee) + "\n" )
f.write( MOL.save_string_xyz() )
f.close()
--------------------------------------------------------------------------

    Molecular point group: c1
  Charge       = 0
  Multiplicity = 1
  Basis Set: CC-PVTZ
  Basis Set:
  @DF-RHF Final Energy:  -340.87212232723243
    Total Energy =                       -340.8721223272320913
    Molecular point group: c1
  Basis Set: CC-PVTZ
  Basis Set:
  Basis Set: CC-PVTZ
  Basis Set:
  @DF-RHF Final Energy:  -340.87223859761167
    Total Energy =                       -340.8722385976115561
  Basis Set: CC-PVTZ
  Basis Set:
  Basis Set: CC-PVTZ
  Basis Set:
  @DF-RHF Final Energy:  -340.87233340267971
    Total Energy =                       -340.8723334026796010
  Basis Set: CC-PVTZ
  Basis Set:
  Basis Set: CC-PVTZ
  Basis Set:
  @DF-RHF Final Energy:  -340.87233620836037
    Total Energy =                       -340.8723362083604229
  Basis Set: CC-PVTZ
  Basis Set:
  Basis Set: CC-PVTZ
  Basis Set:
  @DF-RHF Final Energy:  -340.87233813690966
    Total Energy =                       -340.8723381369098320
  Basis Set: CC-PVTZ
  Basis Set:
  Charge       = 0
  Multiplicity = 1
  Basis Set: CC-PVTZ
  Basis Set:

    Orbital Energies (a.u.)
    -----------------------

    Doubly Occupied:

       1A    -15.580701     2A    -15.576183     3A    -11.278239
       4A    -11.272576     5A    -11.268472     6A    -11.268000
       7A    -11.231437     8A    -11.217713     9A     -1.316183
      10A     -1.224234    11A     -1.086408    12A     -1.015526
      13A     -0.906421    14A     -0.895905    15A     -0.829898
      16A     -0.719170    17A     -0.713103    18A     -0.659951
      19A     -0.613187    20A     -0.604859    21A     -0.584777
      22A     -0.563370    23A     -0.524335    24A     -0.507590
      25A     -0.501649    26A     -0.489169    27A     -0.433209
      28A     -0.397876    29A     -0.346953

  @DF-RHF Final Energy:  -340.87233843486240

   => Energetics <=

    Nuclear Repulsion Energy =            350.5721910895923656
    One-Electron Energy =               -1155.6348657270089006
    Two-Electron Energy =                 464.1903362025539650
    DFT Exchange-Correlation Energy =       0.0000000000000000
    Empirical Dispersion Energy =           0.0000000000000000
    PCM Polarization Energy =               0.0000000000000000
    EFP Energy =                            0.0000000000000000
    Total Energy =                       -340.8723384348625700
    Molecular point group: c1
  Basis Set: CC-PVTZ
  Basis Set:

  -Total Gradient:
     Atom            X                  Y                   Z
    ------   -----------------  -----------------  -----------------
       1       -0.000009500047    -0.000001647584     0.000003969127
       2        0.000085884084    -0.000047036678    -0.000019872010
       3       -0.000002196870    -0.000094640852     0.000338909638
       4       -0.000015993358     0.000102748586     0.000000950341
       5       -0.000078803238     0.000128581896    -0.000372473105
       6       -0.000004494227    -0.000006662648     0.000005069185
       7       -0.000085260591    -0.000063025331     0.000011957016
       8        0.000093419354    -0.000027832256    -0.000011843957
       9       -0.000082144017     0.000178864273    -0.000298006106
      10       -0.000004069108    -0.000000250446    -0.000004596111
      11        0.000001478475     0.000001190295     0.000020091498
      12        0.000081365926    -0.000160889834     0.000350345914
      13        0.000013294693     0.000000768864    -0.000001020214
      14        0.000033331098     0.000002860674    -0.000005670375
      15       -0.000009535271     0.000020987833    -0.000003266662
      16       -0.000016776900    -0.000034016792    -0.000014544180

  **** Optimization is complete! (in 6 steps) ****
    Final optimized geometry and variables:
    Molecular point group: c1

    Geometry (in Angstrom), charge = 0, multiplicity = 1:

    H           -1.646907088118    -2.287445346333     0.349120446898
    C           -1.250632690311    -1.289501321853     0.348974882069
    N            0.032583920792    -1.148510290781     0.100876623776
    C           -2.065219089008    -0.204791802972     0.604318250612
    C            0.526306302882     0.073544562080     0.101859027175
    H           -3.111404964303    -0.332002130065     0.806692901648
    N           -1.584749839853     1.019462824621     0.611161632906
    C           -0.302963286992     1.157468782909     0.363614703510
    C            1.990817775088     0.244051107059    -0.202361949912
    H            0.092207792875     2.155926585168     0.372878431836
    C            2.297667599150     0.126740233540    -1.696487889290
    H            2.326871574419     1.205176426057     0.168896782526
    H            2.536817758185    -0.518659441146     0.338451650035
    H            3.361581139394     0.228052525014    -1.874846595593
    H            1.787137147943     0.897881053757    -2.262360736601
    H            1.979744979008    -0.836020711911    -2.075876076316

  Mulliken Charges: (a.u.)
   Center  Symbol    Alpha    Beta     Spin     Total
       1     H     0.41364  0.41364  0.00000  0.17272
       2     C     3.04420  3.04420  0.00000 -0.08839
       3     N     3.59831  3.59831  0.00000 -0.19663
       4     C     3.04746  3.04746  0.00000 -0.09493
       5     C     2.93665  2.93665  0.00000  0.12670
       6     H     0.41366  0.41366  0.00000  0.17268
       7     N     3.58679  3.58679  0.00000 -0.17357
       8     C     3.07836  3.07836  0.00000 -0.15673
       9     C     3.07975  3.07975  0.00000 -0.15949
      10     H     0.41547  0.41547  0.00000  0.16905
      11     C     3.14428  3.14428  0.00000 -0.28855
      12     H     0.44899  0.44899  0.00000  0.10202
      13     H     0.44386  0.44386  0.00000  0.11228
      14     H     0.44915  0.44915  0.00000  0.10170
      15     H     0.45345  0.45345  0.00000  0.09311
      16     H     0.44598  0.44598  0.00000  0.10803

   Total alpha = 29.00000, Total beta = 29.00000, Total charge = -0.00000

*** Psi4 exiting successfully. Buy a developer a beer!
