  ==> Input File <==

--------------------------------------------------------------------------
set {
	reference rhf
	basis 6-31G*
}

set_num_threads( 4 )
memory 2 gb

molecule MOL {
0 1

H	 -2.098997	 -0.674324	 -0.616650
O	 -2.035884	 -0.060112	 0.102722
C	 -0.955155	 0.788182	 -0.092531
C	 0.353668	 0.040312	 -0.004810
H	 -0.985057	 1.290372	 -1.054184
H	 -0.974469	 1.533190	 0.688632
F	 0.138798	 -1.261257	 0.151143
F	 1.054136	 0.201446	 -1.115927
F	 1.097783	 0.442254	 1.005282

	symmetry c1
}
set optking {
	frozen_dihedral = ("
		7 4 3 5
	")
}

ee = optimize('scf')
oeprop('DIPOLE', 'QUADRUPOLE', 'MULLIKEN_CHARGES')
f=open( 'psi4out.xyz', 'w' )
f.write( "9  " )
f.write( str(ee) + "\n" )
f.write( MOL.save_string_xyz() )
f.close()
--------------------------------------------------------------------------

    Molecular point group: c1
  Charge       = 0
  Multiplicity = 1
  Basis Set: 6-31G*
  Basis Set:
  @DF-RHF Final Energy:  -450.65431546494307
    Total Energy =                       -450.6543154649431813
    Molecular point group: c1
  Basis Set: 6-31G*
  Basis Set:
  Basis Set: 6-31G*
  Basis Set:
  @DF-RHF Final Energy:  -450.65481395370853
    Total Energy =                       -450.6548139537085831
  Basis Set: 6-31G*
  Basis Set:
  Basis Set: 6-31G*
  Basis Set:
  @DF-RHF Final Energy:  -450.65550473289403
    Total Energy =                       -450.6555047328939168
  Basis Set: 6-31G*
  Basis Set:
  Basis Set: 6-31G*
  Basis Set:
  @DF-RHF Final Energy:  -450.65553270222085
    Total Energy =                       -450.6555327022207962
  Basis Set: 6-31G*
  Basis Set:
  Basis Set: 6-31G*
  Basis Set:
  @DF-RHF Final Energy:  -450.65553505304706
    Total Energy =                       -450.6555350530470605
  Basis Set: 6-31G*
  Basis Set:
  Charge       = 0
  Multiplicity = 1
  Basis Set: 6-31G*
  Basis Set:

    Orbital Energies (a.u.)
    -----------------------

    Doubly Occupied:

       1A    -26.343299     2A    -26.340633     3A    -26.339113
       4A    -20.589525     5A    -11.501848     6A    -11.309661
       7A     -1.740250     8A     -1.638420     9A     -1.635279
      10A     -1.401379    11A     -1.042546    12A     -0.923979
      13A     -0.828895    14A     -0.827498    15A     -0.807947
      16A     -0.723665    17A     -0.711607    18A     -0.699022
      19A     -0.663181    20A     -0.658583    21A     -0.641176
      22A     -0.626855    23A     -0.611712    24A     -0.526181
      25A     -0.479644

  @DF-RHF Final Energy:  -450.65553523063869

   => Energetics <=

    Nuclear Repulsion Energy =            275.9042672132865732
    One-Electron Energy =               -1173.8958081969492468
    Two-Electron Energy =                 447.3360057530239260
    DFT Exchange-Correlation Energy =       0.0000000000000000
    Empirical Dispersion Energy =           0.0000000000000000
    PCM Polarization Energy =               0.0000000000000000
    EFP Energy =                            0.0000000000000000
    Total Energy =                       -450.6555352306386908
    Molecular point group: c1
  Basis Set: 6-31G*
  Basis Set:

  -Total Gradient:
     Atom            X                  Y                   Z
    ------   -----------------  -----------------  -----------------
       1       -0.000012912511     0.000004098024    -0.000000765265
       2        0.000012790907    -0.000025549351    -0.000004796795
       3       -0.001052816227    -0.001907797287    -0.000465585730
       4        0.000173996578     0.000048328846    -0.002036562032
       5        0.000878751872     0.001604982492     0.000843045439
       6        0.000007554493     0.000006841292    -0.000000005294
       7       -0.000014774470     0.000272084007     0.001689635560
       8        0.000012458798     0.000001623546    -0.000058165609
       9       -0.000005049439    -0.000004611565     0.000033199727

  **** Optimization is complete! (in 6 steps) ****
    Final optimized geometry and variables:
    Molecular point group: c1

    Geometry (in Angstrom), charge = 0, multiplicity = 1:

    H           -2.129272184910    -0.686895932517    -0.573304621064
    O           -2.078482669908    -0.019020392152     0.096873088139
    C           -0.970817117240     0.789424948895    -0.103747238747
    C            0.358315983079     0.029732565991    -0.010752484749
    H           -0.992249584290     1.304371841044    -1.058033886923
    H           -0.980001099432     1.532763690320     0.678389235981
    F            0.177999716136    -1.270943144879     0.125748332279
    F            1.091489374739     0.215544909982    -1.100110526063
    F            1.084855289681     0.439939883744     1.015677562745

  Mulliken Charges: (a.u.)
   Center  Symbol    Alpha    Beta     Spin     Total
       1     H     0.27374  0.27374  0.00000  0.45251
       2     O     4.35842  4.35842  0.00000 -0.71685
       3     C     3.07187  3.07187  0.00000 -0.14373
       4     C     2.45424  2.45424  0.00000  1.09153
       5     H     0.40531  0.40531  0.00000  0.18939
       6     H     0.39099  0.39099  0.00000  0.21803
       7     F     4.67909  4.67909  0.00000 -0.35817
       8     F     4.68466  4.68466  0.00000 -0.36931
       9     F     4.68169  4.68169  0.00000 -0.36339

   Total alpha = 25.00000, Total beta = 25.00000, Total charge = -0.00000
