  ==> Input File <==

--------------------------------------------------------------------------
set {
	reference rhf
	basis 6-31G*
}

set_num_threads( 1 )
memory 2 gb

molecule MOL {
0 1

H	 -0.978442	 4.412823	 0.172656
O	 -0.294235	 3.809732	 -0.080420
C	 -0.644771	 2.506955	 0.310076
C	 0.472345	 1.568687	 -0.111176
H	 -0.787995	 2.455759	 1.388581
H	 -1.581037	 2.205581	 -0.157812
C	 0.198102	 0.111031	 0.262842
H	 1.395491	 1.906713	 0.351714
H	 0.609634	 1.660966	 -1.185007
C	 1.331804	 -0.827780	 -0.158768
H	 0.039544	 0.041268	 1.336232
H	 -0.728809	 -0.216497	 -0.206283
C	 2.723619	 -0.410569	 0.329459
H	 1.342964	 -0.912588	 -1.244120
H	 1.116806	 -1.824343	 0.220779
C	 3.243875	 0.895854	 -0.272975
H	 3.424222	 -1.207124	 0.091250
H	 2.714788	 -0.329854	 1.414619
H	 3.251977	 0.848779	 -1.358681
H	 2.637085	 1.747371	 0.016682
H	 4.259473	 1.094070	 0.055697

	symmetry c1
}
set optking {
	frozen_dihedral = ("
		2 3 4 8,
		8 4 7 10,
		16 13 10 14,
		1 2 3 5
	")
}

ee = energy('scf')
oeprop('DIPOLE', 'QUADRUPOLE', 'MULLIKEN_CHARGES')
f=open( 'psi4out.xyz', 'w' )
f.write( "21  " )
f.write( str(ee) + "\n" )
f.write( MOL.save_string_xyz() )
f.close()
--------------------------------------------------------------------------

    Molecular point group: c1

    Geometry (in Angstrom), charge = 0, multiplicity = 1:

       Center              X                  Y                   Z               Mass
    ------------   -----------------  -----------------  -----------------  -----------------
           H         -1.958222131321     3.246934884873     0.134161056663     1.007825032070
           O         -1.274015131321     2.643843884873    -0.118914943337    15.994914619560
           C         -1.624551131321     1.341066884873     0.271581056663    12.000000000000
           C         -0.507435131321     0.402798884873    -0.149670943337    12.000000000000
           H         -1.767775131321     1.289870884873     1.350086056663     1.007825032070
           H         -2.560817131321     1.039692884873    -0.196306943337     1.007825032070
           C         -0.781678131321    -1.054857115127     0.224347056663    12.000000000000
           H          0.415710868679     0.740824884873     0.313219056663     1.007825032070
           H         -0.370146131321     0.495077884873    -1.223501943337     1.007825032070
           C          0.352023868679    -1.993668115127    -0.197262943337    12.000000000000
           H         -0.940236131321    -1.124620115127     1.297737056663     1.007825032070
           H         -1.708589131321    -1.382385115127    -0.244777943337     1.007825032070
           C          1.743838868679    -1.576457115127     0.290964056663    12.000000000000
           H          0.363183868679    -2.078476115127    -1.282614943337     1.007825032070
           H          0.137025868679    -2.990231115127     0.182284056663     1.007825032070
           C          2.264094868679    -0.270034115127    -0.311469943337    12.000000000000
           H          2.444441868679    -2.373012115127     0.052755056663     1.007825032070
           H          1.735007868679    -1.495742115127     1.376124056663     1.007825032070
           H          2.272196868679    -0.317109115127    -1.397175943337     1.007825032070
           H          1.657304868679     0.581482884873    -0.021812943337     1.007825032070
           H          3.279692868679    -0.071818115127     0.017202056663     1.007825032070

  Charge       = 0
  Multiplicity = 1
  Basis Set: 6-31G*
  Basis Set:

    Orbital Energies (a.u.)
    -----------------------

    Doubly Occupied:

       1A    -20.551449     2A    -11.264955     3A    -11.216198
       4A    -11.214032     5A    -11.213445     6A    -11.205235
       7A    -11.197690     8A     -1.358120     9A     -1.091672
      10A     -1.023674    11A     -0.961370    12A     -0.879200
      13A     -0.805262    14A     -0.778464    15A     -0.690498
      16A     -0.670022    17A     -0.625982    18A     -0.610156
      19A     -0.583847    20A     -0.557562    21A     -0.547971
      22A     -0.534545    23A     -0.497304    24A     -0.493199
      25A     -0.475247    26A     -0.459567    27A     -0.449589
      28A     -0.435475    29A     -0.419368

  @DF-RHF Final Energy:  -310.18141711888825

   => Energetics <=

    Nuclear Repulsion Energy =            326.4122944079408626
    One-Electron Energy =               -1067.5651570637453460
    Two-Electron Energy =                 430.9714455369152688
    DFT Exchange-Correlation Energy =       0.0000000000000000
    Empirical Dispersion Energy =           0.0000000000000000
    PCM Polarization Energy =               0.0000000000000000
    EFP Energy =                            0.0000000000000000
    Total Energy =                       -310.1814171188892146

  Mulliken Charges: (a.u.)
   Center  Symbol    Alpha    Beta     Spin     Total
       1     H     0.28115  0.28115  0.00000  0.43770
       2     O     4.37245  4.37245  0.00000 -0.74490
       3     C     2.98640  2.98640  0.00000  0.02720
       4     C     3.16610  3.16610  0.00000 -0.33219
       5     H     0.43399  0.43399  0.00000  0.13201
       6     H     0.43383  0.43383  0.00000  0.13234
       7     C     3.15797  3.15797  0.00000 -0.31594
       8     H     0.41381  0.41381  0.00000  0.17238
       9     H     0.41426  0.41426  0.00000  0.17149
      10     C     3.15340  3.15340  0.00000 -0.30680
      11     H     0.42374  0.42374  0.00000  0.15252
      12     H     0.42144  0.42144  0.00000  0.15713
      13     C     3.15638  3.15638  0.00000 -0.31276
      14     H     0.42305  0.42305  0.00000  0.15389
      15     H     0.42059  0.42059  0.00000  0.15883
      16     C     3.24172  3.24172  0.00000 -0.48345
      17     H     0.41916  0.41916  0.00000  0.16169
      18     H     0.42391  0.42391  0.00000  0.15218
      19     H     0.42174  0.42174  0.00000  0.15652
      20     H     0.41396  0.41396  0.00000  0.17208
      21     H     0.42097  0.42097  0.00000  0.15806

   Total alpha = 29.00000, Total beta = 29.00000, Total charge = -0.00000
