  ==> Input File <==

--------------------------------------------------------------------------
set {
	reference rhf
	basis 6-31G*
}

set_num_threads( 4 )
memory 2 gb

molecule MOL {
0 1

H	 -1.148722	 -1.354801	 0.261141
O	 -1.422729	 -0.573567	 -0.196946
C	 -0.731407	 0.539437	 0.309156
C	 0.680193	 0.672443	 -0.251532
H	 -1.319765	 1.404033	 0.030086
H	 -0.700012	 0.506517	 1.397677
C	 1.599139	 -0.492137	 0.118598
H	 0.616402	 0.758534	 -1.332349
H	 1.107032	 1.602637	 0.117369
H	 1.239738	 -1.428634	 -0.297334
H	 2.601428	 -0.335055	 -0.265730
H	 1.674954	 -0.608418	 1.197020

	symmetry c1
}
set optking {
	frozen_dihedral = ("
		1 2 3 4
	")
}

ee = optimize('scf')
oeprop('DIPOLE', 'QUADRUPOLE', 'MULLIKEN_CHARGES')
f=open( 'psi4out.xyz', 'w' )
f.write( "12  " )
f.write( str(ee) + "\n" )
f.write( MOL.save_string_xyz() )
f.close()
--------------------------------------------------------------------------

    Molecular point group: c1
  Charge       = 0
  Multiplicity = 1
  Basis Set: 6-31G*
  Basis Set:
  @DF-RHF Final Energy:  -193.10989774838367
    Total Energy =                       -193.1098977483835597
    Molecular point group: c1
  Basis Set: 6-31G*
  Basis Set:
  Basis Set: 6-31G*
  Basis Set:
  @DF-RHF Final Energy:  -193.10990138369323
    Total Energy =                       -193.1099013836931420
  Basis Set: 6-31G*
  Basis Set:
  Basis Set: 6-31G*
  Basis Set:
  @DF-RHF Final Energy:  -193.10990729208845
    Total Energy =                       -193.1099072920884510
  Basis Set: 6-31G*
  Basis Set:
  Basis Set: 6-31G*
  Basis Set:
  @DF-RHF Final Energy:  -193.10990832129568
    Total Energy =                       -193.1099083212955634
  Basis Set: 6-31G*
  Basis Set:
  Charge       = 0
  Multiplicity = 1
  Basis Set: 6-31G*
  Basis Set:

    Orbital Energies (a.u.)
    -----------------------

    Doubly Occupied:

       1A    -20.553334     2A    -11.268171     3A    -11.217563
       4A    -11.215869     5A     -1.360023     6A     -1.050286
       7A     -0.926617     8A     -0.807810     9A     -0.698565
      10A     -0.635736    11A     -0.599723    12A     -0.588358
      13A     -0.535316    14A     -0.510741    15A     -0.492373
      16A     -0.468732    17A     -0.429285

  @DF-RHF Final Energy:  -193.10990834456516

   => Energetics <=

    Nuclear Repulsion Energy =            133.0877026043415867
    One-Electron Energy =                -525.6782185366954536
    Two-Electron Energy =                 199.4806075877888532
    DFT Exchange-Correlation Energy =       0.0000000000000000
    Empirical Dispersion Energy =           0.0000000000000000
    PCM Polarization Energy =               0.0000000000000000
    EFP Energy =                            0.0000000000000000
    Total Energy =                       -193.1099083445650137
    Molecular point group: c1
  Basis Set: 6-31G*
  Basis Set:

  -Total Gradient:
     Atom            X                  Y                   Z
    ------   -----------------  -----------------  -----------------
       1       -0.000450338552     0.000082855293     0.000423255897
       2        0.000488322406     0.000006257718    -0.000637668062
       3        0.000093424311    -0.000309279268     0.000508963809
       4       -0.000132338955     0.000231723537    -0.000301821654
       5       -0.000001255850    -0.000003774237     0.000001034532
       6       -0.000000285236    -0.000004771131     0.000002978540
       7       -0.000001931877    -0.000005147560     0.000001835247
       8        0.000004500324     0.000001539641    -0.000004560017
       9       -0.000003368335    -0.000000918457    -0.000001212207
      10        0.000002328813     0.000001098485     0.000000840764
      11       -0.000006207422     0.000000444307     0.000001622605
      12        0.000007150372    -0.000000028330     0.000004730547

  **** Optimization is complete! (in 5 steps) ****
    Final optimized geometry and variables:
    Molecular point group: c1

    Geometry (in Angstrom), charge = 0, multiplicity = 1:

    H           -1.141193282427    -1.357144725239     0.254920276050
    O           -1.416448007730    -0.575754192897    -0.201662291627
    C           -0.730955178355     0.539783549992     0.309012480530
    C            0.680367493977     0.673934300160    -0.251124960493
    H           -1.318942345003     1.405017705801     0.030118533579
    H           -0.702174158152     0.505582429819     1.397254956699
    C            1.597121293447    -0.492065325174     0.118439571428
    H            0.615293764392     0.759373717944    -1.331853458604
    H            1.107354747578     1.604566860204     0.116844649072
    H            1.228387752646    -1.427488643056    -0.290808945088
    H            2.597856090912    -0.341169240537    -0.272494199443
    H            1.679164466965    -0.603694233195     1.197048628206

  Mulliken Charges: (a.u.)
   Center  Symbol    Alpha    Beta     Spin     Total
       1     H     0.28010  0.28010  0.00000  0.43980
       2     O     4.37021  4.37021  0.00000 -0.74041
       3     C     2.99839  2.99839  0.00000  0.00323
       4     C     3.15887  3.15887  0.00000 -0.31774
       5     H     0.41474  0.41474  0.00000  0.17053
       6     H     0.43214  0.43214  0.00000  0.13572
       7     C     3.24956  3.24956  0.00000 -0.49913
       8     H     0.41405  0.41405  0.00000  0.17190
       9     H     0.42380  0.42380  0.00000  0.15241
      10     H     0.42019  0.42019  0.00000  0.15961
      11     H     0.41449  0.41449  0.00000  0.17102
      12     H     0.42346  0.42346  0.00000  0.15308

   Total alpha = 17.00000, Total beta = 17.00000, Total charge =  0.00000
