                              Psi4 1.0.54 Driver

  ==> Input File <==

--------------------------------------------------------------------------
set {
	reference rhf
	basis cc-pvtz
}

set_num_threads( 4 )
memory 2 gb

molecule MOL {
0 1

H	 -2.644180	 -0.653737	 1.272255
C	 -2.092774	 -0.380414	 0.391915
O	 -0.808934	 -0.154049	 0.752536
F	 -2.163230	 -1.351640	 -0.507133
F	 -2.627232	 0.691260	 -0.169301
C	 0.085006	 0.250800	 -0.215074
C	 1.370439	 -0.548013	 -0.012993
Cl	 0.421658	 1.987697	 -0.091007
H	 -0.272219	 0.063284	 -1.212508
F	 1.143302	 -1.827893	 -0.165770
F	 1.803573	 -0.357652	 1.210720
F	 2.312193	 -0.188001	 -0.841087

	symmetry c1
}
set optking {
	frozen_dihedral = ("
		10 7 6 9
	")
}

ee,wfn = optimize('scf', return_wfn=True)
oeprop( wfn, 'DIPOLE', 'QUADRUPOLE', 'MULLIKEN_CHARGES')
f=open( 'psi4out.xyz', 'w' )
f.write( "12  " )
f.write( str(ee) + "\n" )
f.write( MOL.save_string_xyz() )
f.close()
--------------------------------------------------------------------------

    Molecular point group: c1
  Charge       = 0
  Multiplicity = 1
  Basis Set: CC-PVTZ
  Basis Set:
  @DF-RHF Final Energy: -1146.61964483261204
    Total Energy =                      -1146.6196448326131758
    Molecular point group: c1
  Basis Set: CC-PVTZ
  Basis Set:
  Basis Set: CC-PVTZ
  Basis Set:
  @DF-RHF Final Energy: -1146.62017409347254
    Total Energy =                      -1146.6201740934720874
  Basis Set: CC-PVTZ
  Basis Set:
  Basis Set: CC-PVTZ
  Basis Set:
  @DF-RHF Final Energy: -1146.62042959967948
    Total Energy =                      -1146.6204295996801648
  Basis Set: CC-PVTZ
  Basis Set:
  Basis Set: CC-PVTZ
  Basis Set:
  @DF-RHF Final Energy: -1146.62044251672455
    Total Energy =                      -1146.6204425167243244
  Basis Set: CC-PVTZ
  Basis Set:
  Charge       = 0
  Multiplicity = 1
  Basis Set: CC-PVTZ
  Basis Set:

    Orbital Energies (a.u.)
    -----------------------

    Doubly Occupied:

       1A   -104.856477     2A    -26.354852     3A    -26.353916
       4A    -26.353316     5A    -26.343389     6A    -26.343344
       7A    -20.641336     8A    -11.520146     9A    -11.484101
      10A    -11.401011    11A    -10.582007    12A     -8.048805
      13A     -8.046818    14A     -8.046742    15A     -1.767928
      16A     -1.725007    17A     -1.662906    18A     -1.661345
      19A     -1.644982    20A     -1.487566    21A     -1.178304
      22A     -1.053271    23A     -0.990971    24A     -0.924673
      25A     -0.864982    26A     -0.858709    27A     -0.852283
      28A     -0.829706    29A     -0.818319    30A     -0.793973
      31A     -0.733634    32A     -0.733122    33A     -0.712756
      34A     -0.708472    35A     -0.684976    36A     -0.681486
      37A     -0.665396    38A     -0.664116    39A     -0.649579
      40A     -0.638940    41A     -0.599014    42A     -0.581995
      43A     -0.525591    44A     -0.478211    45A     -0.469833

  @DF-RHF Final Energy: -1146.62044348906920

   => Energetics <=

    Nuclear Repulsion Energy =            738.3883936528952745
    One-Electron Energy =               -3059.9810611736320425
    Two-Electron Energy =                1174.9722240316668831
    DFT Exchange-Correlation Energy =       0.0000000000000000
    Empirical Dispersion Energy =           0.0000000000000000
    PCM Polarization Energy =               0.0000000000000000
    EFP Energy =                            0.0000000000000000
    Total Energy =                      -1146.6204434890696575
    Molecular point group: c1
  Basis Set: CC-PVTZ
  Basis Set:

  -Total Gradient:
     Atom            X                  Y                   Z
    ------   -----------------  -----------------  -----------------
       1        0.000002886866     0.000008536862     0.000012314499
       2       -0.000073607682    -0.000033877291     0.000103433852
       3        0.000014865326     0.000066994488    -0.000056321868
       4        0.000038496790     0.000064528769    -0.000033175252
       5        0.000053100984    -0.000058624298    -0.000023459795
       6        0.000227055787     0.000271575386    -0.000160824753
       7       -0.000015301164    -0.000155020913     0.000388685965
       8        0.000010255347    -0.000057374086     0.000025984930
       9       -0.000128054545    -0.000259798215     0.000067219657
      10        0.000001908192     0.000060026020    -0.000301378971
      11       -0.000067871358     0.000072593507     0.000027007121
      12       -0.000063734544     0.000020439863    -0.000049485388

  **** Optimization is complete! (in 5 steps) ****
    Final optimized geometry and variables:
    Molecular point group: c1

    Geometry (in Angstrom), charge = 0, multiplicity = 1:

    H           -2.632126790774    -0.694354615931     1.274842597513
    C           -2.087293752265    -0.401922935319     0.396495543102
    O           -0.803039723514    -0.173424912935     0.753699567030
    F           -2.156270426029    -1.357416787696    -0.519449475845
    F           -2.631678063728     0.675877205657    -0.143060939448
    C            0.082653049236     0.254808202898    -0.211937914259
    C            1.374546376093    -0.538033619301    -0.028651686220
    CL           0.405412106913     1.991625095253    -0.060509399713
    H           -0.279122476713     0.078610524399    -1.209853086312
    F            1.120662818417    -1.813213109522    -0.204471019066
    F            1.886065985935    -0.381566649841     1.161219918394
    F            2.263519027784    -0.178073423334    -0.919332349382

  Mulliken Charges: (a.u.)
   Center  Symbol    Alpha    Beta     Spin     Total
       1     H     0.45191  0.45191  0.00000  0.09617
       2     C     2.74016  2.74016  0.00000  0.51967
       3     O     4.15656  4.15656  0.00000 -0.31312
       4     F     4.61793  4.61793  0.00000 -0.23586
       5     F     4.61508  4.61508  0.00000 -0.23016
       6     C     2.93680  2.93680  0.00000  0.12639
       7     C     2.66949  2.66949  0.00000  0.66102
       8    CL     8.57399  8.57399  0.00000 -0.14799
       9     H     0.43048  0.43048  0.00000  0.13904
      10     F     4.60473  4.60473  0.00000 -0.20946
      11     F     4.60043  4.60043  0.00000 -0.20086
      12     F     4.60243  4.60243  0.00000 -0.20486

   Total alpha = 45.00000, Total beta = 45.00000, Total charge =  0.00000

*** Psi4 exiting successfully. Buy a developer a beer!
