  ==> Input File <==

--------------------------------------------------------------------------
set {
	reference rhf
	basis 6-31G*
}

set_num_threads( 4 )
memory 2 gb

molecule MOL {
0 1

H	 3.108884	 1.320416	 1.429303
N	 2.270561	 0.772994	 1.396300
C	 1.865559	 0.531981	 0.018834
H	 1.565795	 1.293336	 1.883515
C	 0.645745	 -0.382037	 -0.029944
H	 2.695306	 0.049931	 -0.489110
H	 1.652179	 1.450982	 -0.532805
C	 -0.679275	 0.379305	 0.025956
H	 0.698998	 -0.976915	 -0.937203
H	 0.693479	 -1.083846	 0.802235
C	 -1.903357	 -0.536963	 -0.023547
H	 -0.726309	 1.082987	 -0.803784
H	 -0.717680	 0.977832	 0.934877
C	 -3.225172	 0.228290	 0.028445
H	 -1.867824	 -1.134999	 -0.931459
H	 -1.860449	 -1.239604	 0.805977
H	 -3.313397	 0.915643	 -0.808262
H	 -4.073500	 -0.448134	 -0.008893
H	 -3.306061	 0.809945	 0.942516

	symmetry c1
}
set optking {
	frozen_dihedral = ("
		6 3 5 9
	")
}

ee = optimize('scf')
oeprop('DIPOLE', 'QUADRUPOLE', 'MULLIKEN_CHARGES')
f=open( 'psi4out.xyz', 'w' )
f.write( "19  " )
f.write( str(ee) + "\n" )
f.write( MOL.save_string_xyz() )
f.close()
--------------------------------------------------------------------------

    Molecular point group: c1
  Charge       = 0
  Multiplicity = 1
  Basis Set: 6-31G*
  Basis Set:
  @DF-RHF Final Energy:  -251.34843214966966
    Total Energy =                       -251.3484321496696339
    Molecular point group: c1
  Basis Set: 6-31G*
  Basis Set:
  Basis Set: 6-31G*
  Basis Set:
  @DF-RHF Final Energy:  -251.34873747096862
    Total Energy =                       -251.3487374709685582
  Basis Set: 6-31G*
  Basis Set:
  Basis Set: 6-31G*
  Basis Set:
  @DF-RHF Final Energy:  -251.34882980189266
    Total Energy =                       -251.3488298018927480
  Basis Set: 6-31G*
  Basis Set:
  Basis Set: 6-31G*
  Basis Set:
  @DF-RHF Final Energy:  -251.34882744821246
    Total Energy =                       -251.3488274482123757
  Basis Set: 6-31G*
  Basis Set:
  Basis Set: 6-31G*
  Basis Set:
  @DF-RHF Final Energy:  -251.34883228886250
    Total Energy =                       -251.3488322888625248
  Basis Set: 6-31G*
  Basis Set:
  Charge       = 0
  Multiplicity = 1
  Basis Set: 6-31G*
  Basis Set:

    Orbital Energies (a.u.)
    -----------------------

    Doubly Occupied:

       1A    -15.532656     2A    -11.239753     3A    -11.214718
       4A    -11.214109     5A    -11.209075     6A    -11.208321
       7A     -1.176423     8A     -1.072426     9A     -0.997411
      10A     -0.904718    11A     -0.814548    12A     -0.785319
      13A     -0.665807    14A     -0.644060    15A     -0.615188
      16A     -0.587393    17A     -0.560083    18A     -0.549763
      19A     -0.533662    20A     -0.500715    21A     -0.486342
      22A     -0.465206    23A     -0.461685    24A     -0.444294
      25A     -0.380297

  @DF-RHF Final Energy:  -251.34883233049536

   => Energetics <=

    Nuclear Repulsion Energy =            248.0085271160033074
    One-Electron Energy =                -830.1867743905388579
    Two-Electron Energy =                 330.8294149440404226
    DFT Exchange-Correlation Energy =       0.0000000000000000
    Empirical Dispersion Energy =           0.0000000000000000
    PCM Polarization Energy =               0.0000000000000000
    EFP Energy =                            0.0000000000000000
    Total Energy =                       -251.3488323304951564
    Molecular point group: c1
  Basis Set: 6-31G*
  Basis Set:

  -Total Gradient:
     Atom            X                  Y                   Z
    ------   -----------------  -----------------  -----------------
       1        0.000001933622     0.000003021634     0.000006012636
       2        0.000003021562     0.000003254775    -0.000002736830
       3        0.001701435017    -0.002825318165     0.004653644623
       4       -0.000000761906     0.000003618267     0.000003459608
       5       -0.002602113416     0.003922115575    -0.003200663203
       6       -0.001010584797     0.001731889056    -0.003405867233
       7       -0.000003022766     0.000002537634     0.000006440934
       8        0.000000118896    -0.000008098018     0.000010866932
       9        0.001909336700    -0.002843480728     0.001941524831
      10        0.000004274522     0.000002614435     0.000002619367
      11       -0.000001344875     0.000005181996    -0.000022476839
      12        0.000000714287    -0.000002929458     0.000003018536
      13       -0.000002353653     0.000003774145    -0.000000378674
      14       -0.000003136929    -0.000000925206     0.000010135598
      15        0.000001044454     0.000000500987    -0.000003270841
      16        0.000001634279     0.000001766914    -0.000003418174
      17       -0.000000689095    -0.000004924253    -0.000002999788
      18       -0.000000186427     0.000000062576     0.000005533956
      19        0.000000680522     0.000005337836    -0.000001445437

  **** Optimization is complete! (in 6 steps) ****
    Final optimized geometry and variables:
    Molecular point group: c1

    Geometry (in Angstrom), charge = 0, multiplicity = 1:

    H            3.251849044270     1.142160991106     1.194136766585
    N            2.416994521506     0.589257249370     1.158307677267
    C            2.036785334000     0.328823883204    -0.223502258021
    H            1.705307670791     1.117042955039     1.626732417375
    C            0.795283079870    -0.564698582341    -0.307679839031
    H            2.868394594530    -0.159305271562    -0.720188043267
    H            1.853759869402     1.244820203269    -0.792224437262
    C           -0.531504877240     0.194122118173    -0.240635031344
    H            0.839171227237    -1.157710115293    -1.218365273421
    H            0.849996141434    -1.279043855103     0.509639577858
    C           -1.753019212865    -0.725816590732    -0.275562813520
    H           -0.587451762272     0.897105274122    -1.070176469383
    H           -0.567448022089     0.793645707895     0.668319431312
    C           -3.077343428305     0.034673590656    -0.217457249617
    H           -1.722101735572    -1.328066251962    -1.181150483464
    H           -1.700352033524    -1.424136345092     0.556641237606
    H           -3.175453352687     0.716640415833    -1.057491187942
    H           -3.923208634330    -0.645345237263    -0.243487299015
    H           -3.153146943719     0.621307034598     0.693880928923

  Mulliken Charges: (a.u.)
   Center  Symbol    Alpha    Beta     Spin     Total
       1     H     0.33271  0.33271  0.00000  0.33458
       2     N     3.92086  3.92086  0.00000 -0.84172
       3     C     3.06445  3.06445  0.00000 -0.12890
       4     H     0.33401  0.33401  0.00000  0.33197
       5     C     3.15836  3.15836  0.00000 -0.31673
       6     H     0.41844  0.41844  0.00000  0.16312
       7     H     0.43496  0.43496  0.00000  0.13009
       8     C     3.15308  3.15308  0.00000 -0.30616
       9     H     0.42197  0.42197  0.00000  0.15605
      10     H     0.41118  0.41118  0.00000  0.17765
      11     C     3.15133  3.15133  0.00000 -0.30265
      12     H     0.42402  0.42402  0.00000  0.15196
      13     H     0.42779  0.42779  0.00000  0.14442
      14     C     3.23933  3.23933  0.00000 -0.47867
      15     H     0.42279  0.42279  0.00000  0.15442
      16     H     0.42130  0.42130  0.00000  0.15740
      17     H     0.42212  0.42212  0.00000  0.15576
      18     H     0.41910  0.41910  0.00000  0.16179
      19     H     0.42219  0.42219  0.00000  0.15562

   Total alpha = 25.00000, Total beta = 25.00000, Total charge = -0.00000
