  ==> Input File <==

--------------------------------------------------------------------------
set {
	reference rhf
	basis 6-31G*
}

set_num_threads( 4 )
memory 2 gb

molecule MOL {
0 1

H	 -2.499100	 -0.730091	 -0.745082
O	 -2.347518	 -0.290803	 0.079804
C	 -1.184022	 0.487508	 -0.006784
C	 0.062599	 -0.378592	 0.031606
H	 -1.176523	 1.099369	 -0.904519
H	 -1.187323	 1.153111	 0.844927
O	 1.171513	 0.459272	 -0.058250
H	 0.050699	 -1.089204	 -0.797170
H	 0.078739	 -0.954914	 0.954740
C	 2.397563	 -0.200139	 -0.024800
H	 2.498044	 -0.895699	 -0.855902
H	 3.173567	 0.548987	 -0.099173
H	 2.526774	 -0.751467	 0.904250

	symmetry c1
}
set optking {
	frozen_dihedral = ("
		10 7 4 8
	")
}

ee = optimize('scf')
oeprop('DIPOLE', 'QUADRUPOLE', 'MULLIKEN_CHARGES')
f=open( 'psi4out.xyz', 'w' )
f.write( "13  " )
f.write( str(ee) + "\n" )
f.write( MOL.save_string_xyz() )
f.close()
--------------------------------------------------------------------------

    Molecular point group: c1
  Charge       = 0
  Multiplicity = 1
  Basis Set: 6-31G*
  Basis Set:
  @DF-RHF Final Energy:  -267.95063940898876
    Total Energy =                       -267.9506394089887635
    Molecular point group: c1
  Basis Set: 6-31G*
  Basis Set:
  Charge       = 0
  Multiplicity = 1
  Basis Set: 6-31G*
  Basis Set:

    Orbital Energies (a.u.)
    -----------------------

    Doubly Occupied:

       1A    -20.562492     2A    -20.560230     3A    -11.270936
       4A    -11.270366     5A    -11.269071     6A     -1.388875
       7A     -1.365225     8A     -1.018598     9A     -0.913407
      10A     -0.841972    11A     -0.709591    12A     -0.674125
      13A     -0.660727    14A     -0.637409    15A     -0.595812
      16A     -0.569394    17A     -0.545767    18A     -0.489375
      19A     -0.481885    20A     -0.438582    21A     -0.422204

  @DF-RHF Final Energy:  -267.95063970551178

   => Energetics <=

    Nuclear Repulsion Energy =            190.2266685519184080
    One-Electron Energy =                -742.9825250966985095
    Two-Electron Energy =                 284.8052168392680414
    DFT Exchange-Correlation Energy =       0.0000000000000000
    Empirical Dispersion Energy =           0.0000000000000000
    PCM Polarization Energy =               0.0000000000000000
    EFP Energy =                            0.0000000000000000
    Total Energy =                       -267.9506397055120033
    Molecular point group: c1
  Basis Set: 6-31G*
  Basis Set:

  -Total Gradient:
     Atom            X                  Y                   Z
    ------   -----------------  -----------------  -----------------
       1       -0.000012049149    -0.000012319842     0.000001312113
       2       -0.000039866456    -0.000004879160    -0.000023920414
       3       -0.000035642479    -0.000011110088     0.000087182627
       4       -0.000069863834     0.000198328252    -0.000276144124
       5        0.000022212891    -0.000029979635     0.000007385650
       6       -0.000006672406     0.000037101090    -0.000001236583
       7        0.000063380572    -0.000115016960     0.000209057773
       8        0.000065999532    -0.000130499352     0.000087627065
       9        0.000017765632     0.000028192149    -0.000012269119
      10        0.000000569026     0.000049191775    -0.000065160582
      11       -0.000033572671     0.000008696397    -0.000009565733
      12        0.000013940802    -0.000001858293    -0.000006568975
      13        0.000013798541    -0.000015846332     0.000002300302

  **** Optimization is complete! (in 2 steps) ****
    Final optimized geometry and variables:
    Molecular point group: c1

    Geometry (in Angstrom), charge = 0, multiplicity = 1:

    H           -2.500714195835    -0.730157420869    -0.738395997574
    O           -2.347887822209    -0.290360472817     0.085992009879
    C           -1.184259087129     0.487778930503    -0.002371070271
    C            0.062693609555    -0.378010315940     0.034550983092
    H           -1.177841700816     1.098682732794    -0.900678202119
    H           -1.186288854332     1.154263975837     0.848659001211
    O            1.172014145295     0.459872245354    -0.053913894489
    H            0.051305256413    -1.088491448617    -0.794321945725
    H            0.079211873778    -0.954798285606     0.957313882115
    C            2.397937766261    -0.199827532659    -0.019359106698
    H            2.498205244478    -0.894797567850    -0.850947711813
    H            3.174258358328     0.549109956778    -0.092885624315
    H            2.526286403125    -0.751770675067     0.909498486380

  Mulliken Charges: (a.u.)
   Center  Symbol    Alpha    Beta     Spin     Total
       1     H     0.28125  0.28125  0.00000  0.43749
       2     O     4.37087  4.37087  0.00000 -0.74173
       3     C     3.00463  3.00463  0.00000 -0.00926
       4     C     2.99662  2.99662  0.00000  0.00677
       5     H     0.42235  0.42235  0.00000  0.15530
       6     H     0.40833  0.40833  0.00000  0.18334
       7     O     4.30749  4.30749  0.00000 -0.61499
       8     H     0.43759  0.43759  0.00000  0.12481
       9     H     0.42323  0.42323  0.00000  0.15354
      10     C     3.07999  3.07999  0.00000 -0.15998
      11     H     0.42926  0.42926  0.00000  0.14148
      12     H     0.41069  0.41069  0.00000  0.17863
      13     H     0.42770  0.42770  0.00000  0.14460

   Total alpha = 21.00000, Total beta = 21.00000, Total charge =  0.00000
