                              Psi4 1.0.54 Driver

  ==> Input File <==

--------------------------------------------------------------------------
set {
	reference rhf
	basis cc-pvtz
}

set_num_threads( 4 )
memory 2 gb

molecule MOL {
0 1

H	 3.516049	 -1.118086	 2.530816
C	 3.113954	 -1.153520	 1.525246
C	 1.816659	 -0.358783	 1.424884
H	 3.868852	 -0.757109	 0.854405
H	 2.959423	 -2.196205	 1.268449
C	 1.215950	 -0.382441	 0.027187
H	 1.988216	 0.672830	 1.711427
H	 1.093564	 -0.759646	 2.131296
N	 0.000002	 0.398953	 -0.040851
H	 1.927393	 0.040471	 -0.675780
H	 1.057539	 -1.420070	 -0.281546
C	 -1.215959	 -0.382435	 0.027143
H	 -0.000012	 1.086078	 0.683841
C	 -2.451944	 0.502410	 -0.038737
H	 -1.221867	 -1.069392	 -0.813828
H	 -1.259993	 -0.999709	 0.929424
C	 -3.752217	 -0.292550	 0.005776
H	 -2.407325	 1.093801	 -0.946480
H	 -2.431979	 1.206234	 0.790023
H	 -3.817783	 -0.982946	 -0.828547
H	 -4.612613	 0.364348	 -0.042306
H	 -3.830160	 -0.871666	 0.919868

	symmetry c1
}
set optking {
	frozen_dihedral = ("
		10 6 9 12
	")
}

ee,wfn = optimize('scf', return_wfn=True)
oeprop( wfn, 'DIPOLE', 'QUADRUPOLE', 'MULLIKEN_CHARGES')
f=open( 'psi4out.xyz', 'w' )
f.write( "22  " )
f.write( str(ee) + "\n" )
f.write( MOL.save_string_xyz() )
f.close()
--------------------------------------------------------------------------

    Molecular point group: c1
  Charge       = 0
  Multiplicity = 1
  Basis Set: CC-PVTZ
  Basis Set:
  @DF-RHF Final Energy:  -290.48437536103103
    Total Energy =                       -290.4843753610306294
    Molecular point group: c1
  Basis Set: CC-PVTZ
  Basis Set:
  Basis Set: CC-PVTZ
  Basis Set:
  @DF-RHF Final Energy:  -290.48558518436164
    Total Energy =                       -290.4855851843615255
  Basis Set: CC-PVTZ
  Basis Set:
  Basis Set: CC-PVTZ
  Basis Set:
  @DF-RHF Final Energy:  -290.48579863973606
    Total Energy =                       -290.4857986397358900
  Basis Set: CC-PVTZ
  Basis Set:
  Basis Set: CC-PVTZ
  Basis Set:
  @DF-RHF Final Energy:  -290.48581517885646
    Total Energy =                       -290.4858151788565692
  Basis Set: CC-PVTZ
  Basis Set:
  Basis Set: CC-PVTZ
  Basis Set:
  @DF-RHF Final Energy:  -290.48581739029743
    Total Energy =                       -290.4858173902974841
  Basis Set: CC-PVTZ
  Basis Set:
  Charge       = 0
  Multiplicity = 1
  Basis Set: CC-PVTZ
  Basis Set:

    Orbital Energies (a.u.)
    -----------------------

    Doubly Occupied:

       1A    -15.524351     2A    -11.236301     3A    -11.235662
       4A    -11.214267     5A    -11.211428     6A    -11.209244
       7A    -11.207315     8A     -1.203031     9A     -1.059641
      10A     -1.027553    11A     -0.929234    12A     -0.870461
      13A     -0.809494    14A     -0.802481    15A     -0.654761
      16A     -0.642947    17A     -0.616072    18A     -0.604683
      19A     -0.576843    20A     -0.551193    21A     -0.549284
      22A     -0.519186    23A     -0.516182    24A     -0.487656
      25A     -0.485591    26A     -0.475431    27A     -0.471074
      28A     -0.457350    29A     -0.351344

  @DF-RHF Final Energy:  -290.48581758378367

   => Energetics <=

    Nuclear Repulsion Energy =            315.8587067179956307
    One-Electron Energy =               -1017.6889274777054197
    Two-Electron Energy =                 411.3444031759261179
    DFT Exchange-Correlation Energy =       0.0000000000000000
    Empirical Dispersion Energy =           0.0000000000000000
    PCM Polarization Energy =               0.0000000000000000
    EFP Energy =                            0.0000000000000000
    Total Energy =                       -290.4858175837837280
    Molecular point group: c1
  Basis Set: CC-PVTZ
  Basis Set:

  -Total Gradient:
     Atom            X                  Y                   Z
    ------   -----------------  -----------------  -----------------
       1       -0.000003579903    -0.000001775723    -0.000004522759
       2        0.000008695552    -0.000005557749     0.000008151055
       3       -0.000024891568     0.000019112986    -0.000017310898
       4        0.000001492508     0.000007254619    -0.000002132309
       5       -0.000004394679    -0.000005864966     0.000000045657
       6        0.001042213685     0.001887295924     0.001308861439
       7        0.000007343307    -0.000003018325     0.000008971822
       8        0.000003707092     0.000000314926     0.000014578585
       9       -0.000223035812    -0.000022112828     0.002361299365
      10       -0.000834423691    -0.001588443842    -0.001723958826
      11       -0.000010989113    -0.000010577789    -0.000013334540
      12        0.000004413728    -0.000287018088    -0.001934162221
      13        0.000007370651    -0.000000453485     0.000000858661
      14        0.000008488255     0.000014208702    -0.000001163476
      15       -0.000005462076    -0.000001495298    -0.000004130064
      16       -0.000000839303     0.000001843816     0.000000086952
      17        0.000017097140    -0.000009369133    -0.000000908465
      18       -0.000001796281     0.000003108025    -0.000005005801
      19        0.000000362019    -0.000000024138     0.000003032708
      20       -0.000000877300    -0.000001607848    -0.000001652619
      21        0.000009271346     0.000005873948    -0.000000383938
      22       -0.000000165559    -0.000001693734     0.000002779674

  **** Optimization is complete! (in 6 steps) ****
    Final optimized geometry and variables:
    Molecular point group: c1

    Geometry (in Angstrom), charge = 0, multiplicity = 1:

    H            3.742259233572    -0.939739742268     2.072921980621
    C            3.316825856868    -0.953823610737     1.076416898779
    C            2.026882160110    -0.143088920273     1.014732476755
    H            4.061091095249    -0.557466235600     0.393855389917
    H            3.141291017143    -1.989999268449     0.806871419970
    C            1.407391798278    -0.120110458950    -0.380094708312
    H            2.228492749017     0.878684018362     1.327440758130
    H            1.306982916161    -0.545828792580     1.721500101302
    N            0.171792820377     0.635585172643    -0.485220557597
    H            2.128962146402     0.269177463474    -1.093111306618
    H            1.207735354964    -1.138981733237    -0.696626278798
    C           -1.052630649177    -0.130179672272    -0.389438908098
    H            0.164412370413     1.395307103959     0.160268464536
    C           -2.274681263507     0.771808618646    -0.477890692661
    H           -1.072738533046    -0.837197900708    -1.212667349368
    H           -1.111945043766    -0.721690132540     0.528832503865
    C           -3.587082494623    -0.002119728750    -0.422135677943
    H           -2.217574113379     1.343360103239    -1.397714010912
    H           -2.247042061237     1.491959782950     0.336544225894
    H           -3.660036331881    -0.708709619701    -1.242130379818
    H           -4.436979439944     0.666868696693    -0.487622274959
    H           -3.677540247057    -0.560429207968     0.503668516894

  Mulliken Charges: (a.u.)
   Center  Symbol    Alpha    Beta     Spin     Total
       1     H     0.44782  0.44782  0.00000  0.10436
       2     C     3.15242  3.15242  0.00000 -0.30485
       3     C     3.08759  3.08759  0.00000 -0.17518
       4     H     0.45424  0.45424  0.00000  0.09151
       5     H     0.45440  0.45440  0.00000  0.09121
       6     C     3.03403  3.03403  0.00000 -0.06806
       7     H     0.45812  0.45812  0.00000  0.08377
       8     H     0.45315  0.45315  0.00000  0.09369
       9     N     3.64494  3.64494  0.00000 -0.28989
      10     H     0.45020  0.45020  0.00000  0.09959
      11     H     0.46089  0.46089  0.00000  0.07821
      12     C     3.01971  3.01971  0.00000 -0.03942
      13     H     0.44429  0.44429  0.00000  0.11143
      14     C     3.08205  3.08205  0.00000 -0.16410
      15     H     0.45874  0.45874  0.00000  0.08251
      16     H     0.47687  0.47687  0.00000  0.04627
      17     C     3.15319  3.15319  0.00000 -0.30638
      18     H     0.44900  0.44900  0.00000  0.10200
      19     H     0.45971  0.45971  0.00000  0.08059
      20     H     0.45478  0.45478  0.00000  0.09044
      21     H     0.44776  0.44776  0.00000  0.10448
      22     H     0.45609  0.45609  0.00000  0.08781

   Total alpha = 29.00000, Total beta = 29.00000, Total charge = -0.00000

*** Psi4 exiting successfully. Buy a developer a beer!
