  ==> Input File <==

--------------------------------------------------------------------------
set {
	reference rhf
	basis 6-31G*
}

set_num_threads( 1 )
memory 2 gb

molecule MOL {
0 1

H	 -2.798360	 -0.862255	 -0.071053
N	 -1.863561	 -0.715187	 0.256814
C	 -1.344686	 0.554728	 -0.219830
H	 -1.300452	 -1.461917	 -0.101532
C	 0.081427	 0.741154	 0.254071
H	 -1.362155	 0.656231	 -1.305829
H	 -1.952773	 1.354456	 0.191809
O	 0.874168	 -0.245412	 -0.342030
H	 0.444037	 1.730782	 -0.023037
H	 0.121165	 0.653424	 1.337565
C	 1.337447	 -1.219235	 0.538090
H	 1.933409	 -1.919356	 -0.031433
H	 1.957329	 -0.785734	 1.320909
H	 0.514781	 -1.755446	 1.006606

	symmetry c1
}
set optking {
	frozen_dihedral = ("
		8 5 3 6,
		6 3 2 4,
		5 8 11 13
	")
}

ee = energy('scf')
oeprop('DIPOLE', 'QUADRUPOLE', 'MULLIKEN_CHARGES')
f=open( 'psi4out.xyz', 'w' )
f.write( "14  " )
f.write( str(ee) + "\n" )
f.write( MOL.save_string_xyz() )
f.close()
--------------------------------------------------------------------------

    Molecular point group: c1

    Geometry (in Angstrom), charge = 0, multiplicity = 1:

       Center              X                  Y                   Z               Mass
    ------------   -----------------  -----------------  -----------------  -----------------
           H         -2.616056697440    -0.656723657993    -0.168771958366     1.007825032070
           N         -1.681257697440    -0.509655657993     0.159095041634    14.003074004780
           C         -1.162382697440     0.760259342007    -0.317548958366    12.000000000000
           H         -1.118148697440    -1.256385657993    -0.199250958366     1.007825032070
           C          0.263730302560     0.946685342007     0.156352041634    12.000000000000
           H         -1.179851697440     0.861762342007    -1.403547958366     1.007825032070
           H         -1.770469697440     1.559987342007     0.094090041634     1.007825032070
           O          1.056471302560    -0.039880657993    -0.439748958366    15.994914619560
           H          0.626340302560     1.936313342007    -0.120755958366     1.007825032070
           H          0.303468302560     0.858955342007     1.239846041634     1.007825032070
           C          1.519750302560    -1.013703657993     0.440371041634    12.000000000000
           H          2.115712302560    -1.713824657993    -0.129151958366     1.007825032070
           H          2.139632302560    -0.580202657993     1.223190041634     1.007825032070
           H          0.697084302560    -1.549914657993     0.908887041634     1.007825032070

  Charge       = 0
  Multiplicity = 1
  Basis Set: 6-31G*
  Basis Set:

    Orbital Energies (a.u.)
    -----------------------

    Doubly Occupied:

       1A    -20.554604     2A    -15.534392     3A    -11.265258
       4A    -11.264437     5A    -11.239667     6A     -1.381063
       7A     -1.177864     8A     -1.000116     9A     -0.907484
      10A     -0.816097    11A     -0.693184    12A     -0.669671
      13A     -0.644527    14A     -0.612307    15A     -0.598839
      16A     -0.546393    17A     -0.531483    18A     -0.503744
      19A     -0.472201    20A     -0.413758    21A     -0.381817

  @DF-RHF Final Energy:  -248.11928559029013

   => Energetics <=

    Nuclear Repulsion Energy =            198.3818519116532570
    One-Electron Energy =                -730.5844350857070140
    Two-Electron Energy =                 284.0832975837635672
    DFT Exchange-Correlation Energy =       0.0000000000000000
    Empirical Dispersion Energy =           0.0000000000000000
    PCM Polarization Energy =               0.0000000000000000
    EFP Energy =                            0.0000000000000000
    Total Energy =                       -248.1192855902901897

  Mulliken Charges: (a.u.)
   Center  Symbol    Alpha    Beta     Spin     Total
       1     H     0.33041  0.33041  0.00000  0.33919
       2     N     3.92889  3.92889  0.00000 -0.85779
       3     C     3.06464  3.06464  0.00000 -0.12928
       4     H     0.32639  0.32639  0.00000  0.34722
       5     C     2.99904  2.99904  0.00000  0.00192
       6     H     0.42607  0.42607  0.00000  0.14786
       7     H     0.42318  0.42318  0.00000  0.15364
       8     O     4.30892  4.30892  0.00000 -0.61784
       9     H     0.41955  0.41955  0.00000  0.16089
      10     H     0.42116  0.42116  0.00000  0.15768
      11     C     3.08680  3.08680  0.00000 -0.17360
      12     H     0.41419  0.41419  0.00000  0.17162
      13     H     0.42655  0.42655  0.00000  0.14690
      14     H     0.42420  0.42420  0.00000  0.15159

   Total alpha = 21.00000, Total beta = 21.00000, Total charge = -0.00000
