  ==> Input File <==

--------------------------------------------------------------------------
set {
	reference rhf
	basis 6-31G*
}

set_num_threads( 4 )
memory 2 gb

molecule MOL {
0 1

H	 -4.236494	 0.538104	 0.039757
O	 -3.517110	 -0.026191	 -0.205115
C	 -2.306886	 0.532354	 0.237577
C	 -1.177863	 -0.397191	 -0.171080
H	 -2.156308	 1.517575	 -0.201710
H	 -2.315015	 0.655684	 1.319734
C	 0.198102	 0.111031	 0.262842
H	 -1.208843	 -0.518759	 -1.250427
H	 -1.368741	 -1.376554	 0.258909
C	 1.331804	 -0.827780	 -0.158768
H	 0.361943	 1.100838	 -0.156218
H	 0.217265	 0.229072	 1.345532
C	 2.723619	 -0.410569	 0.329459
H	 1.342964	 -0.912588	 -1.244120
H	 1.116806	 -1.824343	 0.220779
C	 3.757063	 -0.220096	 -0.782318
H	 3.088111	 -1.169564	 1.017325
H	 2.641555	 0.507573	 0.907772
H	 3.851302	 -1.119149	 -1.385528
H	 3.494803	 0.597378	 -1.445742
H	 4.734927	 0.000918	 -0.365559

	symmetry c1
}
set optking {
	frozen_dihedral = ("
		16 13 10 14
	")
}

ee = optimize('scf')
oeprop('DIPOLE', 'QUADRUPOLE', 'MULLIKEN_CHARGES')
f=open( 'psi4out.xyz', 'w' )
f.write( "21  " )
f.write( str(ee) + "\n" )
f.write( MOL.save_string_xyz() )
f.close()
--------------------------------------------------------------------------

    Molecular point group: c1
  Charge       = 0
  Multiplicity = 1
  Basis Set: 6-31G*
  Basis Set:
  @DF-RHF Final Energy:  -310.20829796806640
    Total Energy =                       -310.2082979680664039
    Molecular point group: c1
  Basis Set: 6-31G*
  Basis Set:
  Basis Set: 6-31G*
  Basis Set:
  @DF-RHF Final Energy:  -310.20878157405525
    Total Energy =                       -310.2087815740554220
  Basis Set: 6-31G*
  Basis Set:
  Basis Set: 6-31G*
  Basis Set:
  @DF-RHF Final Energy:  -310.20886296747068
    Total Energy =                       -310.2088629674708500
  Basis Set: 6-31G*
  Basis Set:
  Basis Set: 6-31G*
  Basis Set:
  @DF-RHF Final Energy:  -310.20886096246426
    Total Energy =                       -310.2088609624640299
  Basis Set: 6-31G*
  Basis Set:
  Basis Set: 6-31G*
  Basis Set:
  @DF-RHF Final Energy:  -310.20886545943074
    Total Energy =                       -310.2088654594303989
  Basis Set: 6-31G*
  Basis Set:
  Charge       = 0
  Multiplicity = 1
  Basis Set: 6-31G*
  Basis Set:

    Orbital Energies (a.u.)
    -----------------------

    Doubly Occupied:

       1A    -20.551860     2A    -11.267132     3A    -11.216532
       4A    -11.214452     5A    -11.212998     6A    -11.210482
       7A    -11.208397     8A     -1.358684     9A     -1.084680
      10A     -1.033225    11A     -0.956347    12A     -0.867803
      13A     -0.803606    14A     -0.789746    15A     -0.692380
      16A     -0.661535    17A     -0.623965    18A     -0.601773
      19A     -0.585650    20A     -0.563771    21A     -0.542149
      22A     -0.522060    23A     -0.506736    24A     -0.486390
      25A     -0.477818    26A     -0.463150    27A     -0.454527
      28A     -0.441627    29A     -0.434003

  @DF-RHF Final Energy:  -310.20886587999337

   => Energetics <=

    Nuclear Repulsion Energy =            309.5902035717653007
    One-Electron Energy =               -1033.9311824020878703
    Two-Electron Energy =                 414.1321129503295992
    DFT Exchange-Correlation Energy =       0.0000000000000000
    Empirical Dispersion Energy =           0.0000000000000000
    PCM Polarization Energy =               0.0000000000000000
    EFP Energy =                            0.0000000000000000
    Total Energy =                       -310.2088658799929703
    Molecular point group: c1
  Basis Set: 6-31G*
  Basis Set:

  -Total Gradient:
     Atom            X                  Y                   Z
    ------   -----------------  -----------------  -----------------
       1        0.000002981209     0.000000687258     0.000001442046
       2        0.000002611113    -0.000005063089    -0.000000340269
       3        0.000000884450     0.000003870612    -0.000000847521
       4       -0.000000952741     0.000022289065    -0.000009866694
       5       -0.000000611524    -0.000001976443    -0.000000955057
       6        0.000000856075     0.000000464073     0.000001725735
       7       -0.000022594189     0.000012676001     0.000014001079
       8       -0.000007258121     0.000002703343    -0.000004083870
       9        0.000010143833    -0.000000585780    -0.000000735654
      10       -0.000230298571     0.000949257575    -0.000041411875
      11       -0.000008912045    -0.000008951233     0.000003158598
      12       -0.000004051592    -0.000010303820    -0.000001613140
      13        0.000179680137    -0.000766283527     0.000015444521
      14        0.000209565004    -0.000588772719     0.000056913350
      15        0.000046278133    -0.000004189582     0.000040209974
      16       -0.000119309095     0.000451366893    -0.000061812438
      17       -0.000044476579    -0.000045928209    -0.000006070090
      18       -0.000026596996    -0.000008726269    -0.000007164522
      19        0.000004499980    -0.000005167713     0.000015007441
      20        0.000012636094    -0.000006487103     0.000000412783
      21       -0.000005074569     0.000009120666    -0.000013414397

  **** Optimization is complete! (in 6 steps) ****
    Final optimized geometry and variables:
    Molecular point group: c1

    Geometry (in Angstrom), charge = 0, multiplicity = 1:

    H           -4.294969735683     0.752812366543     0.075133766925
    O           -3.580890514994     0.184621091718    -0.176200183553
    C           -2.370450733383     0.703129324155     0.312256792615
    C           -1.249906491570    -0.231289246497    -0.108559463865
    H           -2.192859729168     1.701272339482    -0.085820652277
    H           -2.399279042118     0.785435989177     1.397927362103
    C            0.125008410014     0.234422900253     0.370706252465
    H           -1.261313988442    -0.312794945383    -1.192057252153
    H           -1.466544255279    -1.222216206539     0.281124288392
    C            1.256481121356    -0.706268321215    -0.050589517214
    H            0.328769382384     1.231618855205    -0.017111699590
    H            0.122279457394     0.324500424236     1.455915700352
    C            2.653627971280    -0.243860696063     0.421354843816
    H            1.249369166386    -0.803305388071    -1.133826379918
    H            1.046894990159    -1.701022733762     0.334142783633
    C            3.647679433564    -0.044557238672    -0.723444937292
    H            3.062916588967    -0.961905648940     1.126096189256
    H            2.562110806004     0.690363877219     0.969878829321
    H            3.802585750721    -0.968579084510    -1.273305703687
    H            3.287147626146     0.700603980761    -1.427279091773
    H            4.613450363890     0.287352032799    -0.354422694385

  Mulliken Charges: (a.u.)
   Center  Symbol    Alpha    Beta     Spin     Total
       1     H     0.28118  0.28118  0.00000  0.43765
       2     O     4.37174  4.37174  0.00000 -0.74348
       3     C     2.98977  2.98977  0.00000  0.02045
       4     C     3.15998  3.15998  0.00000 -0.31995
       5     H     0.43286  0.43286  0.00000  0.13427
       6     H     0.43283  0.43283  0.00000  0.13435
       7     C     3.16193  3.16193  0.00000 -0.32387
       8     H     0.41469  0.41469  0.00000  0.17061
       9     H     0.41475  0.41475  0.00000  0.17050
      10     C     3.15439  3.15439  0.00000 -0.30878
      11     H     0.42358  0.42358  0.00000  0.15284
      12     H     0.42301  0.42301  0.00000  0.15397
      13     C     3.15528  3.15528  0.00000 -0.31056
      14     H     0.41969  0.41969  0.00000  0.16062
      15     H     0.41989  0.41989  0.00000  0.16022
      16     C     3.23973  3.23973  0.00000 -0.47946
      17     H     0.41996  0.41996  0.00000  0.16008
      18     H     0.42072  0.42072  0.00000  0.15857
      19     H     0.42112  0.42112  0.00000  0.15777
      20     H     0.42215  0.42215  0.00000  0.15571
      21     H     0.42075  0.42075  0.00000  0.15851

   Total alpha = 29.00000, Total beta = 29.00000, Total charge = -0.00000
