  ==> Input File <==

--------------------------------------------------------------------------
set {
	reference rhf
	basis cc-pvtz
}

set_num_threads( 4 )
memory 2 gb

molecule MOL {
0 1

H	 -2.698799	 -0.000846	 0.036018
C	 -1.694291	 -0.000483	 0.434279
O	 -0.828718	 -0.000608	 -0.655022
H	 -1.576855	 0.881100	 1.056504
H	 -1.576401	 -0.881658	 1.057001
C	 -1.312790	 0.420179	 -1.906617
C	 -2.406515	 -0.493145	 -2.448721
C	 -1.728620	 1.886916	 -1.910743
H	 -0.449233	 0.320161	 -2.552283
H	 -2.093294	 -1.528614	 -2.396238
H	 -2.607277	 -0.250522	 -3.485820
H	 -3.336829	 -0.387298	 -1.902924
H	 -0.945263	 2.502022	 -1.485253
H	 -1.904855	 2.216056	 -2.928280
H	 -2.640872	 2.055921	 -1.350586

	symmetry c1
}
set optking {
	frozen_dihedral = ("
		6 3 2 1
	")
}

ee = optimize('scf')
oeprop('DIPOLE', 'QUADRUPOLE', 'MULLIKEN_CHARGES')
f=open( 'psi4out.xyz', 'w' )
f.write( "15  " )
f.write( str(ee) + "\n" )
f.write( MOL.save_string_xyz() )
f.close()
--------------------------------------------------------------------------

    Molecular point group: c1
  Charge       = 0
  Multiplicity = 1
  Basis Set: CC-PVTZ
  Basis Set:
  @DF-RHF Final Energy:  -232.22209007265704
    Total Energy =                       -232.2220900726570676
    Molecular point group: c1
  Basis Set: CC-PVTZ
  Basis Set:
  Basis Set: CC-PVTZ
  Basis Set:
  @DF-RHF Final Energy:  -232.22368976447171
    Total Energy =                       -232.2236897644717715
  Basis Set: CC-PVTZ
  Basis Set:
  Basis Set: CC-PVTZ
  Basis Set:
  @DF-RHF Final Energy:  -232.22446143307195
    Total Energy =                       -232.2244614330721788
  Basis Set: CC-PVTZ
  Basis Set:
  Basis Set: CC-PVTZ
  Basis Set:
  @DF-RHF Final Energy:  -232.22446068105967
    Total Energy =                       -232.2244606810596110
  Basis Set: CC-PVTZ
  Basis Set:
  Basis Set: CC-PVTZ
  Basis Set:
  @DF-RHF Final Energy:  -232.22448433488643
    Total Energy =                       -232.2244843348863128
  Basis Set: CC-PVTZ
  Basis Set:
  Basis Set: CC-PVTZ
  Basis Set:
  @DF-RHF Final Energy:  -232.22449208773600
    Total Energy =                       -232.2244920877361096
  Basis Set: CC-PVTZ
  Basis Set:
  Charge       = 0
  Multiplicity = 1
  Basis Set: CC-PVTZ
  Basis Set:

    Orbital Energies (a.u.)
    -----------------------

    Doubly Occupied:

       1A    -20.539964     2A    -11.273130     3A    -11.258947
       4A    -11.209086     5A    -11.208207     6A     -1.371729
       7A     -1.051070     8A     -0.940506     9A     -0.931593
      10A     -0.781779    11A     -0.677174    12A     -0.640669
      13A     -0.633818    14A     -0.570894    15A     -0.563656
      16A     -0.552899    17A     -0.537260    18A     -0.501009
      19A     -0.498440    20A     -0.443926    21A     -0.406467

  @DF-RHF Final Energy:  -232.22449216883982

   => Energetics <=

    Nuclear Repulsion Energy =            198.9428430693835423
    One-Electron Energy =                -709.1502221729632538
    Two-Electron Energy =                 277.9828869347400655
    DFT Exchange-Correlation Energy =       0.0000000000000000
    Empirical Dispersion Energy =           0.0000000000000000
    PCM Polarization Energy =               0.0000000000000000
    EFP Energy =                            0.0000000000000000
    Total Energy =                       -232.2244921688396175
    Molecular point group: c1
  Basis Set: CC-PVTZ
  Basis Set:

  -Total Gradient:
     Atom            X                  Y                   Z
    ------   -----------------  -----------------  -----------------
       1        0.000118674222     0.001778311810     0.000010846852
       2       -0.000417083232    -0.002975744925    -0.000151096231
       3        0.000778796513     0.002513549508     0.000432905205
       4       -0.000001228883    -0.000004576333     0.000006754164
       5        0.000001734612     0.000004178547     0.000002549833
       6       -0.000468840724    -0.001334739576    -0.000253956730
       7        0.000003495711    -0.000000593392    -0.000000519919
       8       -0.000009070474     0.000017340932    -0.000023963374
       9       -0.000010732002    -0.000004143992    -0.000004963253
      10        0.000000669130    -0.000004677498    -0.000006473680
      11        0.000004217846     0.000006041476     0.000001633262
      12        0.000002998373     0.000001589061    -0.000003176900
      13        0.000003869528    -0.000005525740    -0.000009873269
      14       -0.000008136945     0.000009977890    -0.000002840842
      15        0.000000636325    -0.000000987767     0.000002174881

  **** Optimization is complete! (in 7 steps) ****
    Final optimized geometry and variables:
    Molecular point group: c1

    Geometry (in Angstrom), charge = 0, multiplicity = 1:

    H           -1.147692771807    -0.248394202171     1.440635100183
    C           -0.104091926510    -0.318411942829     1.721350040596
    O            0.753589575862    -0.387857354577     0.623618249460
    H            0.130407373632     0.544982652694     2.336711220778
    H            0.031614265599    -1.210745380187     2.317910963719
    C            0.298504513272     0.053297354118    -0.631258692310
    C           -0.776872738109    -0.859332068290    -1.210058583161
    C           -0.119055393118     1.519263008836    -0.617144200141
    H            1.175541449513    -0.034445571341    -1.260377000199
    H           -0.442686716346    -1.889126281467    -1.188781334737
    H           -0.978426370445    -0.586922829401    -2.239857483489
    H           -1.711700891630    -0.792128332815    -0.665951716337
    H            0.673354887495     2.131740734312    -0.204631536185
    H           -0.321542976720     1.858965951428    -1.626300848159
    H           -1.016056277812     1.680640274407    -0.029971955588

  Mulliken Charges: (a.u.)
   Center  Symbol    Alpha    Beta     Spin     Total
       1     H     0.46955  0.46955  0.00000  0.06090
       2     C     3.03940  3.03940  0.00000 -0.07881
       3     O     4.18674  4.18674  0.00000 -0.37348
       4     H     0.46011  0.46011  0.00000  0.07977
       5     H     0.44736  0.44736  0.00000  0.10528
       6     C     2.93906  2.93906  0.00000  0.12188
       7     C     3.15429  3.15429  0.00000 -0.30857
       8     C     3.15607  3.15607  0.00000 -0.31213
       9     H     0.44625  0.44625  0.00000  0.10750
      10     H     0.44478  0.44478  0.00000  0.11044
      11     H     0.45105  0.45105  0.00000  0.09789
      12     H     0.45549  0.45549  0.00000  0.08902
      13     H     0.44478  0.44478  0.00000  0.11044
      14     H     0.44943  0.44943  0.00000  0.10114
      15     H     0.45564  0.45564  0.00000  0.08873

   Total alpha = 21.00000, Total beta = 21.00000, Total charge = -0.00000
