                              Psi4 1.0.54 Driver

  ==> Input File <==

--------------------------------------------------------------------------
set {
	reference rhf
	basis cc-pvtz
}

set_num_threads( 4 )
memory 2 gb

molecule MOL {
0 1

H	 2.646708	 0.758099	 0.000000
O	 2.258158	 -0.097743	 0.000000
C	 0.911162	 -0.015915	 0.000000
C	 0.246402	 -0.396394	 -1.154180
C	 0.196374	 0.427440	 1.096784
H	 0.817139	 -0.737722	 -1.995164
C	 -1.129278	 -0.329618	 -1.200238
H	 0.712134	 0.722749	 1.992571
C	 -1.184560	 0.489269	 1.036284
H	 -1.639109	 -0.625763	 -2.097328
C	 -1.856556	 0.112943	 -0.107713
H	 -1.731971	 0.834775	 1.892610
H	 -2.926880	 0.162155	 -0.151066

	symmetry c1
}
set optking {
	frozen_dihedral = ("
		4 3 2 1
	")
}

ee,wfn = optimize('scf', return_wfn=True)
oeprop( wfn, 'DIPOLE', 'QUADRUPOLE', 'MULLIKEN_CHARGES')
f=open( 'psi4out.xyz', 'w' )
f.write( "13  " )
f.write( str(ee) + "\n" )
f.write( MOL.save_string_xyz() )
f.close()
--------------------------------------------------------------------------

    Molecular point group: c1
  Charge       = 0
  Multiplicity = 1
  Basis Set: CC-PVTZ
  Basis Set:
  @DF-RHF Final Energy:  -305.66612701069323
    Total Energy =                       -305.6661270106934012
    Molecular point group: c1
  Basis Set: CC-PVTZ
  Basis Set:
  Basis Set: CC-PVTZ
  Basis Set:
  @DF-RHF Final Energy:  -305.66661684954965
    Total Energy =                       -305.6666168495493707
  Basis Set: CC-PVTZ
  Basis Set:
  Basis Set: CC-PVTZ
  Basis Set:
  @DF-RHF Final Energy:  -305.66665901270062
    Total Energy =                       -305.6666590127008476
  Basis Set: CC-PVTZ
  Basis Set:
  Basis Set: CC-PVTZ
  Basis Set:
  @DF-RHF Final Energy:  -305.66666408658381
    Total Energy =                       -305.6666640865838644
  Basis Set: CC-PVTZ
  Basis Set:
  Charge       = 0
  Multiplicity = 1
  Basis Set: CC-PVTZ
  Basis Set:

    Orbital Energies (a.u.)
    -----------------------

    Doubly Occupied:

       1A    -20.572255     2A    -11.289637     3A    -11.233807
       4A    -11.233130     5A    -11.226163     6A    -11.225235
       7A    -11.224383     8A     -1.399422     9A     -1.153308
      10A     -1.022435    11A     -1.008357    12A     -0.840899
      13A     -0.828312    14A     -0.738509    15A     -0.684720
      16A     -0.651799    17A     -0.631291    18A     -0.597243
      19A     -0.592064    20A     -0.528885    21A     -0.517648
      22A     -0.498152    23A     -0.473138    24A     -0.342026
      25A     -0.328037

  @DF-RHF Final Energy:  -305.66666512274332

   => Energetics <=

    Nuclear Repulsion Energy =            273.3583173023209838
    One-Electron Energy =                -956.3682544559062535
    Two-Electron Energy =                 377.3432720308417743
    DFT Exchange-Correlation Energy =       0.0000000000000000
    Empirical Dispersion Energy =           0.0000000000000000
    PCM Polarization Energy =               0.0000000000000000
    EFP Energy =                            0.0000000000000000
    Total Energy =                       -305.6666651227434954
    Molecular point group: c1
  Basis Set: CC-PVTZ
  Basis Set:

  -Total Gradient:
     Atom            X                  Y                   Z
    ------   -----------------  -----------------  -----------------
       1        0.000031278722    -0.000069395628    -0.001470495871
       2        0.000141794570     0.000545137344     0.001590795831
       3       -0.000352093971    -0.001403568011     0.000442918004
       4        0.000064418165     0.000957184366    -0.000508107514
       5        0.000176184930    -0.000022421457    -0.000040659665
       6       -0.000012242021     0.000000259068     0.000018924295
       7        0.000103156888    -0.000008389506    -0.000043447823
       8        0.000014402142    -0.000008391315     0.000005310320
       9       -0.000145225256    -0.000004312790    -0.000096847882
      10       -0.000027285930     0.000002880781     0.000010461559
      11       -0.000000682209     0.000033184583     0.000130579350
      12        0.000012043502    -0.000010866354    -0.000008705137
      13       -0.000005749534    -0.000011301081    -0.000030725471

  **** Optimization is complete! (in 5 steps) ****
    Final optimized geometry and variables:
    Molecular point group: c1

    Geometry (in Angstrom), charge = 0, multiplicity = 1:

    H            2.663271969023     0.697054721785     0.060356146005
    O            2.265193277526    -0.155042202480     0.086139594191
    C            0.903928970821    -0.049633172981     0.036941295604
    C            0.238834014692    -0.460306417074    -1.101651407696
    C            0.195884836810     0.431256246746     1.121887100923
    H            0.806486687193    -0.835602997260    -1.930481960371
    C           -1.140529838484    -0.391100551877    -1.150953311289
    H            0.725467805397     0.732485259844     2.005469082236
    C           -1.182853834837     0.505610408664     1.061344031365
    H           -1.655426297074    -0.714213820773    -2.035611792408
    C           -1.856704977580     0.094561921919    -0.073112011520
    H           -1.730231778812     0.879660038833     1.905478495403
    H           -2.927280349599     0.148736299668    -0.115609910891

  Mulliken Charges: (a.u.)
   Center  Symbol    Alpha    Beta     Spin     Total
       1     H     0.38717  0.38717  0.00000  0.22566
       2     O     4.19137  4.19137  0.00000 -0.38274
       3     C     2.87088  2.87088  0.00000  0.25823
       4     C     3.10781  3.10781  0.00000 -0.21563
       5     C     3.11597  3.11597  0.00000 -0.23193
       6     H     0.41631  0.41631  0.00000  0.16737
       7     C     3.06759  3.06759  0.00000 -0.13518
       8     H     0.41943  0.41943  0.00000  0.16115
       9     C     3.06920  3.06920  0.00000 -0.13839
      10     H     0.42165  0.42165  0.00000  0.15670
      11     C     3.08772  3.08772  0.00000 -0.17543
      12     H     0.42179  0.42179  0.00000  0.15642
      13     H     0.42312  0.42312  0.00000  0.15377

   Total alpha = 25.00000, Total beta = 25.00000, Total charge =  0.00000

*** Psi4 exiting successfully. Buy a developer a beer!
