  ==> Input File <==

--------------------------------------------------------------------------
set {
	reference rhf
	basis 6-31G*
}

set_num_threads( 1 )
memory 2 gb

molecule MOL {
0 1

H	 -3.161837	 0.500524	 -0.000234
C	 -2.367097	 -0.232926	 -0.000000
O	 -1.158440	 0.455814	 -0.000122
H	 -2.468853	 -0.861886	 -0.882833
H	 -2.468942	 -0.861421	 0.883154
C	 -0.029776	 -0.365156	 0.000148
C	 1.212217	 0.508981	 0.000007
H	 -0.036772	 -1.013236	 -0.877259
H	 -0.036869	 -1.012778	 0.877897
C	 0.898677	 1.969797	 -0.320291
H	 1.687316	 0.432172	 0.973168
H	 1.914984	 0.108564	 -0.724206
H	 0.214867	 2.397336	 0.407746
H	 1.802241	 2.570112	 -0.314077
H	 0.443435	 2.071413	 -1.301532

	symmetry c1
}
set optking {
	frozen_dihedral = ("
		6 3 2 4,
		8 6 3 2
	")
}

ee = energy('scf')
oeprop('DIPOLE', 'QUADRUPOLE', 'MULLIKEN_CHARGES')
f=open( 'psi4out.xyz', 'w' )
f.write( "15  " )
f.write( str(ee) + "\n" )
f.write( MOL.save_string_xyz() )
f.close()
--------------------------------------------------------------------------

    Molecular point group: c1

    Geometry (in Angstrom), charge = 0, multiplicity = 1:

       Center              X                  Y                   Z               Mass
    ------------   -----------------  -----------------  -----------------  -----------------
           H         -2.836647154342     0.038497749483     0.064691768210     1.007825032070
           C         -2.041907154342    -0.694952250517     0.064925768210    12.000000000000
           O         -0.833250154342    -0.006212250517     0.064803768210    15.994914619560
           H         -2.143663154342    -1.323912250517    -0.817907231790     1.007825032070
           H         -2.143752154342    -1.323447250517     0.948079768210     1.007825032070
           C          0.295413845658    -0.827182250517     0.065073768210    12.000000000000
           C          1.537406845658     0.046954749483     0.064932768210    12.000000000000
           H          0.288417845658    -1.475262250517    -0.812333231790     1.007825032070
           H          0.288320845658    -1.474804250517     0.942822768210     1.007825032070
           C          1.223866845658     1.507770749483    -0.255365231790    12.000000000000
           H          2.012505845658    -0.029854250517     1.038093768210     1.007825032070
           H          2.240173845658    -0.353462250517    -0.659280231790     1.007825032070
           H          0.540056845658     1.935309749483     0.472671768210     1.007825032070
           H          2.127430845658     2.108085749483    -0.249151231790     1.007825032070
           H          0.768624845658     1.609386749483    -1.236606231790     1.007825032070

  Charge       = 0
  Multiplicity = 1
  Basis Set: 6-31G*
  Basis Set:

    Orbital Energies (a.u.)
    -----------------------

    Doubly Occupied:

       1A    -20.553860     2A    -11.265464     3A    -11.264445
       4A    -11.212512     5A    -11.198112     6A     -1.380146
       7A     -1.051883     8A     -0.945398     9A     -0.891747
      10A     -0.790459    11A     -0.674423    12A     -0.659902
      13A     -0.635040    14A     -0.601210    15A     -0.546219
      16A     -0.538964    17A     -0.505696    18A     -0.478453
      19A     -0.473733    20A     -0.461742    21A     -0.408465

  @DF-RHF Final Energy:  -232.13058543696312

   => Energetics <=

    Nuclear Repulsion Energy =            195.1164078405494990
    One-Electron Energy =                -701.4184071957506603
    Two-Electron Energy =                 274.1714139182388408
    DFT Exchange-Correlation Energy =       0.0000000000000000
    Empirical Dispersion Energy =           0.0000000000000000
    PCM Polarization Energy =               0.0000000000000000
    EFP Energy =                            0.0000000000000000
    Total Energy =                       -232.1305854369622921

  Mulliken Charges: (a.u.)
   Center  Symbol    Alpha    Beta     Spin     Total
       1     H     0.41254  0.41254  0.00000  0.17492
       2     C     3.07821  3.07821  0.00000 -0.15642
       3     O     4.30562  4.30562  0.00000 -0.61123
       4     H     0.43027  0.43027  0.00000  0.13947
       5     H     0.43043  0.43043  0.00000  0.13913
       6     C     2.98358  2.98358  0.00000  0.03283
       7     C     3.17415  3.17415  0.00000 -0.34829
       8     H     0.43152  0.43152  0.00000  0.13696
       9     H     0.43019  0.43019  0.00000  0.13961
      10     C     3.22992  3.22992  0.00000 -0.45983
      11     H     0.41909  0.41909  0.00000  0.16182
      12     H     0.41989  0.41989  0.00000  0.16022
      13     H     0.41022  0.41022  0.00000  0.17957
      14     H     0.42573  0.42573  0.00000  0.14854
      15     H     0.41865  0.41865  0.00000  0.16270

   Total alpha = 21.00000, Total beta = 21.00000, Total charge = -0.00000
