  ==> Input File <==

--------------------------------------------------------------------------
set {
	reference rhf
	basis 6-31G*
}

set_num_threads( 4 )
memory 2 gb

molecule MOL {
0 1

H	 -0.916402	 1.773354	 0.859530
C	 -0.240759	 0.940328	 1.059184
N	 0.538815	 0.649616	 0.000000
O	 -0.226204	 0.376567	 2.113305
C	 1.521968	 -0.411503	 0.000000
H	 0.426564	 1.197931	 -0.821605
H	 2.150599	 -0.357004	 -0.881901
H	 0.999455	 -1.354525	 0.000000
H	 2.150599	 -0.357004	 0.881901

	symmetry c1
}
set optking {
	frozen_dihedral = ("
		6 3 5 7
	")
}

ee = optimize('scf')
oeprop('DIPOLE', 'QUADRUPOLE', 'MULLIKEN_CHARGES')
f=open( 'psi4out.xyz', 'w' )
f.write( "9  " )
f.write( str(ee) + "\n" )
f.write( MOL.save_string_xyz() )
f.close()
--------------------------------------------------------------------------

    Molecular point group: c1
  Charge       = 0
  Multiplicity = 1
  Basis Set: 6-31G*
  Basis Set:
  @DF-RHF Final Energy:  -207.96027400066259
    Total Energy =                       -207.9602740006625652
    Molecular point group: c1
  Basis Set: 6-31G*
  Basis Set:
  Basis Set: 6-31G*
  Basis Set:
  @DF-RHF Final Energy:  -207.96090381522455
    Total Energy =                       -207.9609038152246114
  Basis Set: 6-31G*
  Basis Set:
  Basis Set: 6-31G*
  Basis Set:
  @DF-RHF Final Energy:  -207.96102049956272
    Total Energy =                       -207.9610204995628351
  Basis Set: 6-31G*
  Basis Set:
  Basis Set: 6-31G*
  Basis Set:
  @DF-RHF Final Energy:  -207.96090836376857
    Total Energy =                       -207.9609083637685671
  Basis Set: 6-31G*
  Basis Set:
  Basis Set: 6-31G*
  Basis Set:
  @DF-RHF Final Energy:  -207.96103668620538
    Total Energy =                       -207.9610366862054320
  Basis Set: 6-31G*
  Basis Set:
  Basis Set: 6-31G*
  Basis Set:
  @DF-RHF Final Energy:  -207.96104131892082
    Total Energy =                       -207.9610413189207634
  Basis Set: 6-31G*
  Basis Set:
  Charge       = 0
  Multiplicity = 1
  Basis Set: 6-31G*
  Basis Set:

    Orbital Energies (a.u.)
    -----------------------

    Doubly Occupied:

       1A    -20.525827     2A    -15.590324     3A    -11.342534
       4A    -11.261350     5A     -1.389148     6A     -1.235833
       7A     -0.967777     8A     -0.808174     9A     -0.746691
      10A     -0.640836    11A     -0.626721    12A     -0.592403
      13A     -0.558379    14A     -0.532078    15A     -0.423532
      16A     -0.391125

  @DF-RHF Final Energy:  -207.96104456683094

   => Energetics <=

    Nuclear Repulsion Energy =            122.7210461690512346
    One-Electron Energy =                -526.0987155142031497
    Two-Electron Energy =                 195.4166247783209087
    DFT Exchange-Correlation Energy =       0.0000000000000000
    Empirical Dispersion Energy =           0.0000000000000000
    PCM Polarization Energy =               0.0000000000000000
    EFP Energy =                            0.0000000000000000
    Total Energy =                       -207.9610445668309922
    Molecular point group: c1
  Basis Set: 6-31G*
  Basis Set:

  -Total Gradient:
     Atom            X                  Y                   Z
    ------   -----------------  -----------------  -----------------
       1        0.000008969273    -0.000009037777     0.000013895142
       2        0.000040054283     0.000008352640    -0.000113518044
       3       -0.000132112189     0.000012729652    -0.000067290871
       4       -0.000006388459    -0.000036974144     0.000081310019
       5        0.000104873380    -0.000015706994     0.000092932033
       6        0.000040220867     0.000034928397     0.000018308006
       7       -0.000051542200    -0.000008959865    -0.000019724858
       8       -0.000009553567     0.000025151024    -0.000002153298
       9        0.000005478614    -0.000010482932    -0.000003758131

  **** Optimization is complete! (in 7 steps) ****
    Final optimized geometry and variables:
    Molecular point group: c1

    Geometry (in Angstrom), charge = 0, multiplicity = 1:

    H           -1.324562395251     1.404408963706     0.094793919919
    C           -0.650264847696     0.564349807353     0.268663707998
    N            0.147926362843     0.305593247857    -0.782374425864
    O           -0.639777863536    -0.042100447828     1.299129624964
    C            1.099069813666    -0.785793887973    -0.766835259381
    H            0.034808509647     0.843724305783    -1.609434035170
    H            1.697067130137    -0.738237370324    -1.666708309600
    H            0.597131809713    -1.745202765900    -0.727707912106
    H            1.750109373975    -0.705851369099     0.093154064994

  Mulliken Charges: (a.u.)
   Center  Symbol    Alpha    Beta     Spin     Total
       1     H     0.42692  0.42692  0.00000  0.14616
       2     C     2.74734  2.74734  0.00000  0.50532
       3     N     3.87520  3.87520  0.00000 -0.75039
       4     O     4.28316  4.28316  0.00000 -0.56632
       5     C     3.13611  3.13611  0.00000 -0.27223
       6     H     0.30748  0.30748  0.00000  0.38504
       7     H     0.41597  0.41597  0.00000  0.16806
       8     H     0.40671  0.40671  0.00000  0.18658
       9     H     0.40111  0.40111  0.00000  0.19778

   Total alpha = 16.00000, Total beta = 16.00000, Total charge = -0.00000
