  ==> Input File <==

--------------------------------------------------------------------------
set {
	reference rhf
	basis 6-31G*
}

set_num_threads( 4 )
memory 2 gb

molecule MOL {
0 1

O	 -2.455965	 -0.957223	 -0.340367
C	 -1.929740	 0.052958	 -0.001408
C	 -2.632055	 1.370071	 0.189154
O	 -0.632575	 0.154573	 0.251549
H	 -2.199717	 2.114341	 -0.469704
H	 -3.684218	 1.254043	 -0.023745
H	 -2.494881	 1.714102	 1.207772
C	 0.160891	 -1.019931	 0.106212
C	 1.589627	 -0.672828	 0.480843
H	 0.089836	 -1.367806	 -0.916050
H	 -0.238459	 -1.792301	 0.749618
C	 2.246377	 0.346236	 -0.452210
H	 2.163194	 -1.597435	 0.473358
H	 1.604769	 -0.303424	 1.502885
C	 3.691736	 0.652107	 -0.061850
H	 2.219579	 -0.032311	 -1.472055
H	 1.666466	 1.263317	 -0.447249
H	 4.134505	 1.377213	 -0.737283
H	 4.305508	 -0.243868	 -0.089969
H	 3.748266	 1.059562	 0.943567

	symmetry c1
}
set optking {
	frozen_dihedral = ("
		2 4 8 10
	")
}

ee = optimize('scf')
oeprop('DIPOLE', 'QUADRUPOLE', 'MULLIKEN_CHARGES')
f=open( 'psi4out.xyz', 'w' )
f.write( "20  " )
f.write( str(ee) + "\n" )
f.write( MOL.save_string_xyz() )
f.close()
--------------------------------------------------------------------------

    Molecular point group: c1
  Charge       = 0
  Multiplicity = 1
  Basis Set: 6-31G*
  Basis Set:
  @DF-RHF Final Energy:  -383.94568228333054
    Total Energy =                       -383.9456822833304841
    Molecular point group: c1
  Basis Set: 6-31G*
  Basis Set:
  Basis Set: 6-31G*
  Basis Set:
  @DF-RHF Final Energy:  -383.94557887621909
    Total Energy =                       -383.9455788762188604
  Basis Set: 6-31G*
  Basis Set:
  Basis Set: 6-31G*
  Basis Set:
  @DF-RHF Final Energy:  -383.94568458606363
    Total Energy =                       -383.9456845860634076
  Basis Set: 6-31G*
  Basis Set:
  Charge       = 0
  Multiplicity = 1
  Basis Set: 6-31G*
  Basis Set:

    Orbital Energies (a.u.)
    -----------------------

    Doubly Occupied:

       1A    -20.601842     2A    -20.544112     3A    -11.374572
       4A    -11.282399     5A    -11.233467     6A    -11.225514
       7A    -11.220593     8A    -11.213439     9A     -1.468023
      10A     -1.362255    11A     -1.086068    12A     -1.028268
      13A     -0.981435    14A     -0.880191    15A     -0.811596
      16A     -0.774957    17A     -0.689665    18A     -0.683793
      19A     -0.666923    20A     -0.631493    21A     -0.601001
      22A     -0.592563    23A     -0.572259    24A     -0.550779
      25A     -0.544826    26A     -0.531368    27A     -0.511956
      28A     -0.483628    29A     -0.474800    30A     -0.471711
      31A     -0.449154    32A     -0.438769

  @DF-RHF Final Energy:  -383.94568505613233

   => Energetics <=

    Nuclear Repulsion Energy =            385.0901014628628900
    One-Electron Energy =               -1286.1047354211248148
    Two-Electron Energy =                 517.0689489021297049
    DFT Exchange-Correlation Energy =       0.0000000000000000
    Empirical Dispersion Energy =           0.0000000000000000
    PCM Polarization Energy =               0.0000000000000000
    EFP Energy =                            0.0000000000000000
    Total Energy =                       -383.9456850561322199
    Molecular point group: c1
  Basis Set: 6-31G*
  Basis Set:

  -Total Gradient:
     Atom            X                  Y                   Z
    ------   -----------------  -----------------  -----------------
       1       -0.000005076584    -0.000007777211     0.000038107258
       2       -0.000027656788    -0.000023817353     0.000068112433
       3       -0.000004646672    -0.000004364471     0.000035698749
       4        0.000082091135     0.000067665434    -0.000212980043
       5        0.000002284388    -0.000008046425    -0.000002051244
       6       -0.000000326667    -0.000001042095    -0.000000539535
       7       -0.000002175990     0.000007258310     0.000004663164
       8       -0.000233603887    -0.000176048686     0.000132756157
       9        0.000001058346     0.000015072263     0.000007265010
      10        0.000172126680     0.000109749357    -0.000077330920
      11        0.000000627092     0.000022997596    -0.000003047881
      12        0.000000316498     0.000012572804    -0.000001642601
      13        0.000002549291     0.000008617450     0.000004110119
      14        0.000003408535     0.000005046172     0.000005241397
      15        0.000001440690    -0.000011084905    -0.000001742647
      16       -0.000005753534    -0.000004267368     0.000001090473
      17        0.000008556993    -0.000008194528     0.000004435408
      18       -0.000001963745    -0.000000089412    -0.000000517211
      19        0.000008686185    -0.000001284365    -0.000000131887
      20       -0.000001941965    -0.000002962569    -0.000001496200

  **** Optimization is complete! (in 4 steps) ****
    Final optimized geometry and variables:
    Molecular point group: c1

    Geometry (in Angstrom), charge = 0, multiplicity = 1:

    O           -2.451216806816    -0.950998797129    -0.365709345909
    C           -1.925123468339     0.059025786079    -0.025949587385
    C           -2.628687141120     1.374731684334     0.170314696547
    O           -0.628554459854     0.160212720626     0.229693541297
    H           -2.197820086386     2.121635817556    -0.486500845430
    H           -3.680903365407     1.258218854190    -0.042093192158
    H           -2.490807925911     1.715280581077     1.190034115491
    C            0.164736573539    -1.014837496841     0.087630644259
    C            1.593477425228    -0.666997790866     0.461908261270
    H            0.095368850183    -1.363556598495    -0.934703384059
    H           -0.234904652074    -1.786119647580     0.731747857689
    C            2.250296498749     0.351375867127    -0.471735752284
    H            2.167257853595    -1.591512338254     0.455482652417
    H            1.608469008377    -0.296612999843     1.483579770465
    C            3.696100150949     0.656483331433    -0.082306478563
    H            2.222860396368    -0.027945780072    -1.491254732662
    H            1.670788165455     1.268732463631    -0.467303562703
    H            4.139384275002     1.380058071322    -0.759052052624
    H            4.309194473999    -0.240051274699    -0.108957849716
    H            3.753281662773     1.065635000793     0.922380447112

  Mulliken Charges: (a.u.)
   Center  Symbol    Alpha    Beta     Spin     Total
       1     O     4.28332  4.28332  0.00000 -0.56665
       2     C     2.61922  2.61922  0.00000  0.76156
       3     C     3.28166  3.28166  0.00000 -0.56332
       4     O     4.30862  4.30862  0.00000 -0.61724
       5     H     0.40074  0.40074  0.00000  0.19851
       6     H     0.39685  0.39685  0.00000  0.20629
       7     H     0.40062  0.40062  0.00000  0.19877
       8     C     3.00262  3.00262  0.00000 -0.00523
       9     C     3.16469  3.16469  0.00000 -0.32937
      10     H     0.41118  0.41118  0.00000  0.17765
      11     H     0.40773  0.40773  0.00000  0.18454
      12     C     3.15506  3.15506  0.00000 -0.31011
      13     H     0.41828  0.41828  0.00000  0.16345
      14     H     0.41463  0.41463  0.00000  0.17074
      15     C     3.24039  3.24039  0.00000 -0.48077
      16     H     0.42282  0.42282  0.00000  0.15435
      17     H     0.41178  0.41178  0.00000  0.17643
      18     H     0.41756  0.41756  0.00000  0.16489
      19     H     0.42166  0.42166  0.00000  0.15667
      20     H     0.42058  0.42058  0.00000  0.15884

   Total alpha = 32.00000, Total beta = 32.00000, Total charge =  0.00000
