  ==> Input File <==

--------------------------------------------------------------------------
set {
	reference rhf
	basis cc-pvtz
}

set_num_threads( 4 )
memory 2 gb

molecule MOL {
0 1

H	 1.145899	 -1.219896	 0.245458
O	 1.305301	 -0.562658	 -0.408057
C	 0.706474	 0.636793	 -0.025501
C	 -0.793473	 0.591216	 0.050087
H	 1.004217	 1.376092	 -0.759727
H	 1.096421	 0.976808	 0.932116
C	 -1.534243	 -0.493009	 -0.013340
H	 -1.266611	 1.552628	 0.164437
H	 -1.101195	 -1.466332	 -0.144046
H	 -2.604242	 -0.437780	 0.050785

	symmetry c1
}
set optking {
	frozen_dihedral = ("
		5 3 4 7
	")
}

ee = optimize('scf')
oeprop('DIPOLE', 'QUADRUPOLE', 'MULLIKEN_CHARGES')
f=open( 'psi4out.xyz', 'w' )
f.write( "10  " )
f.write( str(ee) + "\n" )
f.write( MOL.save_string_xyz() )
f.close()
--------------------------------------------------------------------------

    Molecular point group: c1
  Charge       = 0
  Multiplicity = 1
  Basis Set: CC-PVTZ
  Basis Set:
  @DF-RHF Final Energy:  -191.99774527988853
    Total Energy =                       -191.9977452798885338
    Molecular point group: c1
  Basis Set: CC-PVTZ
  Basis Set:
  Basis Set: CC-PVTZ
  Basis Set:
  @DF-RHF Final Energy:  -191.99800488380708
    Total Energy =                       -191.9980048838071411
  Basis Set: CC-PVTZ
  Basis Set:
  Basis Set: CC-PVTZ
  Basis Set:
  @DF-RHF Final Energy:  -191.99806656111326
    Total Energy =                       -191.9980665611133759
  Basis Set: CC-PVTZ
  Basis Set:
  Basis Set: CC-PVTZ
  Basis Set:
  @DF-RHF Final Energy:  -191.99806861064900
    Total Energy =                       -191.9980686106489713
  Basis Set: CC-PVTZ
  Basis Set:
  Charge       = 0
  Multiplicity = 1
  Basis Set: CC-PVTZ
  Basis Set:

    Orbital Energies (a.u.)
    -----------------------

    Doubly Occupied:

       1A    -20.555356     2A    -11.278664     3A    -11.230342
       4A    -11.216358     5A     -1.375859     6A     -1.062456
       7A     -0.933035     8A     -0.770369     9A     -0.696440
      10A     -0.665201    11A     -0.622812    12A     -0.573361
      13A     -0.534528    14A     -0.503698    15A     -0.451081
      16A     -0.368593

  @DF-RHF Final Energy:  -191.99806906005881

   => Energetics <=

    Nuclear Repulsion Energy =            119.4373411739628068
    One-Electron Energy =                -497.1945120204659361
    Two-Electron Energy =                 185.7591017864443188
    DFT Exchange-Correlation Energy =       0.0000000000000000
    Empirical Dispersion Energy =           0.0000000000000000
    PCM Polarization Energy =               0.0000000000000000
    EFP Energy =                            0.0000000000000000
    Total Energy =                       -191.9980690600588105
    Molecular point group: c1
  Basis Set: CC-PVTZ
  Basis Set:

  -Total Gradient:
     Atom            X                  Y                   Z
    ------   -----------------  -----------------  -----------------
       1        0.000009507931    -0.000046161825     0.000008664077
       2       -0.000013810303     0.000088902219     0.000034007914
       3       -0.000043466112    -0.002677794578    -0.001220526593
       4       -0.000201166221     0.000834307127    -0.003553583036
       5        0.000072328174     0.001988373456     0.002018102862
       6        0.000029611744     0.000020450346     0.000043428624
       7        0.000169583148    -0.000230155423     0.002705131058
       8       -0.000018632621     0.000025796675    -0.000017851196
       9        0.000000642011     0.000000379123    -0.000013456438
      10       -0.000004597752    -0.000004097124    -0.000003917271

  **** Optimization is complete! (in 5 steps) ****
    Final optimized geometry and variables:
    Molecular point group: c1

    Geometry (in Angstrom), charge = 0, multiplicity = 1:

    H            1.229819242530    -1.202438940425     0.412585886082
    O            1.314875872340    -0.583364130517    -0.289598514805
    C            0.711796586402     0.621422284868     0.063460047894
    C           -0.787738300643     0.583418362559     0.144548640298
    H            1.014339874253     1.360758880120    -0.668176663602
    H            1.094443152126     0.979521630399     1.018721284272
    C           -1.539043293319    -0.492994389994     0.080557144691
    H           -1.248471632339     1.542079403336     0.318320697959
    H           -1.123045241326    -1.465377364773    -0.103183520589
    H           -2.605769859439    -0.431962956823     0.181966966179

  Mulliken Charges: (a.u.)
   Center  Symbol    Alpha    Beta     Spin     Total
       1     H     0.39067  0.39067  0.00000  0.21866
       2     O     4.19832  4.19832  0.00000 -0.39663
       3     C     2.95052  2.95052  0.00000  0.09896
       4     C     3.07744  3.07744  0.00000 -0.15487
       5     H     0.45422  0.45422  0.00000  0.09155
       6     H     0.47041  0.47041  0.00000  0.05918
       7     C     3.17888  3.17888  0.00000 -0.35776
       8     H     0.42302  0.42302  0.00000  0.15396
       9     H     0.42856  0.42856  0.00000  0.14288
      10     H     0.42797  0.42797  0.00000  0.14407

   Total alpha = 16.00000, Total beta = 16.00000, Total charge = -0.00000
