  ==> Input File <==

--------------------------------------------------------------------------
set {
	reference rhf
	basis cc-pvtz
}

set_num_threads( 4 )
memory 2 gb

molecule MOL {
0 1

H	 2.646708	 0.758099	 0.000000
O	 2.258158	 -0.097743	 0.000000
C	 0.911162	 -0.015915	 0.000000
C	 0.246402	 -0.396394	 1.154180
C	 0.196374	 0.427440	 -1.096784
H	 0.817139	 -0.737722	 1.995164
C	 -1.129278	 -0.329618	 1.200238
H	 0.712134	 0.722749	 -1.992571
C	 -1.184560	 0.489269	 -1.036284
H	 -1.639109	 -0.625763	 2.097328
C	 -1.856556	 0.112943	 0.107713
H	 -1.731971	 0.834775	 -1.892610
H	 -2.926880	 0.162155	 0.151066

	symmetry c1
}
set optking {
	frozen_dihedral = ("
		4 3 2 1
	")
}

ee = optimize('scf')
oeprop('DIPOLE', 'QUADRUPOLE', 'MULLIKEN_CHARGES')
f=open( 'psi4out.xyz', 'w' )
f.write( "13  " )
f.write( str(ee) + "\n" )
f.write( MOL.save_string_xyz() )
f.close()
--------------------------------------------------------------------------

    Molecular point group: c1
  Charge       = 0
  Multiplicity = 1
  Basis Set: CC-PVTZ
  Basis Set:
  @DF-RHF Final Energy:  -305.66612701028265
    Total Energy =                       -305.6661270102824233
    Molecular point group: c1
  Basis Set: CC-PVTZ
  Basis Set:
  Basis Set: CC-PVTZ
  Basis Set:
  @DF-RHF Final Energy:  -305.66661139233008
    Total Energy =                       -305.6666113923298553
  Basis Set: CC-PVTZ
  Basis Set:
  Basis Set: CC-PVTZ
  Basis Set:
  @DF-RHF Final Energy:  -305.66665907234886
    Total Energy =                       -305.6666590723486934
  Basis Set: CC-PVTZ
  Basis Set:
  Basis Set: CC-PVTZ
  Basis Set:
  @DF-RHF Final Energy:  -305.66666416060445
    Total Energy =                       -305.6666641606045687
  Basis Set: CC-PVTZ
  Basis Set:
  Charge       = 0
  Multiplicity = 1
  Basis Set: CC-PVTZ
  Basis Set:

    Orbital Energies (a.u.)
    -----------------------

    Doubly Occupied:

       1A    -20.572256     2A    -11.289641     3A    -11.233806
       4A    -11.233132     5A    -11.226164     6A    -11.225235
       7A    -11.224387     8A     -1.399406     9A     -1.153307
      10A     -1.022431    11A     -1.008359    12A     -0.840897
      13A     -0.828312    14A     -0.738509    15A     -0.684719
      16A     -0.651796    17A     -0.631284    18A     -0.597240
      19A     -0.592060    20A     -0.528885    21A     -0.517649
      22A     -0.498148    23A     -0.473138    24A     -0.342024
      25A     -0.328039

  @DF-RHF Final Energy:  -305.66666512397512

   => Energetics <=

    Nuclear Repulsion Energy =            273.3567906314264064
    One-Electron Energy =                -956.3652609651585408
    Two-Electron Energy =                 377.3418052097572399
    DFT Exchange-Correlation Energy =       0.0000000000000000
    Empirical Dispersion Energy =           0.0000000000000000
    PCM Polarization Energy =               0.0000000000000000
    EFP Energy =                            0.0000000000000000
    Total Energy =                       -305.6666651239748944
    Molecular point group: c1
  Basis Set: CC-PVTZ
  Basis Set:

  -Total Gradient:
     Atom            X                  Y                   Z
    ------   -----------------  -----------------  -----------------
       1        0.000050673963    -0.000005934206     0.001471030495
       2        0.000145203896     0.000497153906    -0.001608874148
       3       -0.000340284441    -0.001444819363    -0.000407122992
       4        0.000052379765     0.000968365076     0.000473795739
       5        0.000170439335    -0.000009655832     0.000050409099
       6       -0.000012946794    -0.000000798888    -0.000021207852
       7        0.000084205258     0.000011603914     0.000052761985
       8        0.000016981002    -0.000009282667    -0.000007048777
       9       -0.000142006193    -0.000007881526     0.000094752587
      10       -0.000029430371     0.000000528872    -0.000012572844
      11        0.000000963047     0.000020305520    -0.000127387692
      12        0.000011685018    -0.000009690169     0.000011098196
      13       -0.000007863486    -0.000009894637     0.000030366201

  **** Optimization is complete! (in 5 steps) ****
    Final optimized geometry and variables:
    Molecular point group: c1

    Geometry (in Angstrom), charge = 0, multiplicity = 1:

    H            2.655976875588     0.723623013212    -0.072261160496
    O            2.267065694350    -0.133106845161    -0.073591201278
    C            0.904554491164    -0.041026583201    -0.032310048414
    C            0.239550592252    -0.424240612344     1.115874041611
    C            0.195509985276     0.399253320483    -1.133722238576
    H            0.808025688304    -0.768195272633     1.957636946242
    C           -1.140665232826    -0.368360475271     1.158335723105
    H            0.725187263738     0.679353280924    -2.024176635970
    C           -1.184159553832     0.460496296692    -1.080235250763
    H           -1.655428758797    -0.670114302812     2.050581369343
    C           -1.857889733343     0.076699009694     0.063805274562
    H           -1.732302791867     0.802954082342    -1.937181872837
    H           -2.929137917889     0.120609916119     0.100925339017

  Mulliken Charges: (a.u.)
   Center  Symbol    Alpha    Beta     Spin     Total
       1     H     0.38716  0.38716  0.00000  0.22567
       2     O     4.19138  4.19138  0.00000 -0.38276
       3     C     2.87088  2.87088  0.00000  0.25824
       4     C     3.10781  3.10781  0.00000 -0.21563
       5     C     3.11596  3.11596  0.00000 -0.23192
       6     H     0.41631  0.41631  0.00000  0.16737
       7     C     3.06760  3.06760  0.00000 -0.13519
       8     H     0.41943  0.41943  0.00000  0.16115
       9     C     3.06920  3.06920  0.00000 -0.13840
      10     H     0.42165  0.42165  0.00000  0.15670
      11     C     3.08771  3.08771  0.00000 -0.17542
      12     H     0.42179  0.42179  0.00000  0.15642
      13     H     0.42312  0.42312  0.00000  0.15377

   Total alpha = 25.00000, Total beta = 25.00000, Total charge =  0.00000
