  ==> Input File <==

--------------------------------------------------------------------------
set {
	reference rhf
	basis 6-31G*
}

set_num_threads( 4 )
memory 2 gb

molecule MOL {
0 1

H	 -3.420663	 1.227371	 -1.044276
O	 -3.452007	 0.283848	 -0.965577
C	 -3.181085	 -0.079926	 0.364119
C	 -1.765924	 0.277073	 0.805136
H	 -3.327791	 -1.152017	 0.410903
H	 -3.905698	 0.375695	 1.036898
C	 -1.689583	 0.816496	 2.234022
H	 -1.131907	 -0.605039	 0.710993
H	 -1.366067	 1.012947	 0.109561
C	 -0.262727	 1.150300	 2.674291
H	 -2.121996	 0.088475	 2.913517
H	 -2.308426	 1.709115	 2.309235
C	 -0.195018	 1.695227	 4.103471
H	 0.352081	 0.257606	 2.587537
H	 0.164973	 1.883116	 1.991167
C	 1.203201	 2.127723	 4.559637
H	 -0.580968	 0.945782	 4.792724
H	 -0.863079	 2.550448	 4.181632
C	 2.214569	 0.986112	 4.679074
H	 1.113892	 2.616138	 5.526985
H	 1.587946	 2.880828	 3.874796
H	 1.850737	 0.211256	 5.348673
H	 3.158609	 1.347343	 5.075482
H	 2.421109	 0.523914	 3.719451

	symmetry c1
}
set optking {
	frozen_dihedral = ("
		7 4 3 2
	")
}

ee = optimize('scf')
oeprop('DIPOLE', 'QUADRUPOLE', 'MULLIKEN_CHARGES')
f=open( 'psi4out.xyz', 'w' )
f.write( "24  " )
f.write( str(ee) + "\n" )
f.write( MOL.save_string_xyz() )
f.close()
--------------------------------------------------------------------------

    Molecular point group: c1
  Charge       = 0
  Multiplicity = 1
  Basis Set: 6-31G*
  Basis Set:
  @DF-RHF Final Energy:  -349.24223555373436
    Total Energy =                       -349.2422355537340195
    Molecular point group: c1
  Basis Set: 6-31G*
  Basis Set:
  Basis Set: 6-31G*
  Basis Set:
  @DF-RHF Final Energy:  -349.24250519273920
    Total Energy =                       -349.2425051927392587
  Basis Set: 6-31G*
  Basis Set:
  Basis Set: 6-31G*
  Basis Set:
  @DF-RHF Final Energy:  -349.24255122917953
    Total Energy =                       -349.2425512291794689
  Basis Set: 6-31G*
  Basis Set:
  Basis Set: 6-31G*
  Basis Set:
  @DF-RHF Final Energy:  -349.24254985818646
    Total Energy =                       -349.2425498581862371
  Basis Set: 6-31G*
  Basis Set:
  Basis Set: 6-31G*
  Basis Set:
  @DF-RHF Final Energy:  -349.24255239678445
    Total Energy =                       -349.2425523967845606
  Basis Set: 6-31G*
  Basis Set:
  Charge       = 0
  Multiplicity = 1
  Basis Set: 6-31G*
  Basis Set:

    Orbital Energies (a.u.)
    -----------------------

    Doubly Occupied:

       1A    -20.551220     2A    -11.267099     3A    -11.220248
       4A    -11.216959     5A    -11.216725     6A    -11.216606
       7A    -11.215603     8A    -11.209427     9A     -1.358349
      10A     -1.092919    11A     -1.050755    12A     -0.985756
      13A     -0.915069    14A     -0.852332    15A     -0.805124
      16A     -0.780111    17A     -0.687735    18A     -0.656088
      19A     -0.623186    20A     -0.613134    21A     -0.599225
      22A     -0.585803    23A     -0.556926    24A     -0.541504
      25A     -0.531166    26A     -0.509383    27A     -0.491607
      28A     -0.484646    29A     -0.473817    30A     -0.462257
      31A     -0.456737    32A     -0.445133    33A     -0.421272

  @DF-RHF Final Energy:  -349.24255158738458

   => Energetics <=

    Nuclear Repulsion Energy =            379.9225095248306161
    One-Electron Energy =               -1226.1422767000829026
    Two-Electron Energy =                 496.9772155878675903
    DFT Exchange-Correlation Energy =       0.0000000000000000
    Empirical Dispersion Energy =           0.0000000000000000
    PCM Polarization Energy =               0.0000000000000000
    EFP Energy =                            0.0000000000000000
    Total Energy =                       -349.2425515873846962
    Molecular point group: c1
  Basis Set: 6-31G*
  Basis Set:

  -Total Gradient:
     Atom            X                  Y                   Z
    ------   -----------------  -----------------  -----------------
       1       -0.000003555068     0.000009434080     0.000017958032
       2       -0.001086187123     0.002818125568     0.001161583626
       3        0.001363029621    -0.002768512276    -0.001821293700
       4        0.000039867480    -0.002787498394     0.001839523769
       5        0.000018765031    -0.000020931784    -0.000073349254
       6       -0.000025820329     0.000014711378    -0.000069412514
       7       -0.000376413277     0.002778792315    -0.001024944481
       8       -0.000030114720    -0.000054217682     0.000011199205
       9        0.000044636307     0.000023854073     0.000010819925
      10        0.000001315249    -0.000007068821     0.000021275184
      11        0.000040905584     0.000021766203    -0.000065560209
      12       -0.000027178127    -0.000023728011    -0.000030052593
      13        0.000017429033    -0.000013477058    -0.000005030079
      14       -0.000038501837     0.000000125942    -0.000006495087
      15        0.000015690414    -0.000003878908    -0.000002645214
      16        0.000003932336     0.000016618157    -0.000022680748
      17        0.000018906648    -0.000016966163    -0.000006316211
      18       -0.000003140810    -0.000004724064     0.000029621486
      19        0.000006623211    -0.000000463857     0.000019127057
      20        0.000000754702     0.000021075086    -0.000005113114
      21        0.000005550275    -0.000013662998    -0.000016017956
      22       -0.000002980747    -0.000010872706    -0.000001334832
      23       -0.000005450689     0.000002206821     0.000010478945
      24        0.000021936841     0.000019293097     0.000028658771

  **** Optimization is complete! (in 6 steps) ****
    Final optimized geometry and variables:
    Molecular point group: c1

    Geometry (in Angstrom), charge = 0, multiplicity = 1:

    H           -2.494423329466     0.326712122858    -3.299384002001
    O           -2.541114088952    -0.615512884704    -3.219083385039
    C           -2.260345658764    -0.979553078134    -1.892255105289
    C           -0.831834042843    -0.620849950636    -1.450667171001
    H           -2.425176785799    -2.047141638338    -1.837934168971
    H           -2.982070007292    -0.512274066919    -1.223589279381
    C           -0.754551747746    -0.084526519316    -0.019521038905
    H           -0.177641632974    -1.480442079498    -1.566589625379
    H           -0.448302543133     0.138421633418    -2.129353366936
    C            0.670836179309     0.248746949262     0.424401805619
    H           -1.181729522388    -0.813817558842     0.667627563494
    H           -1.376389667084     0.805564570728     0.059943422510
    C            0.736920395630     0.797920639757     1.852037715757
    H            1.284111068422    -0.644559915366     0.339794899750
    H            1.098462382770     0.979126594585    -0.261125620383
    C            2.134549391764     1.233869414776     2.306792792985
    H            0.352673205121     0.049825078329     2.543776523352
    H            0.067604841175     1.652548209565     1.928011826728
    C            3.145314207027     0.092986785849     2.437206938831
    H            2.043485175093     1.730280984836     3.269804753005
    H            2.520264710022     1.981216861154     1.616294937667
    H            2.779825851148    -0.676815538438     3.111668734449
    H            4.088155432902     0.457314863806     2.833424498448
    H            3.354500103622    -0.376297641746     1.481687296073

  Mulliken Charges: (a.u.)
   Center  Symbol    Alpha    Beta     Spin     Total
       1     H     0.28375  0.28375  0.00000  0.43249
       2     O     4.37061  4.37061  0.00000 -0.74122
       3     C     2.99269  2.99269  0.00000  0.01462
       4     C     3.17101  3.17101  0.00000 -0.34201
       5     H     0.41427  0.41427  0.00000  0.17146
       6     H     0.42942  0.42942  0.00000  0.14116
       7     C     3.15914  3.15914  0.00000 -0.31829
       8     H     0.41548  0.41548  0.00000  0.16905
       9     H     0.42158  0.42158  0.00000  0.15684
      10     C     3.15362  3.15362  0.00000 -0.30724
      11     H     0.42208  0.42208  0.00000  0.15583
      12     H     0.42423  0.42423  0.00000  0.15154
      13     C     3.15251  3.15251  0.00000 -0.30502
      14     H     0.42026  0.42026  0.00000  0.15948
      15     H     0.42392  0.42392  0.00000  0.15217
      16     C     3.15242  3.15242  0.00000 -0.30484
      17     H     0.42392  0.42392  0.00000  0.15215
      18     H     0.42266  0.42266  0.00000  0.15469
      19     C     3.24129  3.24129  0.00000 -0.48259
      20     H     0.42078  0.42078  0.00000  0.15845
      21     H     0.42332  0.42332  0.00000  0.15337
      22     H     0.42217  0.42217  0.00000  0.15566
      23     H     0.41897  0.41897  0.00000  0.16206
      24     H     0.41990  0.41990  0.00000  0.16021

   Total alpha = 33.00000, Total beta = 33.00000, Total charge =  0.00000
