                              Psi4 1.0.54 Driver

  ==> Input File <==

--------------------------------------------------------------------------
set {
	reference rhf
	basis cc-pvtz
}

set_num_threads( 4 )
memory 2 gb

molecule MOL {
0 1

H	 -2.644180	 -0.653737	 1.272255
C	 -2.092774	 -0.380414	 0.391915
O	 -0.808934	 -0.154049	 0.752536
F	 -2.163230	 -1.351640	 -0.507133
F	 -2.627232	 0.691260	 -0.169301
C	 0.085006	 0.250800	 -0.215074
C	 1.370439	 -0.548013	 -0.012993
Cl	 0.421658	 1.987697	 -0.091007
H	 -0.272219	 0.063284	 -1.212508
F	 2.417324	 0.223448	 -0.160983
F	 1.433158	 -1.492982	 -0.920966
F	 1.425528	 -1.107466	 1.164390

	symmetry c1
}
set optking {
	frozen_dihedral = ("
		10 7 6 9
	")
}

ee,wfn = optimize('scf', return_wfn=True)
oeprop( wfn, 'DIPOLE', 'QUADRUPOLE', 'MULLIKEN_CHARGES')
f=open( 'psi4out.xyz', 'w' )
f.write( "12  " )
f.write( str(ee) + "\n" )
f.write( MOL.save_string_xyz() )
f.close()
--------------------------------------------------------------------------

    Molecular point group: c1
  Charge       = 0
  Multiplicity = 1
  Basis Set: CC-PVTZ
  Basis Set:
  @DF-RHF Final Energy: -1146.61098171077970
    Total Energy =                      -1146.6109817107796971
    Molecular point group: c1
  Basis Set: CC-PVTZ
  Basis Set:
  Basis Set: CC-PVTZ
  Basis Set:
  @DF-RHF Final Energy: -1146.61093799597006
    Total Energy =                      -1146.6109379959693797
  Basis Set: CC-PVTZ
  Basis Set:
  Basis Set: CC-PVTZ
  Basis Set:
  @DF-RHF Final Energy: -1146.61282530099515
    Total Energy =                      -1146.6128253009960645
  Basis Set: CC-PVTZ
  Basis Set:
  Basis Set: CC-PVTZ
  Basis Set:
  @DF-RHF Final Energy: -1146.61293730015313
    Total Energy =                      -1146.6129373001535896
  Basis Set: CC-PVTZ
  Basis Set:
  Basis Set: CC-PVTZ
  Basis Set:
  @DF-RHF Final Energy: -1146.61294633614102
    Total Energy =                      -1146.6129463361403396
  Basis Set: CC-PVTZ
  Basis Set:
  Basis Set: CC-PVTZ
  Basis Set:
  @DF-RHF Final Energy: -1146.61294796147331
    Total Energy =                      -1146.6129479614733100
  Basis Set: CC-PVTZ
  Basis Set:
  Charge       = 0
  Multiplicity = 1
  Basis Set: CC-PVTZ
  Basis Set:

    Orbital Energies (a.u.)
    -----------------------

    Doubly Occupied:

       1A   -104.856631     2A    -26.355548     3A    -26.353744
       4A    -26.350589     5A    -26.342716     6A    -26.342424
       7A    -20.638771     8A    -11.522173     9A    -11.482834
      10A    -11.401843    11A    -10.582231    12A     -8.049025
      13A     -8.047029    14A     -8.046960    15A     -1.768385
      16A     -1.723892    17A     -1.663114    18A     -1.659938
      19A     -1.644050    20A     -1.485088    21A     -1.176254
      22A     -1.050705    23A     -0.989941    24A     -0.923648
      25A     -0.862522    26A     -0.857004    27A     -0.853088
      28A     -0.829928    29A     -0.817931    30A     -0.795408
      31A     -0.732995    32A     -0.729555    33A     -0.711355
      34A     -0.707963    35A     -0.685318    36A     -0.679694
      37A     -0.665254    38A     -0.662816    39A     -0.650186
      40A     -0.635051    41A     -0.597839    42A     -0.579956
      43A     -0.524697    44A     -0.477128    45A     -0.469798

  @DF-RHF Final Energy: -1146.61294834743148

   => Energetics <=

    Nuclear Repulsion Energy =            736.2480522576777275
    One-Electron Energy =               -3055.7559674515314327
    Two-Electron Energy =                1172.8949668464229035
    DFT Exchange-Correlation Energy =       0.0000000000000000
    Empirical Dispersion Energy =           0.0000000000000000
    PCM Polarization Energy =               0.0000000000000000
    EFP Energy =                            0.0000000000000000
    Total Energy =                      -1146.6129483474305744
    Molecular point group: c1
  Basis Set: CC-PVTZ
  Basis Set:

  -Total Gradient:
     Atom            X                  Y                   Z
    ------   -----------------  -----------------  -----------------
       1        0.000002078511     0.000004398111     0.000005793734
       2       -0.000049684900    -0.000036508631     0.000015529684
       3        0.000016757292     0.000049274129     0.000006291096
       4        0.000014077772     0.000031279826    -0.000001197094
       5       -0.000012121308    -0.000030947815    -0.000007135434
       6        0.004360851081     0.005953376508    -0.001012808848
       7       -0.000642987898    -0.002705863409    -0.006460764997
       8        0.000033457229    -0.000008860164    -0.000005129471
       9       -0.003613169606    -0.004598460951     0.002234890452
      10       -0.000060623525     0.001320922767     0.005225931225
      11       -0.000029872983     0.000002849783    -0.000053276037
      12       -0.000018761647     0.000018539954     0.000051875686

  **** Optimization is complete! (in 7 steps) ****
    Final optimized geometry and variables:
    Molecular point group: c1

    Geometry (in Angstrom), charge = 0, multiplicity = 1:

    H           -2.710322974599    -0.546906163856     1.179225695087
    C           -2.113073634415    -0.300334360240     0.321075332306
    O           -0.841233198144    -0.106826659435     0.734790386278
    F           -2.171534986260    -1.282892776678    -0.568385984607
    F           -2.594996196123     0.776350869143    -0.277496788592
    C            0.104696919647     0.270986827953    -0.200146165882
    C            1.363535628168    -0.605171589825     0.025872812736
    CL           0.454952167080     1.998975388124    -0.066682528416
    H           -0.255624843350     0.067894691881    -1.192386836581
    F            2.476623180052     0.056529841957    -0.133347144619
    F            1.344489782351    -1.596159782169    -0.836442486501
    F            1.380904679966    -1.117052063204     1.227756805858

  Mulliken Charges: (a.u.)
   Center  Symbol    Alpha    Beta     Spin     Total
       1     H     0.45202  0.45202  0.00000  0.09595
       2     C     2.73953  2.73953  0.00000  0.52094
       3     O     4.15177  4.15177  0.00000 -0.30355
       4     F     4.61899  4.61899  0.00000 -0.23797
       5     F     4.61534  4.61534  0.00000 -0.23069
       6     C     2.95706  2.95706  0.00000  0.08587
       7     C     2.66492  2.66492  0.00000  0.67016
       8    CL     8.56768  8.56768  0.00000 -0.13535
       9     H     0.43187  0.43187  0.00000  0.13626
      10     F     4.59672  4.59672  0.00000 -0.19344
      11     F     4.60541  4.60541  0.00000 -0.21083
      12     F     4.59868  4.59868  0.00000 -0.19736

   Total alpha = 45.00000, Total beta = 45.00000, Total charge = -0.00000

*** Psi4 exiting successfully. Buy a developer a beer!
