  ==> Input File <==

--------------------------------------------------------------------------
set {
	reference rhf
	basis 6-31G*
}

set_num_threads( 4 )
memory 2 gb

molecule MOL {
0 1

O	 -1.276010	 1.052711	 -0.768302
C	 -1.204840	 0.067374	 -0.106123
C	 -2.388195	 -0.672128	 0.458071
O	 -0.067104	 -0.527208	 0.221609
H	 -2.388023	 -1.694060	 0.097175
H	 -3.300579	 -0.174919	 0.164318
H	 -2.315377	 -0.706351	 1.539059
C	 0.011707	 -1.245549	 1.460844
C	 1.479281	 -1.244962	 1.850477
C	 -0.556119	 -2.644740	 1.280610
H	 -0.570103	 -0.706807	 2.194165
H	 1.847848	 -0.230607	 1.952893
H	 1.614654	 -1.756207	 2.797913
H	 2.075719	 -1.751233	 1.099075
H	 -0.478309	 -3.201454	 2.209066
H	 -1.600601	 -2.601914	 0.999189
H	 -0.006685	 -3.180966	 0.513412

	symmetry c1
}
set optking {
	frozen_dihedral = ("
		8 4 2 1
	")
}

ee = optimize('scf')
oeprop('DIPOLE', 'QUADRUPOLE', 'MULLIKEN_CHARGES')
f=open( 'psi4out.xyz', 'w' )
f.write( "17  " )
f.write( str(ee) + "\n" )
f.write( MOL.save_string_xyz() )
f.close()
--------------------------------------------------------------------------

    Molecular point group: c1
  Charge       = 0
  Multiplicity = 1
  Basis Set: 6-31G*
  Basis Set:
  @DF-RHF Final Energy:  -344.87168602766110
    Total Energy =                       -344.8716860276615535
    Molecular point group: c1
  Basis Set: 6-31G*
  Basis Set:
  Basis Set: 6-31G*
  Basis Set:
  @DF-RHF Final Energy:  -344.89064470547288
    Total Energy =                       -344.8906447054729369
  Basis Set: 6-31G*
  Basis Set:
  Basis Set: 6-31G*
  Basis Set:
  @DF-RHF Final Energy:  -344.89392096656013
    Total Energy =                       -344.8939209665600174
  Basis Set: 6-31G*
  Basis Set:
  Basis Set: 6-31G*
  Basis Set:
  @DF-RHF Final Energy:  -344.89458886575272
    Total Energy =                       -344.8945888657528940
  Basis Set: 6-31G*
  Basis Set:
  @DF-RHF Final Energy:  -344.89599475141711
    Total Energy =                       -344.8959947514173905
  @DF-RHF Final Energy:  -344.89630094656798
    Total Energy =                       -344.8963009465681466
  @DF-RHF Final Energy:  -344.89641813308384
    Total Energy =                       -344.8964181330842393
  @DF-RHF Final Energy:  -344.89646364395213
    Total Energy =                       -344.8964636439520746
  @DF-RHF Final Energy:  -344.89652033842765
    Total Energy =                       -344.8965203384278766
  @DF-RHF Final Energy:  -344.89676135252176
    Total Energy =                       -344.8967613525216507
  @DF-RHF Final Energy:  -344.89692918407366
    Total Energy =                       -344.8969291840735423
  @DF-RHF Final Energy:  -344.89712747043626
    Total Energy =                       -344.8971274704362031
  @DF-RHF Final Energy:  -344.89724116738563
    Total Energy =                       -344.8972411673856868
  @DF-RHF Final Energy:  -344.89729381814209
    Total Energy =                       -344.8972938181422023
  @DF-RHF Final Energy:  -344.89732604920761
    Total Energy =                       -344.8973260492077770
  @DF-RHF Final Energy:  -344.89737598998749
    Total Energy =                       -344.8973759899872675
  @DF-RHF Final Energy:  -344.89700835694333
    Total Energy =                       -344.8970083569433314
  @DF-RHF Final Energy:  -344.89745854079598
    Total Energy =                       -344.8974585407960944
  @DF-RHF Final Energy:  -344.89762524636262
    Total Energy =                       -344.8976252463626224
  @DF-RHF Final Energy:  -344.89768355705172
    Total Energy =                       -344.8976835570516641
  @DF-RHF Final Energy:  -344.89799475774072
    Total Energy =                       -344.8979947577408325
  @DF-RHF Final Energy:  -344.89829586897196
    Total Energy =                       -344.8982958689721272
  @DF-RHF Final Energy:  -344.89841626028107
    Total Energy =                       -344.8984162602808965
  @DF-RHF Final Energy:  -344.89843675764570
    Total Energy =                       -344.8984367576454133
  @DF-RHF Final Energy:  -344.89845011712612
    Total Energy =                       -344.8984501171261172
  Basis Set: 6-31G*
  Basis Set:
  @DF-RHF Final Energy:  -344.89846820001452
    Total Energy =                       -344.8984682000148041
  Basis Set: 6-31G*
  Basis Set:
  Basis Set: 6-31G*
  Basis Set:
  @DF-RHF Final Energy:  -344.89845471646265
    Total Energy =                       -344.8984547164625951
  Basis Set: 6-31G*
  Basis Set:
  Basis Set: 6-31G*
  Basis Set:
  @DF-RHF Final Energy:  -344.89847179205344
    Total Energy =                       -344.8984717920532717
  Basis Set: 6-31G*
  Basis Set:
  Charge       = 0
  Multiplicity = 1
  Basis Set: 6-31G*
  Basis Set:

    Orbital Energies (a.u.)
    -----------------------

    Doubly Occupied:

       1A    -20.593477     2A    -20.540452     3A    -11.375145
       4A    -11.304716     5A    -11.240941     6A    -11.228768
       7A    -11.225273     8A     -1.459082     9A     -1.363680
      10A     -1.077554    11A     -1.016037    12A     -0.957562
      13A     -0.859702    14A     -0.771744    15A     -0.697659
      16A     -0.668769    17A     -0.661142    18A     -0.624780
      19A     -0.594588    20A     -0.584480    21A     -0.562419
      22A     -0.556091    23A     -0.545064    24A     -0.530776
      25A     -0.508240    26A     -0.488030    27A     -0.442718
      28A     -0.431428

  @DF-RHF Final Energy:  -344.89847182070270

   => Energetics <=

    Nuclear Repulsion Energy =            322.6854439195406599
    One-Electron Energy =               -1109.3472000770461818
    Two-Electron Energy =                 441.7632843368023714
    DFT Exchange-Correlation Energy =       0.0000000000000000
    Empirical Dispersion Energy =           0.0000000000000000
    PCM Polarization Energy =               0.0000000000000000
    EFP Energy =                            0.0000000000000000
    Total Energy =                       -344.8984718207032074
    Molecular point group: c1
  Basis Set: 6-31G*
  Basis Set:

  -Total Gradient:
     Atom            X                  Y                   Z
    ------   -----------------  -----------------  -----------------
       1        0.001551106392     0.001197561333     0.001041926138
       2       -0.001263109498    -0.001132459012    -0.001530852269
       3       -0.000009486347     0.000002097849     0.000000974520
       4       -0.001920881772    -0.001068095894     0.000526862750
       5        0.000001908630     0.000001446847     0.000000207322
       6        0.000001207321    -0.000000238442     0.000000825485
       7        0.000000992544     0.000001116526     0.000002756821
       8        0.001632416320     0.001015678263    -0.000047781806
       9       -0.000001403829    -0.000001897378     0.000005644330
      10        0.000000232236    -0.000015560478    -0.000005708072
      11        0.000005180690    -0.000000618404     0.000000498927
      12       -0.000002360417     0.000001853489    -0.000000429067
      13        0.000000749259     0.000000742884     0.000002370705
      14       -0.000002764051    -0.000002083169    -0.000001861520
      15        0.000002081451     0.000000307327     0.000000494452
      16        0.000004736457     0.000003303640     0.000005442673
      17       -0.000000605387    -0.000003155384    -0.000001371386

  **** Optimization is complete! (in 29 steps) ****
    Final optimized geometry and variables:
    Molecular point group: c1

    Geometry (in Angstrom), charge = 0, multiplicity = 1:

    O           -0.410996159973     1.376207620520    -1.773487068102
    C           -0.619189172770     0.775751091726    -0.774847516134
    C           -1.683973427192     1.194314381895     0.215090279245
    O            0.069904824649    -0.339339040505    -0.515919358445
    H           -2.345440183089     0.366792507401     0.445171291736
    H           -2.249909519675     2.001006015056    -0.225386737378
    H           -1.245436663881     1.541385068839     1.143994499467
    C            0.379208006989    -0.786649017106     0.800597718955
    C            1.534405282919     0.029386609928     1.364154654841
    C            0.714714365011    -2.262415098478     0.671345771950
    H           -0.492259832307    -0.678452558838     1.435138468932
    H            1.281426157524     1.082407294005     1.434363479380
    H            1.793773882747    -0.319444306622     2.358468864371
    H            2.404395045257    -0.064828130744     0.724358651145
    H            0.954107734690    -2.681918586842     1.642889635993
    H           -0.125434817176    -2.806925974497     0.256741261526
    H            1.566460608085    -2.398327479805     0.014800727997

  Mulliken Charges: (a.u.)
   Center  Symbol    Alpha    Beta     Spin     Total
       1     O     4.26241  4.26241  0.00000 -0.52482
       2     C     2.61482  2.61482  0.00000  0.77036
       3     C     3.30812  3.30812  0.00000 -0.61624
       4     O     4.31059  4.31059  0.00000 -0.62118
       5     H     0.40265  0.40265  0.00000  0.19469
       6     H     0.38844  0.38844  0.00000  0.22312
       7     H     0.40361  0.40361  0.00000  0.19279
       8     C     2.92983  2.92983  0.00000  0.14033
       9     C     3.24634  3.24634  0.00000 -0.49268
      10     C     3.24012  3.24012  0.00000 -0.48024
      11     H     0.41806  0.41806  0.00000  0.16387
      12     H     0.41629  0.41629  0.00000  0.16742
      13     H     0.41658  0.41658  0.00000  0.16683
      14     H     0.40557  0.40557  0.00000  0.18886
      15     H     0.41869  0.41869  0.00000  0.16263
      16     H     0.40983  0.40983  0.00000  0.18034
      17     H     0.40804  0.40804  0.00000  0.18392

   Total alpha = 28.00000, Total beta = 28.00000, Total charge =  0.00000
