                              Psi4 1.0.54 Driver

  ==> Input File <==

--------------------------------------------------------------------------
set {
	reference rhf
	basis cc-pvtz
}

set_num_threads( 4 )
memory 2 gb

molecule MOL {
0 1

H	 2.614283	 2.028610	 0.296620
O	 3.358864	 1.662087	 -0.142800
C	 3.565468	 0.338079	 0.273842
C	 3.488598	 -0.673500	 -0.859950
H	 4.554560	 0.316966	 0.711141
H	 2.860308	 0.073024	 1.059302
C	 2.107233	 -0.795177	 -1.499382
H	 4.218942	 -0.401111	 -1.615966
H	 3.788688	 -1.641228	 -0.465175
C	 2.060491	 -1.842900	 -2.610655
H	 1.810909	 0.168903	 -1.899063
H	 1.377645	 -1.054369	 -0.734002
C	 0.681750	 -2.059574	 -3.237057
H	 2.769164	 -1.569758	 -3.388731
H	 2.406477	 -2.790196	 -2.206437
C	 0.141097	 -0.874965	 -4.035893
H	 0.737973	 -2.922655	 -3.894673
H	 -0.029331	 -2.321605	 -2.456764
C	 -1.189076	 -1.174670	 -4.722353
H	 0.873345	 -0.585527	 -4.786564
H	 0.013782	 -0.013653	 -3.387097
C	 -1.733578	 0.007179	 -5.517741
H	 -1.067076	 -2.027918	 -5.383913
H	 -1.919456	 -1.472195	 -3.974632
H	 -1.039570	 0.308561	 -6.295404
H	 -2.675729	 -0.239877	 -5.993577
H	 -1.902569	 0.866253	 -4.876815

	symmetry c1
}
set optking {
	frozen_dihedral = ("
		4 3 2 1
	")
}

ee,wfn = optimize('scf', return_wfn=True)
oeprop( wfn, 'DIPOLE', 'QUADRUPOLE', 'MULLIKEN_CHARGES')
f=open( 'psi4out.xyz', 'w' )
f.write( "27  " )
f.write( str(ee) + "\n" )
f.write( MOL.save_string_xyz() )
f.close()
--------------------------------------------------------------------------

    Molecular point group: c1
  Charge       = 0
  Multiplicity = 1
  Basis Set: CC-PVTZ
  Basis Set:
  @DF-RHF Final Energy:  -388.42645135064674
    Total Energy =                       -388.4264513506465164
    Molecular point group: c1
  Basis Set: CC-PVTZ
  Basis Set:
  Basis Set: CC-PVTZ
  Basis Set:
  @DF-RHF Final Energy:  -388.42492340957665
    Total Energy =                       -388.4249234095765360
  Basis Set: CC-PVTZ
  Basis Set:
  Basis Set: CC-PVTZ
  Basis Set:
  @DF-RHF Final Energy:  -388.42696388721390
    Total Energy =                       -388.4269638872140149
  Basis Set: CC-PVTZ
  Basis Set:
  Basis Set: CC-PVTZ
  Basis Set:
  @DF-RHF Final Energy:  -388.42700096167806
    Total Energy =                       -388.4270009616785728
  Basis Set: CC-PVTZ
  Basis Set:
  Basis Set: CC-PVTZ
  Basis Set:
  @DF-RHF Final Energy:  -388.42700591558088
    Total Energy =                       -388.4270059155812760
  Basis Set: CC-PVTZ
  Basis Set:
  Basis Set: CC-PVTZ
  Basis Set:
  @DF-RHF Final Energy:  -388.42700767109750
    Total Energy =                       -388.4270076710973854
  Basis Set: CC-PVTZ
  Basis Set:
  Charge       = 0
  Multiplicity = 1
  Basis Set: CC-PVTZ
  Basis Set:

    Orbital Energies (a.u.)
    -----------------------

    Doubly Occupied:

       1A    -20.545281     2A    -11.266044     3A    -11.210922
       4A    -11.210061     5A    -11.209825     6A    -11.209172
       7A    -11.208290     8A    -11.207832     9A    -11.204747
      10A     -1.362602    11A     -1.091840    12A     -1.059329
      13A     -1.010408    14A     -0.946257    15A     -0.883656
      16A     -0.814792    17A     -0.797153    18A     -0.773704
      19A     -0.707475    20A     -0.648049    21A     -0.630265
      22A     -0.623557    23A     -0.590727    24A     -0.581210
      25A     -0.579044    26A     -0.548061    27A     -0.539336
      28A     -0.524942    29A     -0.507262    30A     -0.484445
      31A     -0.480787    32A     -0.474590    33A     -0.464603
      34A     -0.457640    35A     -0.453583    36A     -0.441133
      37A     -0.421049

  @DF-RHF Final Energy:  -388.42700758752864

   => Energetics <=

    Nuclear Repulsion Energy =            460.4053240724803686
    One-Electron Energy =               -1439.3253392716706003
    Two-Electron Energy =                 590.4930076116613691
    DFT Exchange-Correlation Energy =       0.0000000000000000
    Empirical Dispersion Energy =           0.0000000000000000
    PCM Polarization Energy =               0.0000000000000000
    EFP Energy =                            0.0000000000000000
    Total Energy =                       -388.4270075875288057
    Molecular point group: c1
  Basis Set: CC-PVTZ
  Basis Set:

  -Total Gradient:
     Atom            X                  Y                   Z
    ------   -----------------  -----------------  -----------------
       1       -0.000039034714    -0.000080179864    -0.000148113541
       2        0.000006065424    -0.000027360640     0.000167921605
       3        0.000194125090     0.000018784629     0.000008093410
       4       -0.000085707789     0.000045013557     0.000017666335
       5       -0.000058915982    -0.000030980088    -0.000034220655
       6        0.000007353997     0.000033991617    -0.000042239958
       7       -0.000018586424    -0.000004659099     0.000013728558
       8        0.000020953644     0.000013280656    -0.000001038010
       9       -0.000016883848     0.000041149118     0.000016719289
      10       -0.000007349923    -0.000033247092     0.000034550510
      11       -0.000034565110     0.000028972153    -0.000024708307
      12        0.000008571098    -0.000002664879    -0.000006778343
      13        0.000014468043     0.000006716102    -0.000031157008
      14       -0.000002751116    -0.000007932066     0.000005372919
      15        0.000005579462    -0.000009904222     0.000013994950
      16        0.000010414688    -0.000011254232     0.000005165566
      17       -0.000003757224     0.000009669130    -0.000016496562
      18        0.000005695044    -0.000005757911    -0.000004253366
      19       -0.000006709951     0.000018483205     0.000000497048
      20        0.000000441697    -0.000009741074    -0.000001654339
      21        0.000018535721     0.000020715188     0.000032879257
      22       -0.000009411634    -0.000017494486    -0.000000293906
      23       -0.000002566707     0.000004764948    -0.000007867974
      24       -0.000007683355     0.000000687184     0.000001374476
      25        0.000007703589    -0.000001221756    -0.000001986109
      26       -0.000006982992     0.000002540420    -0.000003062566
      27        0.000000999270    -0.000002370502     0.000005906727

  **** Optimization is complete! (in 7 steps) ****
    Final optimized geometry and variables:
    Molecular point group: c1

    Geometry (in Angstrom), charge = 0, multiplicity = 1:

    H            0.948487403347     2.472408915227     2.824974883983
    O            1.733359914406     2.181918907032     2.403099583328
    C            2.054563168086     0.869310522614     2.796706572067
    C            2.088297403306    -0.068295741335     1.602456416134
    H            3.028075017206     0.887127446789     3.273880555934
    H            1.341926057926     0.507449543538     3.532843690652
    C            0.730168309280    -0.270472230492     0.937139001349
    H            2.795519256956     0.327233916485     0.879354396107
    H            2.481892761603    -1.025929304240     1.934978163333
    C            0.797195483676    -1.197468910244    -0.275240884065
    H            0.337815175523     0.696063062852     0.646115965296
    H            0.033686462630    -0.685463462273     1.664069084436
    C           -0.551683406007    -1.500409512974    -0.930304511957
    H            1.466581120605    -0.767840634469    -1.016714198849
    H            1.249025619123    -2.137590347148     0.030024736927
    C           -1.228640862004    -0.303814798941    -1.596122856103
    H           -0.402811807569    -2.273822753522    -1.678926066475
    H           -1.223189089115    -1.925643188963    -0.187656769804
    C           -2.525267677281    -0.672731818199    -2.312262200642
    H           -0.541048096660     0.144022522131    -2.310268023170
    H           -1.441476118877     0.462841310384    -0.857582104886
    C           -3.205435969755     0.520583317571    -2.974966510328
    H           -2.317991904036    -1.430802437838    -3.062641266380
    H           -3.210248283717    -1.128100413977    -1.601936652702
    H           -2.557806235877     0.978541299119    -3.715276317511
    H           -4.120606960580     0.224240313348    -3.474837479066
    H           -3.459377569902     1.281801605478    -2.244660086036

  Mulliken Charges: (a.u.)
   Center  Symbol    Alpha    Beta     Spin     Total
       1     H     0.39045  0.39045  0.00000  0.21909
       2     O     4.20782  4.20782  0.00000 -0.41564
       3     C     2.98157  2.98157  0.00000  0.03687
       4     C     3.08282  3.08282  0.00000 -0.16563
       5     H     0.45482  0.45482  0.00000  0.09036
       6     H     0.47059  0.47059  0.00000  0.05882
       7     C     3.09824  3.09824  0.00000 -0.19649
       8     H     0.45203  0.45203  0.00000  0.09593
       9     H     0.45428  0.45428  0.00000  0.09145
      10     C     3.09917  3.09917  0.00000 -0.19833
      11     H     0.44760  0.44760  0.00000  0.10480
      12     H     0.45876  0.45876  0.00000  0.08248
      13     C     3.09792  3.09792  0.00000 -0.19585
      14     H     0.45234  0.45234  0.00000  0.09532
      15     H     0.44957  0.44957  0.00000  0.10085
      16     C     3.08750  3.08750  0.00000 -0.17500
      17     H     0.44876  0.44876  0.00000  0.10247
      18     H     0.45468  0.45468  0.00000  0.09064
      19     C     3.08391  3.08391  0.00000 -0.16783
      20     H     0.45447  0.45447  0.00000  0.09107
      21     H     0.45404  0.45404  0.00000  0.09192
      22     C     3.14959  3.14959  0.00000 -0.29918
      23     H     0.45426  0.45426  0.00000  0.09149
      24     H     0.45523  0.45523  0.00000  0.08954
      25     H     0.45497  0.45497  0.00000  0.09007
      26     H     0.44884  0.44884  0.00000  0.10233
      27     H     0.45577  0.45577  0.00000  0.08846

   Total alpha = 37.00000, Total beta = 37.00000, Total charge = -0.00000

*** Psi4 exiting successfully. Buy a developer a beer!
