  ==> Input File <==

--------------------------------------------------------------------------
set {
	reference rhf
	basis 6-31G*
}

set_num_threads( 1 )
memory 2 gb

molecule MOL {
0 1

O	 3.225979	 0.970355	 -0.599647
C	 2.701189	 0.057885	 -0.047330
C	 1.245376	 -0.013843	 0.345420
O	 3.347903	 -1.046386	 0.304773
C	 0.455112	 1.231400	 -0.050772
H	 0.838542	 -0.913825	 -0.103701
H	 1.208210	 -0.175333	 1.419774
C	 -0.998893	 1.219485	 0.433193
H	 0.482531	 1.345121	 -1.130325
H	 0.957290	 2.103070	 0.354729
C	 -1.883438	 0.145884	 -0.207175
H	 -1.431207	 2.195402	 0.224832
H	 -1.019646	 1.105716	 1.516076
C	 -3.347647	 0.245583	 0.225435
H	 -1.822183	 0.231698	 -1.291012
H	 -1.510341	 -0.844814	 0.042401
C	 -3.569713	 -0.103913	 1.698075
H	 -3.951744	 -0.414504	 -0.394717
H	 -3.710593	 1.254951	 0.037965
C	 -5.035019	 -0.005597	 2.121057
H	 -3.206659	 -1.111881	 1.887374
H	 -2.970039	 0.557689	 2.319729
H	 -5.160137	 -0.258980	 3.169269
H	 -5.656702	 -0.681759	 1.540961
H	 -5.418329	 1.000542	 1.976032
C	 4.728119	 -1.109107	 -0.004993
H	 4.882018	 -1.033965	 -1.071845
H	 5.068212	 -2.067527	 0.355250
H	 5.265056	 -0.311663	 0.488280

	symmetry c1
}
set optking {
	frozen_dihedral = ("
		21 17 14 11,
		15 11 8 5,
		6 3 5 9,
		11 8 5 9,
		2 4 26 27,
		1 2 4 26,
		6 3 2 1
	")
}

ee = energy('scf')
oeprop('DIPOLE', 'QUADRUPOLE', 'MULLIKEN_CHARGES')
f=open( 'psi4out.xyz', 'w' )
f.write( "29  " )
f.write( str(ee) + "\n" )
f.write( MOL.save_string_xyz() )
f.close()
--------------------------------------------------------------------------

    Molecular point group: c1

    Geometry (in Angstrom), charge = 0, multiplicity = 1:

       Center              X                  Y                   Z               Mass
    ------------   -----------------  -----------------  -----------------  -----------------
           O          3.103297251812     0.838864730376    -0.984570734403    15.994914619560
           C          2.578507251812    -0.073605269624    -0.432253734403    12.000000000000
           C          1.122694251812    -0.145333269624    -0.039503734403    12.000000000000
           O          3.225221251812    -1.177876269624    -0.080150734403    15.994914619560
           C          0.332430251812     1.099909730376    -0.435695734403    12.000000000000
           H          0.715860251812    -1.045315269624    -0.488624734403     1.007825032070
           H          1.085528251812    -0.306823269624     1.034850265597     1.007825032070
           C         -1.121574748188     1.087994730376     0.048269265597    12.000000000000
           H          0.359849251812     1.213630730376    -1.515248734403     1.007825032070
           H          0.834608251812     1.971579730376    -0.030194734403     1.007825032070
           C         -2.006119748188     0.014393730376    -0.592098734403    12.000000000000
           H         -1.553888748188     2.063911730376    -0.160091734403     1.007825032070
           H         -1.142327748188     0.974225730376     1.131152265597     1.007825032070
           C         -3.470328748188     0.114092730376    -0.159488734403    12.000000000000
           H         -1.944864748188     0.100207730376    -1.675935734403     1.007825032070
           H         -1.633022748188    -0.976304269624    -0.342522734403     1.007825032070
           C         -3.692394748188    -0.235403269624     1.313151265597    12.000000000000
           H         -4.074425748188    -0.545994269624    -0.779640734403     1.007825032070
           H         -3.833274748188     1.123460730376    -0.346958734403     1.007825032070
           C         -5.157700748188    -0.137087269624     1.736133265597    12.000000000000
           H         -3.329340748188    -1.243371269624     1.502450265597     1.007825032070
           H         -3.092720748188     0.426198730376     1.934805265597     1.007825032070
           H         -5.282818748188    -0.390470269624     2.784345265597     1.007825032070
           H         -5.779383748188    -0.813249269624     1.156037265597     1.007825032070
           H         -5.541010748188     0.869051730376     1.591108265597     1.007825032070
           C          4.605437251812    -1.240597269624    -0.389916734403    12.000000000000
           H          4.759336251812    -1.165455269624    -1.456768734403     1.007825032070
           H          4.945530251812    -2.199017269624    -0.029673734403     1.007825032070
           H          5.142374251812    -0.443153269624     0.103356265597     1.007825032070

  Charge       = 0
  Multiplicity = 1
  Basis Set: 6-31G*
  Basis Set:

    Orbital Energies (a.u.)
    -----------------------

    Doubly Occupied:

       1A    -20.603367     2A    -20.545146     3A    -11.371962
       4A    -11.280653     5A    -11.234702     6A    -11.218995
       7A    -11.217068     8A    -11.215862     9A    -11.215604
      10A    -11.214331    11A    -11.209167    12A     -1.469042
      13A     -1.362475    14A     -1.099257    15A     -1.066485
      16A     -1.017748    17A     -0.977237    18A     -0.928745
      19A     -0.861507    20A     -0.814223    21A     -0.779362
      22A     -0.761725    23A     -0.700678    24A     -0.682294
      25A     -0.671776    26A     -0.640707    27A     -0.628779
      28A     -0.611749    29A     -0.597673    30A     -0.580800
      31A     -0.562979    32A     -0.556242    33A     -0.543131
      34A     -0.524529    35A     -0.513024    36A     -0.511229
      37A     -0.494379    38A     -0.484237    39A     -0.471827
      40A     -0.458396    41A     -0.456738    42A     -0.447296
      43A     -0.444605    44A     -0.436578

  @DF-RHF Final Energy:  -501.04198393417812

   => Energetics <=

    Nuclear Repulsion Energy =            616.8374048625734076
    One-Electron Energy =               -1904.7899619183490358
    Two-Electron Energy =                 786.9105731215986452
    DFT Exchange-Correlation Energy =       0.0000000000000000
    Empirical Dispersion Energy =           0.0000000000000000
    PCM Polarization Energy =               0.0000000000000000
    EFP Energy =                            0.0000000000000000
    Total Energy =                       -501.0419839341770967

  Mulliken Charges: (a.u.)
   Center  Symbol    Alpha    Beta     Spin     Total
       1     O     4.28598  4.28598  0.00000 -0.57196
       2     C     2.60486  2.60486  0.00000  0.79028
       3     C     3.20968  3.20968  0.00000 -0.41936
       4     O     4.30747  4.30747  0.00000 -0.61493
       5     C     3.15294  3.15294  0.00000 -0.30587
       6     H     0.39884  0.39884  0.00000  0.20232
       7     H     0.40130  0.40130  0.00000  0.19740
       8     C     3.15927  3.15927  0.00000 -0.31854
       9     H     0.41322  0.41322  0.00000  0.17356
      10     H     0.40890  0.40890  0.00000  0.18219
      11     C     3.15664  3.15664  0.00000 -0.31328
      12     H     0.41850  0.41850  0.00000  0.16301
      13     H     0.42187  0.42187  0.00000  0.15627
      14     C     3.15205  3.15205  0.00000 -0.30409
      15     H     0.42047  0.42047  0.00000  0.15905
      16     H     0.42369  0.42369  0.00000  0.15262
      17     C     3.15429  3.15429  0.00000 -0.30859
      18     H     0.42131  0.42131  0.00000  0.15739
      19     H     0.42352  0.42352  0.00000  0.15295
      20     C     3.23868  3.23868  0.00000 -0.47736
      21     H     0.42366  0.42366  0.00000  0.15267
      22     H     0.42095  0.42095  0.00000  0.15809
      23     H     0.41947  0.41947  0.00000  0.16107
      24     H     0.42177  0.42177  0.00000  0.15645
      25     H     0.42153  0.42153  0.00000  0.15693
      26     C     3.09241  3.09241  0.00000 -0.18481
      27     H     0.40908  0.40908  0.00000  0.18184
      28     H     0.40852  0.40852  0.00000  0.18296
      29     H     0.40913  0.40913  0.00000  0.18174

   Total alpha = 44.00000, Total beta = 44.00000, Total charge =  0.00000
