  ==> Input File <==

--------------------------------------------------------------------------
set {
	reference rhf
	basis 6-31G*
}

set_num_threads( 4 )
memory 2 gb

molecule MOL {
0 1

O	 3.225979	 0.970355	 -0.599647
C	 2.701189	 0.057885	 -0.047330
C	 1.245376	 -0.013843	 0.345420
O	 3.347903	 -1.046386	 0.304773
C	 0.455112	 1.231400	 -0.050772
H	 0.838542	 -0.913825	 -0.103701
H	 1.208210	 -0.175333	 1.419774
C	 -0.998893	 1.219485	 0.433193
H	 0.482531	 1.345121	 -1.130325
H	 0.957290	 2.103070	 0.354729
C	 -1.883438	 0.145884	 -0.207175
H	 -1.431207	 2.195402	 0.224832
H	 -1.019646	 1.105716	 1.516076
C	 -3.347647	 0.245583	 0.225435
H	 -1.822183	 0.231698	 -1.291012
H	 -1.510341	 -0.844814	 0.042401
C	 -4.008590	 1.566594	 -0.172327
H	 -3.412894	 0.122917	 1.305217
H	 -3.908447	 -0.580724	 -0.208640
C	 -5.469503	 1.659698	 0.266722
H	 -3.448866	 2.393420	 0.259774
H	 -3.948230	 1.688938	 -1.251757
H	 -5.910094	 2.606677	 -0.029447
H	 -5.560581	 1.575822	 1.346011
H	 -6.063568	 0.865520	 -0.176722
C	 4.728119	 -1.109107	 -0.004993
H	 4.882018	 -1.033965	 -1.071845
H	 5.068212	 -2.067527	 0.355250
H	 5.265056	 -0.311663	 0.488280

	symmetry c1
}
set optking {
	frozen_dihedral = ("
		17 14 11 15
	")
}

ee = optimize('scf')
oeprop('DIPOLE', 'QUADRUPOLE', 'MULLIKEN_CHARGES')
f=open( 'psi4out.xyz', 'w' )
f.write( "29  " )
f.write( str(ee) + "\n" )
f.write( MOL.save_string_xyz() )
f.close()
--------------------------------------------------------------------------

    Molecular point group: c1
  Charge       = 0
  Multiplicity = 1
  Basis Set: 6-31G*
  Basis Set:
  @DF-RHF Final Energy:  -501.04112605362332
    Total Energy =                       -501.0411260536235432
    Molecular point group: c1
  Basis Set: 6-31G*
  Basis Set:
  Basis Set: 6-31G*
  Basis Set:
  @DF-RHF Final Energy:  -501.04155229256105
    Total Energy =                       -501.0415522925610503
  Basis Set: 6-31G*
  Basis Set:
  Basis Set: 6-31G*
  Basis Set:
  @DF-RHF Final Energy:  -501.04216085415851
    Total Energy =                       -501.0421608541589649
  Basis Set: 6-31G*
  Basis Set:
  Basis Set: 6-31G*
  Basis Set:
  @DF-RHF Final Energy:  -501.04218276641382
    Total Energy =                       -501.0421827664147258
  Basis Set: 6-31G*
  Basis Set:
  Basis Set: 6-31G*
  Basis Set:
  @DF-RHF Final Energy:  -501.04213231199810
    Total Energy =                       -501.0421323119987846
  Basis Set: 6-31G*
  Basis Set:
  Basis Set: 6-31G*
  Basis Set:
  @DF-RHF Final Energy:  -501.04217285333607
    Total Energy =                       -501.0421728533360692
  Basis Set: 6-31G*
  Basis Set:
  Basis Set: 6-31G*
  Basis Set:
  @DF-RHF Final Energy:  -501.04220700281167
    Total Energy =                       -501.0422070028116650
  Basis Set: 6-31G*
  Basis Set:
  Charge       = 0
  Multiplicity = 1
  Basis Set: 6-31G*
  Basis Set:

    Orbital Energies (a.u.)
    -----------------------

    Doubly Occupied:

       1A    -20.603362     2A    -20.545182     3A    -11.372016
       4A    -11.280653     5A    -11.234699     6A    -11.219179
       7A    -11.217278     8A    -11.216215     9A    -11.215301
      10A    -11.214710    11A    -11.208862    12A     -1.469061
      13A     -1.362500    14A     -1.097867    15A     -1.065844
      16A     -1.017887    17A     -0.977055    18A     -0.929203
      19A     -0.861980    20A     -0.814326    21A     -0.776995
      22A     -0.762473    23A     -0.700976    24A     -0.682130
      25A     -0.672051    26A     -0.636394    27A     -0.630155
      28A     -0.615514    29A     -0.594234    30A     -0.580419
      31A     -0.565534    32A     -0.555948    33A     -0.538185
      34A     -0.525835    35A     -0.523041    36A     -0.498473
      37A     -0.494629    38A     -0.486471    39A     -0.472927
      40A     -0.459638    41A     -0.455924    42A     -0.447567
      43A     -0.442658    44A     -0.437118

  @DF-RHF Final Energy:  -501.04220746944520

   => Energetics <=

    Nuclear Repulsion Energy =            613.1850544863459618
    One-Electron Energy =               -1897.4975898756365496
    Two-Electron Energy =                 783.2703279198444761
    DFT Exchange-Correlation Energy =       0.0000000000000000
    Empirical Dispersion Energy =           0.0000000000000000
    PCM Polarization Energy =               0.0000000000000000
    EFP Energy =                            0.0000000000000000
    Total Energy =                       -501.0422074694461116
    Molecular point group: c1
  Basis Set: 6-31G*
  Basis Set:

  -Total Gradient:
     Atom            X                  Y                   Z
    ------   -----------------  -----------------  -----------------
       1       -0.000004263241     0.000003344592    -0.000006671057
       2       -0.000000191097    -0.000010701549     0.000022410387
       3        0.000030012531    -0.000008057099    -0.000004196666
       4        0.000007899241    -0.000006344126    -0.000001256366
       5       -0.000006489136    -0.000047403327     0.000001695862
       6       -0.000005048241     0.000008231316    -0.000012178345
       7       -0.000000549429    -0.000006484912     0.000004625412
       8        0.000027818292     0.000082249320    -0.000051347096
       9        0.000000493158     0.000002954531     0.000004567346
      10       -0.000023802493     0.000004928990     0.000007419095
      11        0.000137075879     0.001048983603     0.000386961166
      12        0.000087734804    -0.000008628521     0.000003086210
      13       -0.000052483140    -0.000027414859    -0.000024203392
      14       -0.000212880757    -0.000478538932    -0.000590301575
      15       -0.000090009402    -0.000743379577    -0.000070971002
      16        0.000013717224    -0.000020491849    -0.000002458079
      17        0.000071379072     0.000220352435     0.000294166889
      18        0.000017682763    -0.000069086194     0.000018166298
      19        0.000066351289     0.000030042787    -0.000017532554
      20        0.000042973269     0.000034734862     0.000113124592
      21       -0.000100349124    -0.000017958483    -0.000037953530
      22        0.000000795093     0.000000914526    -0.000045818251
      23        0.000029183957     0.000017004209     0.000043871161
      24       -0.000033791492    -0.000050366671     0.000007492380
      25        0.000001532501     0.000038310458    -0.000042262511
      26       -0.000004395249     0.000002754374     0.000000346790
      27        0.000000271824    -0.000000159683    -0.000000932387
      28       -0.000001064751    -0.000000047217    -0.000000010454
      29        0.000000396644     0.000000256997     0.000000159679

  **** Optimization is complete! (in 8 steps) ****
    Final optimized geometry and variables:
    Molecular point group: c1

    Geometry (in Angstrom), charge = 0, multiplicity = 1:

    O            3.231902832919     0.462409773190    -0.667536818907
    C            2.673025842340    -0.410683592690    -0.085781936212
    C            1.212037772837    -0.421106994474     0.294083167354
    O            3.280803902079    -1.520168793776     0.315844533254
    C            0.466004216944     0.832076219519    -0.159336155582
    H            0.782189539845    -1.325816615584    -0.122510143267
    H            1.160119627427    -0.537647294173     1.373618082871
    C           -0.992639321275     0.891534728385     0.309804885047
    H            0.507269698278     0.902597411050    -1.242174348083
    H            0.994183764155     1.701532613076     0.216708393220
    C           -1.909234267173    -0.157805800841    -0.327276570863
    H           -1.370445238551     1.884194478539     0.085601630918
    H           -1.029227622652     0.790693139000     1.393982760212
    C           -3.360328629492    -0.128601833973     0.168398052418
    H           -1.896777953560    -0.038420544780    -1.409709604146
    H           -1.513770638201    -1.151341000017    -0.131765891146
    C           -4.129338052872     1.159321099640    -0.139659331469
    H           -3.375015787443    -0.304508809358     1.243147950575
    H           -3.890537843382    -0.965789338678    -0.280922701574
    C           -5.598418375920     1.077625461773     0.275294681571
    H           -3.666751777539     2.001260570906     0.366743816958
    H           -4.066721349511     1.370181670886    -1.205653703344
    H           -6.119050607816     2.006528539879     0.063955703987
    H           -5.694654929933     0.879717486448     1.339286049266
    H           -6.112843471692     0.281588008347    -0.255575792876
    C            4.661174115046    -1.638460793168     0.023520079190
    H            4.827476998262    -1.610046468338    -1.043743245212
    H            4.967041562829    -2.592286285491     0.424338260929
    H            5.218611335295    -0.839647430860     0.491174982999

  Mulliken Charges: (a.u.)
   Center  Symbol    Alpha    Beta     Spin     Total
       1     O     4.28597  4.28597  0.00000 -0.57194
       2     C     2.60475  2.60475  0.00000  0.79051
       3     C     3.20973  3.20973  0.00000 -0.41947
       4     O     4.30747  4.30747  0.00000 -0.61493
       5     C     3.15375  3.15375  0.00000 -0.30749
       6     H     0.39904  0.39904  0.00000  0.20192
       7     H     0.40122  0.40122  0.00000  0.19757
       8     C     3.15871  3.15871  0.00000 -0.31742
       9     H     0.41301  0.41301  0.00000  0.17397
      10     H     0.40871  0.40871  0.00000  0.18259
      11     C     3.15612  3.15612  0.00000 -0.31225
      12     H     0.41561  0.41561  0.00000  0.16878
      13     H     0.42465  0.42465  0.00000  0.15070
      14     C     3.15113  3.15113  0.00000 -0.30226
      15     H     0.42272  0.42272  0.00000  0.15455
      16     H     0.42218  0.42218  0.00000  0.15564
      17     C     3.15393  3.15393  0.00000 -0.30786
      18     H     0.42439  0.42439  0.00000  0.15121
      19     H     0.42191  0.42191  0.00000  0.15617
      20     C     3.23919  3.23919  0.00000 -0.47838
      21     H     0.42067  0.42067  0.00000  0.15866
      22     H     0.42319  0.42319  0.00000  0.15361
      23     H     0.41913  0.41913  0.00000  0.16174
      24     H     0.42187  0.42187  0.00000  0.15626
      25     H     0.42182  0.42182  0.00000  0.15635
      26     C     3.09240  3.09240  0.00000 -0.18479
      27     H     0.40908  0.40908  0.00000  0.18183
      28     H     0.40851  0.40851  0.00000  0.18298
      29     H     0.40913  0.40913  0.00000  0.18173

   Total alpha = 44.00000, Total beta = 44.00000, Total charge =  0.00000
