  ==> Input File <==

--------------------------------------------------------------------------
set {
	reference rhf
	basis 6-31G*
}

set_num_threads( 1 )
memory 2 gb

molecule MOL {
0 1

O	 1.944598	 2.798912	 -1.830772
C	 1.429635	 2.385554	 -2.824103
C	 0.148715	 1.571162	 -2.793311
C	 2.026929	 2.649634	 -4.191092
C	 -0.405134	 1.336181	 -1.391074
H	 -0.585013	 2.080542	 -3.416660
H	 0.344073	 0.623698	 -3.293859
C	 -1.694554	 0.513335	 -1.400277
H	 -0.582124	 2.294577	 -0.913287
H	 0.347869	 0.835893	 -0.790369
C	 -2.259874	 0.272531	 0.000494
H	 -2.444161	 1.019026	 -2.007246
H	 -1.510353	 -0.445759	 -1.882228
C	 -3.549786	 -0.549746	 -0.000374
H	 -2.445058	 1.230630	 0.482958
H	 -1.511690	 -0.233717	 0.607890
C	 -4.809590	 0.315458	 -0.000369
H	 -3.560515	 -1.202009	 -0.871156
H	 -3.561123	 -1.202955	 0.869711
H	 -4.844746	 0.956611	 -0.876632
H	 -5.706986	 -0.295590	 -0.001609
H	 -4.845960	 0.954827	 0.877144
H	 1.317888	 3.182410	 -4.818011
H	 2.929250	 3.236138	 -4.087836
H	 2.258400	 1.713330	 -4.690482

	symmetry c1
}
set optking {
	frozen_dihedral = ("
		9 5 8 12,
		15 11 8 12,
		1 2 3 6,
		9 5 3 6
	")
}

ee = energy('scf')
oeprop('DIPOLE', 'QUADRUPOLE', 'MULLIKEN_CHARGES')
f=open( 'psi4out.xyz', 'w' )
f.write( "25  " )
f.write( str(ee) + "\n" )
f.write( MOL.save_string_xyz() )
f.close()
--------------------------------------------------------------------------

    Molecular point group: c1

    Geometry (in Angstrom), charge = 0, multiplicity = 1:

       Center              X                  Y                   Z               Mass
    ------------   -----------------  -----------------  -----------------  -----------------
           O          2.747371324431     1.537902211254    -0.226885383568    15.994914619560
           C          2.232408324431     1.124544211254    -1.220216383568    12.000000000000
           C          0.951488324431     0.310152211254    -1.189424383568    12.000000000000
           C          2.829702324431     1.388624211254    -2.587205383568    12.000000000000
           C          0.397639324431     0.075171211254     0.212812616432    12.000000000000
           H          0.217760324431     0.819532211254    -1.812773383568     1.007825032070
           H          1.146846324431    -0.637311788746    -1.689972383568     1.007825032070
           C         -0.891780675569    -0.747674788746     0.203609616432    12.000000000000
           H          0.220649324431     1.033567211254     0.690599616432     1.007825032070
           H          1.150642324431    -0.425116788746     0.813517616432     1.007825032070
           C         -1.457100675569    -0.988478788746     1.604380616432    12.000000000000
           H         -1.641387675569    -0.241983788746    -0.403359383568     1.007825032070
           H         -0.707579675569    -1.706768788746    -0.278341383568     1.007825032070
           C         -2.747012675569    -1.810755788746     1.603512616432    12.000000000000
           H         -1.642284675569    -0.030379788746     2.086844616432     1.007825032070
           H         -0.708916675569    -1.494726788746     2.211776616432     1.007825032070
           C         -4.006816675569    -0.945551788746     1.603517616432    12.000000000000
           H         -2.757741675569    -2.463018788746     0.732730616432     1.007825032070
           H         -2.758349675569    -2.463964788746     2.473597616432     1.007825032070
           H         -4.041972675569    -0.304398788746     0.727254616432     1.007825032070
           H         -4.904212675569    -1.556599788746     1.602277616432     1.007825032070
           H         -4.043186675569    -0.306182788746     2.481030616432     1.007825032070
           H          2.120661324431     1.921400211254    -3.214124383568     1.007825032070
           H          3.732023324431     1.975128211254    -2.483949383568     1.007825032070
           H          3.061173324431     0.452320211254    -3.086595383568     1.007825032070

  Charge       = 0
  Multiplicity = 1
  Basis Set: 6-31G*
  Basis Set:

    Orbital Energies (a.u.)
    -----------------------

    Doubly Occupied:

       1A    -20.550444     2A    -11.326271     3A    -11.231873
       4A    -11.228335     5A    -11.217163     6A    -11.216413
       7A    -11.214326     8A    -11.212456     9A    -11.208815
      10A     -1.395743    11A     -1.094049    12A     -1.056439
      13A     -1.013891    14A     -0.967808    15A     -0.892968
      16A     -0.819206    17A     -0.785632    18A     -0.729739
      19A     -0.657915    20A     -0.653238    21A     -0.625046
      22A     -0.619754    23A     -0.609598    24A     -0.588869
      25A     -0.568857    26A     -0.557042    27A     -0.535339
      28A     -0.525232    29A     -0.516594    30A     -0.491303
      31A     -0.486160    32A     -0.478020    33A     -0.465021
      34A     -0.453755    35A     -0.449723    36A     -0.399360

  @DF-RHF Final Energy:  -387.13260981248919

   => Energetics <=

    Nuclear Repulsion Energy =            441.4230960303290772
    One-Electron Energy =               -1399.4263046612211383
    Two-Electron Energy =                 570.8705988184015041
    DFT Exchange-Correlation Energy =       0.0000000000000000
    Empirical Dispersion Energy =           0.0000000000000000
    PCM Polarization Energy =               0.0000000000000000
    EFP Energy =                            0.0000000000000000
    Total Energy =                       -387.1326098124905002

  Mulliken Charges: (a.u.)
   Center  Symbol    Alpha    Beta     Spin     Total
       1     O     4.26114  4.26114  0.00000 -0.52229
       2     C     2.73571  2.73571  0.00000  0.52858
       3     C     3.21084  3.21084  0.00000 -0.42167
       4     C     3.28663  3.28663  0.00000 -0.57327
       5     C     3.14813  3.14813  0.00000 -0.29627
       6     H     0.41006  0.41006  0.00000  0.17988
       7     H     0.41007  0.41007  0.00000  0.17987
       8     C     3.15530  3.15530  0.00000 -0.31060
       9     H     0.41210  0.41210  0.00000  0.17579
      10     H     0.41211  0.41211  0.00000  0.17578
      11     C     3.15410  3.15410  0.00000 -0.30821
      12     H     0.42458  0.42458  0.00000  0.15084
      13     H     0.42435  0.42435  0.00000  0.15129
      14     C     3.15449  3.15449  0.00000 -0.30899
      15     H     0.42087  0.42087  0.00000  0.15826
      16     H     0.42007  0.42007  0.00000  0.15986
      17     C     3.23995  3.23995  0.00000 -0.47990
      18     H     0.42234  0.42234  0.00000  0.15531
      19     H     0.42000  0.42000  0.00000  0.16000
      20     H     0.42250  0.42250  0.00000  0.15501
      21     H     0.41994  0.41994  0.00000  0.16012
      22     H     0.42079  0.42079  0.00000  0.15841
      23     H     0.40874  0.40874  0.00000  0.18251
      24     H     0.39646  0.39646  0.00000  0.20708
      25     H     0.40870  0.40870  0.00000  0.18259

   Total alpha = 36.00000, Total beta = 36.00000, Total charge =  0.00000
