  ==> Input File <==

--------------------------------------------------------------------------
set {
	reference rhf
	basis 6-31G*
}

set_num_threads( 1 )
memory 2 gb

molecule MOL {
0 1

H	 -1.959318	 0.103823	 -2.748434
N	 -1.012776	 -0.045163	 -2.457168
C	 -0.924358	 -1.179672	 -1.554850
H	 -0.712503	 0.783842	 -1.982094
C	 0.506821	 -1.365052	 -1.096053
H	 -1.559310	 -1.089230	 -0.672434
H	 -1.234284	 -2.072705	 -2.088909
O	 0.874168	 -0.245412	 -0.342030
H	 0.594829	 -2.268145	 -0.492467
H	 1.157927	 -1.467320	 -1.961407
C	 2.202317	 -0.244239	 0.074611
H	 2.711377	 -1.041390	 -0.449894
H	 2.692099	 0.699270	 -0.159667
H	 2.283185	 -0.418429	 1.145558

	symmetry c1
}
set optking {
	frozen_dihedral = ("
		8 5 3 6,
		6 3 2 4,
		11 8 5 3
	")
}

ee = energy('scf')
oeprop('DIPOLE', 'QUADRUPOLE', 'MULLIKEN_CHARGES')
f=open( 'psi4out.xyz', 'w' )
f.write( "14  " )
f.write( str(ee) + "\n" )
f.write( MOL.save_string_xyz() )
f.close()
--------------------------------------------------------------------------

    Molecular point group: c1

    Geometry (in Angstrom), charge = 0, multiplicity = 1:

       Center              X                  Y                   Z               Mass
    ------------   -----------------  -----------------  -----------------  -----------------
           H         -2.295314494707     0.701259127521    -1.679042422519     1.007825032070
           N         -1.348772494707     0.552273127521    -1.387776422519    14.003074004780
           C         -1.260354494707    -0.582235872479    -0.485458422519    12.000000000000
           H         -1.048499494707     1.381278127521    -0.912702422519     1.007825032070
           C          0.170824505293    -0.767615872479    -0.026661422519    12.000000000000
           H         -1.895306494707    -0.491793872479     0.396957577481     1.007825032070
           H         -1.570280494707    -1.475268872479    -1.019517422519     1.007825032070
           O          0.538171505293     0.352024127521     0.727361577481    15.994914619560
           H          0.258832505293    -1.670708872479     0.576924577481     1.007825032070
           H          0.821930505293    -0.869883872479    -0.892015422519     1.007825032070
           C          1.866320505293     0.353197127521     1.144002577481    12.000000000000
           H          2.375380505293    -0.443953872479     0.619497577481     1.007825032070
           H          2.356102505293     1.296706127521     0.909724577481     1.007825032070
           H          1.947188505293     0.179007127521     2.214949577481     1.007825032070

  Charge       = 0
  Multiplicity = 1
  Basis Set: 6-31G*
  Basis Set:

    Orbital Energies (a.u.)
    -----------------------

    Doubly Occupied:

       1A    -20.554346     2A    -15.528342     3A    -11.266655
       4A    -11.265613     5A    -11.240690     6A     -1.380457
       7A     -1.173502     8A     -0.998143     9A     -0.907285
      10A     -0.817175    11A     -0.682953    12A     -0.672467
      13A     -0.643149    14A     -0.611124    15A     -0.607300
      16A     -0.537992    17A     -0.534532    18A     -0.495928
      19A     -0.473209    20A     -0.413101    21A     -0.380056

  @DF-RHF Final Energy:  -248.12052107048598

   => Energetics <=

    Nuclear Repulsion Energy =            194.7607132794071561
    One-Electron Energy =                -723.3943876453810162
    Two-Electron Energy =                 280.5131532954867453
    DFT Exchange-Correlation Energy =       0.0000000000000000
    Empirical Dispersion Energy =           0.0000000000000000
    PCM Polarization Energy =               0.0000000000000000
    EFP Energy =                            0.0000000000000000
    Total Energy =                       -248.1205210704871433

  Mulliken Charges: (a.u.)
   Center  Symbol    Alpha    Beta     Spin     Total
       1     H     0.33283  0.33283  0.00000  0.33434
       2     N     3.92537  3.92537  0.00000 -0.85075
       3     C     3.06880  3.06880  0.00000 -0.13761
       4     H     0.32355  0.32355  0.00000  0.35290
       5     C     2.99263  2.99263  0.00000  0.01474
       6     H     0.42644  0.42644  0.00000  0.14712
       7     H     0.42053  0.42053  0.00000  0.15893
       8     O     4.31216  4.31216  0.00000 -0.62432
       9     H     0.43055  0.43055  0.00000  0.13890
      10     H     0.42132  0.42132  0.00000  0.15737
      11     C     3.07455  3.07455  0.00000 -0.14910
      12     H     0.42916  0.42916  0.00000  0.14167
      13     H     0.41864  0.41864  0.00000  0.16271
      14     H     0.42345  0.42345  0.00000  0.15310

   Total alpha = 21.00000, Total beta = 21.00000, Total charge =  0.00000
