                              Psi4 1.0.54 Driver

  ==> Input File <==

--------------------------------------------------------------------------
set {
	reference rhf
	basis cc-pvtz
}

set_num_threads( 4 )
memory 2 gb

molecule MOL {
0 1

H	 3.835405	 0.216813	 0.416216
N	 3.091268	 -0.241216	 -0.065538
C	 1.860978	 0.530248	 0.016256
H	 2.977067	 -1.139719	 0.355174
C	 0.644130	 -0.381765	 -0.031064
H	 1.835721	 1.204666	 -0.833114
H	 1.808789	 1.151975	 0.911067
C	 -0.678115	 0.376691	 0.025731
H	 0.693998	 -0.977147	 -0.936845
H	 0.693309	 -1.082142	 0.800523
C	 -1.900706	 -0.535531	 -0.022488
H	 -0.725296	 1.079516	 -0.802982
H	 -0.715474	 0.974884	 0.933278
C	 -3.220513	 0.226854	 0.028039
H	 -1.865036	 -1.134397	 -0.928236
H	 -1.857948	 -1.236381	 0.806820
H	 -3.309098	 0.911849	 -0.808725
H	 -4.066838	 -0.449485	 -0.008086
H	 -3.301685	 0.809374	 0.939860

	symmetry c1
}
set optking {
	frozen_dihedral = ("
		1 2 3 6
	")
}

ee,wfn = optimize('scf', return_wfn=True)
oeprop( wfn, 'DIPOLE', 'QUADRUPOLE', 'MULLIKEN_CHARGES')
f=open( 'psi4out.xyz', 'w' )
f.write( "19  " )
f.write( str(ee) + "\n" )
f.write( MOL.save_string_xyz() )
f.close()
--------------------------------------------------------------------------

    Molecular point group: c1
  Charge       = 0
  Multiplicity = 1
  Basis Set: CC-PVTZ
  Basis Set:
  @DF-RHF Final Energy:  -251.44593980246194
    Total Energy =                       -251.4459398024616803
    Molecular point group: c1
  Basis Set: CC-PVTZ
  Basis Set:
  Basis Set: CC-PVTZ
  Basis Set:
  @DF-RHF Final Energy:  -251.44592120200713
    Total Energy =                       -251.4459212020070140
  Basis Set: CC-PVTZ
  Basis Set:
  Basis Set: CC-PVTZ
  Basis Set:
  @DF-RHF Final Energy:  -251.44613983336185
    Total Energy =                       -251.4461398333619400
  Basis Set: CC-PVTZ
  Basis Set:
  Basis Set: CC-PVTZ
  Basis Set:
  @DF-RHF Final Energy:  -251.44614615689511
    Total Energy =                       -251.4461461568950540
  Basis Set: CC-PVTZ
  Basis Set:
  Charge       = 0
  Multiplicity = 1
  Basis Set: CC-PVTZ
  Basis Set:

    Orbital Energies (a.u.)
    -----------------------

    Doubly Occupied:

       1A    -15.525604     2A    -11.237615     3A    -11.213688
       4A    -11.212737     5A    -11.212044     6A    -11.206708
       7A     -1.177562     8A     -1.076156     9A     -1.001012
      10A     -0.901831    11A     -0.816192    12A     -0.792643
      13A     -0.657202    14A     -0.649591    15A     -0.615285
      16A     -0.595906    17A     -0.565087    18A     -0.543368
      19A     -0.540475    20A     -0.496080    21A     -0.486696
      22A     -0.467274    23A     -0.464039    24A     -0.450204
      25A     -0.384504

  @DF-RHF Final Energy:  -251.44614661745001

   => Energetics <=

    Nuclear Repulsion Energy =            246.2081672546709399
    One-Electron Energy =                -826.7296309615528571
    Two-Electron Energy =                 329.0753170894321329
    DFT Exchange-Correlation Energy =       0.0000000000000000
    Empirical Dispersion Energy =           0.0000000000000000
    PCM Polarization Energy =               0.0000000000000000
    EFP Energy =                            0.0000000000000000
    Total Energy =                       -251.4461466174498128
    Molecular point group: c1
  Basis Set: CC-PVTZ
  Basis Set:

  -Total Gradient:
     Atom            X                  Y                   Z
    ------   -----------------  -----------------  -----------------
       1       -0.000733634808    -0.001849446735     0.002578415494
       2        0.000533550995     0.001920591530    -0.003677840430
       3        0.001497178819     0.001960712650     0.002909580780
       4       -0.000021402317    -0.000024108404    -0.000008263052
       5        0.000021539535    -0.000034358297     0.000012807616
       6       -0.001261752170    -0.001970534646    -0.001801067795
       7       -0.000021498615     0.000007276214    -0.000020173264
       8        0.000008190766     0.000018427680     0.000024970128
       9        0.000000616180    -0.000010565879    -0.000000715297
      10       -0.000012914388    -0.000018407083    -0.000003038002
      11        0.000003387848    -0.000005705532    -0.000023514220
      12        0.000000116225    -0.000001379154     0.000007078457
      13       -0.000008796951     0.000007116713     0.000001041929
      14       -0.000001029147    -0.000000697012     0.000009606359
      15        0.000000133365    -0.000008461865     0.000001802367
      16       -0.000004332428     0.000009343698    -0.000005198331
      17       -0.000000754258    -0.000004723333     0.000000635704
      18        0.000002214436     0.000004868149    -0.000000149162
      19       -0.000000813083     0.000000051308    -0.000005979283

  **** Optimization is complete! (in 5 steps) ****
    Final optimized geometry and variables:
    Molecular point group: c1

    Geometry (in Angstrom), charge = 0, multiplicity = 1:

    H            3.830374095480     0.339858351233     0.515821275247
    N            3.105965582105    -0.102198123600    -0.009153188771
    C            1.837888586724     0.602741623020     0.145595863456
    H            3.031793389455    -1.030017500354     0.353406672893
    C            0.661308220183    -0.350076107003    -0.015889870816
    H            1.768404479682     1.358340748504    -0.630311020059
    H            1.757252638728     1.110575022690     1.104931902649
    C           -0.692127769459     0.351722307804     0.030007552121
    H            0.769360975890    -0.877087873380    -0.959671420948
    H            0.702675900653    -1.104242525617     0.767722761900
    C           -1.872961445511    -0.602409785381    -0.126403299894
    H           -0.733995965165     1.102754257644    -0.754918253800
    H           -0.789700361346     0.888907501511     0.970557848761
    C           -3.223730327888     0.104130392297    -0.084729150969
    H           -1.776718285621    -1.140425069499    -1.065370425006
    H           -1.834850815066    -1.352313421122     0.659043620365
    H           -3.306947356663     0.836431782462    -0.880911092593
    H           -4.039468873329    -0.600667941390    -0.197793461844
    H           -3.364579190888     0.624448286696     0.856905309362

  Mulliken Charges: (a.u.)
   Center  Symbol    Alpha    Beta     Spin     Total
       1     H     0.43218  0.43218  0.00000  0.13565
       2     N     3.68675  3.68675  0.00000 -0.37350
       3     C     3.01909  3.01909  0.00000 -0.03818
       4     H     0.43275  0.43275  0.00000  0.13451
       5     C     3.08753  3.08753  0.00000 -0.17505
       6     H     0.46138  0.46138  0.00000  0.07723
       7     H     0.46768  0.46768  0.00000  0.06463
       8     C     3.09270  3.09270  0.00000 -0.18541
       9     H     0.44885  0.44885  0.00000  0.10229
      10     H     0.46053  0.46053  0.00000  0.07893
      11     C     3.08332  3.08332  0.00000 -0.16665
      12     H     0.45360  0.45360  0.00000  0.09281
      13     H     0.45594  0.45594  0.00000  0.08812
      14     C     3.15006  3.15006  0.00000 -0.30013
      15     H     0.45389  0.45389  0.00000  0.09222
      16     H     0.45500  0.45500  0.00000  0.09001
      17     H     0.45488  0.45488  0.00000  0.09025
      18     H     0.44842  0.44842  0.00000  0.10315
      19     H     0.45544  0.45544  0.00000  0.08912

   Total alpha = 25.00000, Total beta = 25.00000, Total charge = -0.00000

*** Psi4 exiting successfully. Buy a developer a beer!
