                              Psi4 1.0.54 Driver

  ==> Input File <==

--------------------------------------------------------------------------
set {
	reference rhf
	basis cc-pvtz
}

set_num_threads( 4 )
memory 2 gb

molecule MOL {
0 1

H	 -2.644180	 -0.653737	 1.272255
C	 -2.092774	 -0.380414	 0.391915
O	 -0.808934	 -0.154049	 0.752536
F	 -2.163230	 -1.351640	 -0.507133
F	 -2.627232	 0.691260	 -0.169301
C	 0.090694	 0.226091	 -0.219813
C	 1.370823	 -0.575712	 0.003025
Cl	 0.436830	 1.963215	 -0.129654
H	 -0.264096	 0.020455	 -1.214541
F	 2.266022	 -0.270353	 -0.901629
F	 1.099472	 -1.854143	 -0.112286
F	 1.883424	 -0.371170	 1.185249

	symmetry c1
}
set optking {
	frozen_dihedral = ("
		6 3 2 4
	")
}

ee,wfn = optimize('scf', return_wfn=True)
oeprop( wfn, 'DIPOLE', 'QUADRUPOLE', 'MULLIKEN_CHARGES')
f=open( 'psi4out.xyz', 'w' )
f.write( "12  " )
f.write( str(ee) + "\n" )
f.write( MOL.save_string_xyz() )
f.close()
--------------------------------------------------------------------------

    Molecular point group: c1
  Charge       = 0
  Multiplicity = 1
  Basis Set: CC-PVTZ
  Basis Set:
  @DF-RHF Final Energy: -1146.62044208570410
    Total Energy =                      -1146.6204420857036439
    Molecular point group: c1
  Basis Set: CC-PVTZ
  Basis Set:
  Charge       = 0
  Multiplicity = 1
  Basis Set: CC-PVTZ
  Basis Set:

    Orbital Energies (a.u.)
    -----------------------

    Doubly Occupied:

       1A   -104.856385     2A    -26.354989     3A    -26.353929
       4A    -26.353214     5A    -26.343732     6A    -26.343049
       7A    -20.641417     8A    -11.520188     9A    -11.484194
      10A    -11.401035    11A    -10.581908    12A     -8.048705
      13A     -8.046719    14A     -8.046642    15A     -1.767938
      16A     -1.725061    17A     -1.662923    18A     -1.661321
      19A     -1.644990    20A     -1.487618    21A     -1.178177
      22A     -1.053208    23A     -0.991057    24A     -0.924680
      25A     -0.865012    26A     -0.858806    27A     -0.852287
      28A     -0.829583    29A     -0.818453    30A     -0.794041
      31A     -0.733731    32A     -0.733171    33A     -0.712902
      34A     -0.708398    35A     -0.684976    36A     -0.681516
      37A     -0.665353    38A     -0.664123    39A     -0.649409
      40A     -0.638980    41A     -0.599124    42A     -0.581954
      43A     -0.525584    44A     -0.478136    45A     -0.469732

  @DF-RHF Final Energy: -1146.62044229921457

   => Energetics <=

    Nuclear Repulsion Energy =            738.2864952719504572
    One-Electron Energy =               -3059.7771747202600636
    Two-Electron Energy =                1174.8702371490946916
    DFT Exchange-Correlation Energy =       0.0000000000000000
    Empirical Dispersion Energy =           0.0000000000000000
    PCM Polarization Energy =               0.0000000000000000
    EFP Energy =                            0.0000000000000000
    Total Energy =                      -1146.6204422992148011
    Molecular point group: c1
  Basis Set: CC-PVTZ
  Basis Set:

  -Total Gradient:
     Atom            X                  Y                   Z
    ------   -----------------  -----------------  -----------------
       1       -0.000026724883     0.000045049079     0.000014025676
       2       -0.000122421570    -0.000376110804     0.000266976054
       3        0.000000015725     0.000451516714    -0.000062223571
       4       -0.000010239202     0.000192533778    -0.000238064068
       5        0.000096549657    -0.000125796405     0.000023610079
       6        0.000045192586    -0.000240011536    -0.000005681344
       7        0.000028392169    -0.000013906073    -0.000032015701
       8        0.000025006991     0.000066843099    -0.000000474607
       9       -0.000001515045    -0.000003604864     0.000007279659
      10       -0.000007530480     0.000010695344    -0.000014479145
      11       -0.000019901777    -0.000016225321     0.000011700575
      12       -0.000006824177     0.000009017006     0.000029346395

  **** Optimization is complete! (in 2 steps) ****
    Final optimized geometry and variables:
    Molecular point group: c1

    Geometry (in Angstrom), charge = 0, multiplicity = 1:

    H           -2.647189494951    -0.635935974582     1.272362506653
    C           -2.095634359486    -0.363729116573     0.391717168563
    O           -0.811721065241    -0.137073294172     0.751792517009
    F           -2.166994163706    -1.334662130832    -0.507700898077
    F           -2.629328006089     0.708007255941    -0.170012551112
    C            0.088020332008     0.243745663165    -0.220325372938
    C            1.368022844107    -0.558410773046     0.002671344012
    CL           0.433726628664     1.980943346272    -0.129595826627
    H           -0.266775744551     0.038157547895    -1.215005569582
    F            2.263133879881    -0.253274001747    -0.902181995683
    F            1.096184005573    -1.836811104621    -0.112380698451
    F            1.880638823700    -0.353815630336     1.184885965814

  Mulliken Charges: (a.u.)
   Center  Symbol    Alpha    Beta     Spin     Total
       1     H     0.45191  0.45191  0.00000  0.09618
       2     C     2.74013  2.74013  0.00000  0.51974
       3     O     4.15651  4.15651  0.00000 -0.31302
       4     F     4.61801  4.61801  0.00000 -0.23602
       5     F     4.61494  4.61494  0.00000 -0.22988
       6     C     2.93680  2.93680  0.00000  0.12641
       7     C     2.66946  2.66946  0.00000  0.66107
       8    CL     8.57411  8.57411  0.00000 -0.14822
       9     H     0.43044  0.43044  0.00000  0.13911
      10     F     4.60247  4.60247  0.00000 -0.20494
      11     F     4.60472  4.60472  0.00000 -0.20944
      12     F     4.60050  4.60050  0.00000 -0.20099

   Total alpha = 45.00000, Total beta = 45.00000, Total charge = -0.00000

*** Psi4 exiting successfully. Buy a developer a beer!
