  ==> Input File <==

--------------------------------------------------------------------------
set {
	reference rhf
	basis 6-31G*
}

set_num_threads( 1 )
memory 2 gb

molecule MOL {
0 1

O	 2.131581	 -0.212733	 0.530841
C	 1.122059	 0.121804	 -0.000188
C	 -0.170150	 -0.657997	 -0.000612
O	 0.999624	 1.255221	 -0.679416
C	 -1.412532	 0.227344	 -0.000452
H	 -0.153702	 -1.313099	 -0.867402
H	 -0.153924	 -1.313811	 0.865644
C	 -2.706999	 -0.587347	 -0.000541
H	 -1.388000	 0.879466	 -0.868000
H	 -1.387972	 0.879138	 0.867341
C	 -3.956778	 0.291888	 0.000910
H	 -2.726114	 -1.239230	 -0.871609
H	 -2.725217	 -1.240844	 0.869333
H	 -3.985213	 0.933254	 -0.875158
H	 -4.860123	 -0.309979	 0.000519
H	 -3.984618	 0.931166	 0.878514
C	 2.144544	 2.084852	 -0.756944
H	 2.457816	 2.393376	 0.230052
H	 1.848459	 2.942626	 -1.340472
H	 2.958410	 1.565016	 -1.241610

	symmetry c1
}
set optking {
	frozen_dihedral = ("
		9 5 8 12,
		9 5 3 6,
		1 2 4 17
	")
}

ee = energy('scf')
oeprop('DIPOLE', 'QUADRUPOLE', 'MULLIKEN_CHARGES')
f=open( 'psi4out.xyz', 'w' )
f.write( "20  " )
f.write( str(ee) + "\n" )
f.write( MOL.save_string_xyz() )
f.close()
--------------------------------------------------------------------------

    Molecular point group: c1

    Geometry (in Angstrom), charge = 0, multiplicity = 1:

       Center              X                  Y                   Z               Mass
    ------------   -----------------  -----------------  -----------------  -----------------
           O          2.337341513963    -0.553763364351     0.650079308379    15.994914619560
           C          1.327819513963    -0.219226364351     0.119050308379    12.000000000000
           C          0.035610513963    -0.999027364351     0.118626308379    12.000000000000
           O          1.205384513963     0.914190635649    -0.560177691621    15.994914619560
           C         -1.206771486037    -0.113686364351     0.118786308379    12.000000000000
           H          0.052058513963    -1.654129364351    -0.748163691621     1.007825032070
           H          0.051836513963    -1.654841364351     0.984882308379     1.007825032070
           C         -2.501238486037    -0.928377364351     0.118697308379    12.000000000000
           H         -1.182239486037     0.538435635649    -0.748761691621     1.007825032070
           H         -1.182211486037     0.538107635649     0.986579308379     1.007825032070
           C         -3.751017486037    -0.049142364351     0.120148308379    12.000000000000
           H         -2.520353486037    -1.580260364351    -0.752370691621     1.007825032070
           H         -2.519456486037    -1.581874364351     0.988571308379     1.007825032070
           H         -3.779452486037     0.592223635649    -0.755919691621     1.007825032070
           H         -4.654362486037    -0.651009364351     0.119757308379     1.007825032070
           H         -3.778857486037     0.590135635649     0.997752308379     1.007825032070
           C          2.350304513963     1.743821635649    -0.637705691621    12.000000000000
           H          2.663576513963     2.052345635649     0.349290308379     1.007825032070
           H          2.054219513963     2.601595635649    -1.221233691621     1.007825032070
           H          3.164170513963     1.223985635649    -1.122371691621     1.007825032070

  Charge       = 0
  Multiplicity = 1
  Basis Set: 6-31G*
  Basis Set:

    Orbital Energies (a.u.)
    -----------------------

    Doubly Occupied:

       1A    -20.605064     2A    -20.543689     3A    -11.372261
       4A    -11.281385     5A    -11.235119     6A    -11.223499
       7A    -11.222185     8A    -11.213155     9A     -1.469940
      10A     -1.362164    11A     -1.092732    12A     -1.025114
      13A     -0.965569    14A     -0.891337    15A     -0.806300
      16A     -0.774736    17A     -0.694411    18A     -0.683053
      19A     -0.672337    20A     -0.646397    21A     -0.595109
      22A     -0.591453    23A     -0.578572    24A     -0.545456
      25A     -0.531804    26A     -0.525261    27A     -0.503847
      28A     -0.490777    29A     -0.480944    30A     -0.471079
      31A     -0.454798    32A     -0.428148

  @DF-RHF Final Energy:  -383.93884916526736

   => Energetics <=

    Nuclear Repulsion Energy =            385.2017799746727178
    One-Electron Energy =               -1286.3259085273330129
    Two-Electron Energy =                 517.1852793873935070
    DFT Exchange-Correlation Energy =       0.0000000000000000
    Empirical Dispersion Energy =           0.0000000000000000
    PCM Polarization Energy =               0.0000000000000000
    EFP Energy =                            0.0000000000000000
    Total Energy =                       -383.9388491652667881

  Mulliken Charges: (a.u.)
   Center  Symbol    Alpha    Beta     Spin     Total
       1     O     4.28771  4.28771  0.00000 -0.57543
       2     C     2.60617  2.60617  0.00000  0.78767
       3     C     3.20826  3.20826  0.00000 -0.41651
       4     O     4.30317  4.30317  0.00000 -0.60633
       5     C     3.15605  3.15605  0.00000 -0.31210
       6     H     0.40082  0.40082  0.00000  0.19836
       7     H     0.39852  0.39852  0.00000  0.20296
       8     C     3.15405  3.15405  0.00000 -0.30811
       9     H     0.40687  0.40687  0.00000  0.18626
      10     H     0.41782  0.41782  0.00000  0.16437
      11     C     3.23956  3.23956  0.00000 -0.47912
      12     H     0.42193  0.42193  0.00000  0.15615
      13     H     0.42149  0.42149  0.00000  0.15703
      14     H     0.42053  0.42053  0.00000  0.15894
      15     H     0.41793  0.41793  0.00000  0.16413
      16     H     0.42059  0.42059  0.00000  0.15883
      17     C     3.09233  3.09233  0.00000 -0.18466
      18     H     0.40860  0.40860  0.00000  0.18280
      19     H     0.40885  0.40885  0.00000  0.18229
      20     H     0.40876  0.40876  0.00000  0.18248

   Total alpha = 32.00000, Total beta = 32.00000, Total charge = -0.00000
