                              Psi4 1.0.54 Driver

  ==> Input File <==

--------------------------------------------------------------------------
set {
	reference rhf
	basis cc-pvtz
}

set_num_threads( 4 )
memory 2 gb

molecule MOL {
0 1

O	 -2.739743	 0.825929	 0.345305
C	 -1.922978	 0.063265	 -0.045005
C	 -2.208006	 -1.122057	 -0.923768
O	 -0.637375	 0.157174	 0.243149
H	 -1.895576	 -2.029350	 -0.422842
H	 -3.262391	 -1.163801	 -1.143237
H	 -1.638802	 -1.040313	 -1.840771
C	 0.162530	 -1.009518	 0.097799
C	 1.587210	 -0.664190	 0.477086
H	 0.096803	 -1.356267	 -0.924704
H	 -0.233803	 -1.785900	 0.736810
C	 2.256770	 0.342732	 -0.454344
H	 2.154716	 -1.590834	 0.479041
H	 1.598751	 -0.289614	 1.496104
C	 3.698146	 0.643205	 -0.057145
H	 2.235038	 -0.042575	 -1.470299
H	 1.683491	 1.262594	 -0.461300
H	 4.150202	 1.356548	 -0.736242
H	 4.305463	 -0.255904	 -0.069842
H	 3.749130	 1.061068	 0.942759

	symmetry c1
}
set optking {
	frozen_dihedral = ("
		1 2 4 8
	")
}

ee,wfn = optimize('scf', return_wfn=True)
oeprop( wfn, 'DIPOLE', 'QUADRUPOLE', 'MULLIKEN_CHARGES')
f=open( 'psi4out.xyz', 'w' )
f.write( "20  " )
f.write( str(ee) + "\n" )
f.write( MOL.save_string_xyz() )
f.close()
--------------------------------------------------------------------------

    Molecular point group: c1
  Charge       = 0
  Multiplicity = 1
  Basis Set: CC-PVTZ
  Basis Set:
  @DF-RHF Final Energy:  -384.06497182273336
    Total Energy =                       -384.0649718227335825
    Molecular point group: c1
  Basis Set: CC-PVTZ
  Basis Set:
  Basis Set: CC-PVTZ
  Basis Set:
  @DF-RHF Final Energy:  -384.04091739004713
    Total Energy =                       -384.0409173900470705
  Basis Set: CC-PVTZ
  Basis Set:
  Basis Set: CC-PVTZ
  Basis Set:
  @DF-RHF Final Energy:  -384.07043605027064
    Total Energy =                       -384.0704360502701320
  Basis Set: CC-PVTZ
  Basis Set:
  Basis Set: CC-PVTZ
  Basis Set:
  @DF-RHF Final Energy:  -384.07276319024118
    Total Energy =                       -384.0727631902415169
  Basis Set: CC-PVTZ
  Basis Set:
  @DF-RHF Final Energy:  -384.07091389832431
    Total Energy =                       -384.0709138983246476
  @DF-RHF Final Energy:  -384.07360807870606
    Total Energy =                       -384.0736080787063429
  Basis Set: CC-PVTZ
  Basis Set:
  @DF-RHF Final Energy:  -384.07365511364890
    Total Energy =                       -384.0736551136487833
  Basis Set: CC-PVTZ
  Basis Set:
  Basis Set: CC-PVTZ
  Basis Set:
  @DF-RHF Final Energy:  -384.07365911456600
    Total Energy =                       -384.0736591145656575
  Basis Set: CC-PVTZ
  Basis Set:
  Basis Set: CC-PVTZ
  Basis Set:
  @DF-RHF Final Energy:  -384.07366425344640
    Total Energy =                       -384.0736642534467364
  Basis Set: CC-PVTZ
  Basis Set:
  Charge       = 0
  Multiplicity = 1
  Basis Set: CC-PVTZ
  Basis Set:

    Orbital Energies (a.u.)
    -----------------------

    Doubly Occupied:

       1A    -20.591419     2A    -20.528410     3A    -11.368284
       4A    -11.294876     5A    -11.240033     6A    -11.228575
       7A    -11.220684     8A    -11.212524     9A     -1.464920
      10A     -1.367324    11A     -1.088353    12A     -1.020059
      13A     -1.001290    14A     -0.890414    15A     -0.816061
      16A     -0.781321    17A     -0.699565    18A     -0.691195
      19A     -0.664835    20A     -0.634642    21A     -0.608800
      22A     -0.595196    23A     -0.580406    24A     -0.557978
      25A     -0.549462    26A     -0.539356    27A     -0.513315
      28A     -0.488442    29A     -0.479504    30A     -0.477414
      31A     -0.445732    32A     -0.435361

  @DF-RHF Final Energy:  -384.07366434053938

   => Energetics <=

    Nuclear Repulsion Energy =            385.2808153617199878
    One-Electron Energy =               -1286.5574573913927452
    Two-Electron Energy =                 517.2029776891333768
    DFT Exchange-Correlation Energy =       0.0000000000000000
    Empirical Dispersion Energy =           0.0000000000000000
    PCM Polarization Energy =               0.0000000000000000
    EFP Energy =                            0.0000000000000000
    Total Energy =                       -384.0736643405393806
    Molecular point group: c1
  Basis Set: CC-PVTZ
  Basis Set:

  -Total Gradient:
     Atom            X                  Y                   Z
    ------   -----------------  -----------------  -----------------
       1       -0.000638364871    -0.001319452682     0.001640508340
       2        0.000611199762     0.001573926044    -0.001384877035
       3       -0.000022740041    -0.000024221271     0.000018974796
       4        0.000647135062     0.000288713594    -0.001965459942
       5        0.000000733567     0.000014578111    -0.000015976796
       6        0.000012864658    -0.000002250576     0.000002666810
       7       -0.000001814706     0.000006401219     0.000008371409
       8       -0.000599853059    -0.000549998941     0.001674304069
       9       -0.000007251507     0.000010113717     0.000013527408
      10       -0.000002654500    -0.000005846646     0.000003685245
      11        0.000003143107     0.000012707316    -0.000000905698
      12       -0.000002225622     0.000006798265     0.000002762080
      13       -0.000001686563     0.000004620629     0.000001046461
      14        0.000005185149     0.000002966933     0.000001472533
      15       -0.000000903472    -0.000008254046    -0.000004681585
      16        0.000000111992    -0.000000513821     0.000002884929
      17        0.000002945948    -0.000006374310     0.000006353427
      18       -0.000003171649    -0.000004325182    -0.000000556559
      19        0.000001095915     0.000000449830     0.000001325321
      20       -0.000003749174    -0.000000038181    -0.000005425213

  **** Optimization is complete! (in 10 steps) ****
    Final optimized geometry and variables:
    Molecular point group: c1

    Geometry (in Angstrom), charge = 0, multiplicity = 1:

    O           -2.584373890984     1.162845630638     0.136916867971
    C           -1.898531762886     0.296103717613    -0.273118825953
    C           -2.377573382909    -0.708807776123    -1.291653806836
    O           -0.642139074320     0.198196365764     0.152358490544
    H           -2.359462829637    -1.712708182822    -0.887313075095
    H           -3.386600681231    -0.452773249485    -1.567783659626
    H           -1.743298307415    -0.691589881528    -2.169059838397
    C            0.111919138062    -0.993946136770     0.054733648018
    C            1.467943359028    -0.750383785869     0.685702179792
    H            0.226697303511    -1.283877123080    -0.983214614785
    H           -0.402760085725    -1.791101361662     0.577833115686
    C            2.316394957746     0.284179129491    -0.048257536192
    H            1.991407232694    -1.702405994701     0.711327474138
    H            1.319257789421    -0.443715418175     1.715610101090
    C            3.676192292030     0.497865207269     0.607717843654
    H            2.458864851157    -0.035497097451    -1.077596343758
    H            1.779549270168     1.224124943199    -0.086685161795
    H            4.258850363154     1.233274869952     0.065794749427
    H            4.249571300688    -0.422997298334     0.636356534832
    H            3.566015527995     0.850307764939     1.627559934973

  Mulliken Charges: (a.u.)
   Center  Symbol    Alpha    Beta     Spin     Total
       1     O     4.18118  4.18118  0.00000 -0.36235
       2     C     2.81992  2.81992  0.00000  0.36016
       3     C     3.16749  3.16749  0.00000 -0.33498
       4     O     4.13167  4.13167  0.00000 -0.26335
       5     H     0.44731  0.44731  0.00000  0.10538
       6     H     0.42617  0.42617  0.00000  0.14767
       7     H     0.44465  0.44465  0.00000  0.11069
       8     C     2.99885  2.99885  0.00000  0.00231
       9     C     3.08264  3.08264  0.00000 -0.16528
      10     H     0.45899  0.45899  0.00000  0.08202
      11     H     0.44887  0.44887  0.00000  0.10225
      12     C     3.08670  3.08670  0.00000 -0.17341
      13     H     0.45308  0.45308  0.00000  0.09384
      14     H     0.44754  0.44754  0.00000  0.10493
      15     C     3.15047  3.15047  0.00000 -0.30094
      16     H     0.45789  0.45789  0.00000  0.08422
      17     H     0.44073  0.44073  0.00000  0.11853
      18     H     0.44665  0.44665  0.00000  0.10669
      19     H     0.45670  0.45670  0.00000  0.08661
      20     H     0.45249  0.45249  0.00000  0.09502

   Total alpha = 32.00000, Total beta = 32.00000, Total charge =  0.00000

*** Psi4 exiting successfully. Buy a developer a beer!
