                              Psi4 1.0.54 Driver

  ==> Input File <==

--------------------------------------------------------------------------
set {
	reference rhf
	basis cc-pvtz
}

set_num_threads( 4 )
memory 2 gb

molecule MOL {
0 1

H	 3.690757	 -0.882637	 0.394326
O	 2.824271	 -1.154299	 0.131461
C	 2.076458	 -0.067370	 -0.038225
C	 0.626018	 -0.337582	 0.258241
O	 2.538288	 0.965419	 -0.381593
C	 -0.267326	 0.883135	 0.076490
H	 0.325620	 -1.161483	 -0.378003
H	 0.574537	 -0.713685	 1.275261
C	 -1.726822	 0.642622	 0.463839
H	 -0.210803	 1.217591	 -0.953497
H	 0.129920	 1.693110	 0.675679
C	 -2.480891	 -0.340606	 -0.429852
H	 -2.243098	 1.597649	 0.438609
H	 -1.776542	 0.301208	 1.495542
C	 -3.955933	 -0.460128	 -0.060472
H	 -2.393755	 -0.020485	 -1.464726
H	 -2.024244	 -1.323637	 -0.374360
H	 -4.467673	 -1.160944	 -0.709827
H	 -4.458917	 0.497287	 -0.144505
H	 -4.076458	 -0.806900	 0.960497

	symmetry c1
}
set optking {
	frozen_dihedral = ("
		1 2 3 5
	")
}

ee,wfn = optimize('scf', return_wfn=True)
oeprop( wfn, 'DIPOLE', 'QUADRUPOLE', 'MULLIKEN_CHARGES')
f=open( 'psi4out.xyz', 'w' )
f.write( "20  " )
f.write( str(ee) + "\n" )
f.write( MOL.save_string_xyz() )
f.close()
--------------------------------------------------------------------------

    Molecular point group: c1
  Charge       = 0
  Multiplicity = 1
  Basis Set: CC-PVTZ
  Basis Set:
  @DF-RHF Final Energy:  -384.09001605085734
    Total Energy =                       -384.0900160508576278
    Molecular point group: c1
  Basis Set: CC-PVTZ
  Basis Set:
  Basis Set: CC-PVTZ
  Basis Set:
  @DF-RHF Final Energy:  -384.08634760519948
    Total Energy =                       -384.0863476051999896
  Basis Set: CC-PVTZ
  Basis Set:
  Basis Set: CC-PVTZ
  Basis Set:
  @DF-RHF Final Energy:  -384.09039899988210
    Total Energy =                       -384.0903989998821544
  Basis Set: CC-PVTZ
  Basis Set:
  Basis Set: CC-PVTZ
  Basis Set:
  @DF-RHF Final Energy:  -384.09047818037328
    Total Energy =                       -384.0904781803732249
  Basis Set: CC-PVTZ
  Basis Set:
  Basis Set: CC-PVTZ
  Basis Set:
  @DF-RHF Final Energy:  -384.09048875347145
    Total Energy =                       -384.0904887534714476
  Basis Set: CC-PVTZ
  Basis Set:
  Basis Set: CC-PVTZ
  Basis Set:
  @DF-RHF Final Energy:  -384.09049202178193
    Total Energy =                       -384.0904920217821541
  Basis Set: CC-PVTZ
  Basis Set:
  Basis Set: CC-PVTZ
  Basis Set:
  @DF-RHF Final Energy:  -384.09049203544538
    Total Energy =                       -384.0904920354450951
  Basis Set: CC-PVTZ
  Basis Set:
  Charge       = 0
  Multiplicity = 1
  Basis Set: CC-PVTZ
  Basis Set:

    Orbital Energies (a.u.)
    -----------------------

    Doubly Occupied:

       1A    -20.600108     2A    -20.542539     3A    -11.373625
       4A    -11.238406     5A    -11.220844     6A    -11.218701
       7A    -11.218073     8A    -11.210470     9A     -1.473446
      10A     -1.369640    11A     -1.097316    12A     -1.041832
      13A     -0.961890    14A     -0.869646    15A     -0.817361
      16A     -0.778992    17A     -0.705469    18A     -0.690977
      19A     -0.662565    20A     -0.640109    21A     -0.606763
      22A     -0.590524    23A     -0.577374    24A     -0.557223
      25A     -0.536649    26A     -0.514740    27A     -0.495205
      28A     -0.487584    29A     -0.471343    30A     -0.467540
      31A     -0.458108    32A     -0.446198

  @DF-RHF Final Energy:  -384.09049294879821

   => Energetics <=

    Nuclear Repulsion Energy =            376.4149901224292307
    One-Electron Energy =               -1269.1284428568656040
    Two-Electron Energy =                 508.6229597856378177
    DFT Exchange-Correlation Energy =       0.0000000000000000
    Empirical Dispersion Energy =           0.0000000000000000
    PCM Polarization Energy =               0.0000000000000000
    EFP Energy =                            0.0000000000000000
    Total Energy =                       -384.0904929487985555
    Molecular point group: c1
  Basis Set: CC-PVTZ
  Basis Set:

  -Total Gradient:
     Atom            X                  Y                   Z
    ------   -----------------  -----------------  -----------------
       1       -0.001928923998    -0.001048151352     0.009102917691
       2        0.001569666438     0.000392779825    -0.015177374047
       3        0.002252946925     0.001837837820     0.014602565094
       4       -0.000062210926    -0.000020140772    -0.000154713696
       5       -0.001892262858    -0.001172562256    -0.008343072120
       6        0.000015225808    -0.000005279880    -0.000041894929
       7        0.000021902657     0.000028831634    -0.000009584425
       8        0.000011789604    -0.000012629628     0.000015949544
       9        0.000009387173    -0.000016364755     0.000002856647
      10        0.000000987565     0.000012930487    -0.000021231681
      11        0.000007090393     0.000007963017     0.000007800389
      12        0.000002901158    -0.000015741997     0.000015460150
      13        0.000008248231     0.000008992564     0.000005299182
      14       -0.000002593210    -0.000011974823     0.000002835200
      15       -0.000004497705     0.000010920632    -0.000006620843
      16        0.000003954464     0.000001597380     0.000000145806
      17       -0.000005896734    -0.000003087633     0.000001104664
      18       -0.000003494457     0.000001457551    -0.000004752097
      19       -0.000007835292     0.000004740583     0.000002902569
      20        0.000003614770    -0.000002118394    -0.000000593100

  **** Optimization is complete! (in 8 steps) ****
    Final optimized geometry and variables:
    Molecular point group: c1

    Geometry (in Angstrom), charge = 0, multiplicity = 1:

    H            3.699313249628    -0.970016554724     0.256262501194
    O            2.806536980684    -1.180003910250     0.029930265732
    C            2.080719167174    -0.057108472039    -0.002271663291
    C            0.626880104479    -0.328423477056     0.274976827021
    O            2.548932255901     0.988098461639    -0.288884054671
    C           -0.268929899066     0.887192012109     0.074122694706
    H            0.338699358186    -1.160187977812    -0.356356904868
    H            0.564212010162    -0.696460198382     1.295061488384
    C           -1.731546987109     0.645215375143     0.448791139229
    H           -0.203415884718     1.212754402392    -0.958471038025
    H            0.119788075528     1.703718139113     0.669833888032
    C           -2.474221975682    -0.346397013912    -0.445282854618
    H           -2.250224672644     1.598583337407     0.412018066202
    H           -1.790351857921     0.310859817583     1.482409132850
    C           -3.951315466200    -0.471747901678    -0.085829922328
    H           -2.381255431091    -0.031077567676    -1.481127696922
    H           -2.012790241954    -1.326696763333    -0.381706251123
    H           -4.454243749858    -1.180165039947    -0.733820645030
    H           -4.459234619725     0.482090231023    -0.180476797907
    H           -4.077490969597    -0.811861109140     0.936728549926

  Mulliken Charges: (a.u.)
   Center  Symbol    Alpha    Beta     Spin     Total
       1     H     0.38085  0.38085  0.00000  0.23829
       2     O     4.16617  4.16617  0.00000 -0.33234
       3     C     2.80390  2.80390  0.00000  0.39220
       4     C     3.11145  3.11145  0.00000 -0.22290
       5     O     4.18441  4.18441  0.00000 -0.36883
       6     C     3.09379  3.09379  0.00000 -0.18758
       7     H     0.43642  0.43642  0.00000  0.12715
       8     H     0.44047  0.44047  0.00000  0.11905
       9     C     3.09907  3.09907  0.00000 -0.19813
      10     H     0.44578  0.44578  0.00000  0.10843
      11     H     0.43887  0.43887  0.00000  0.12225
      12     C     3.08671  3.08671  0.00000 -0.17342
      13     H     0.44554  0.44554  0.00000  0.10891
      14     H     0.45424  0.45424  0.00000  0.09151
      15     C     3.14956  3.14956  0.00000 -0.29913
      16     H     0.45243  0.45243  0.00000  0.09514
      17     H     0.45406  0.45406  0.00000  0.09188
      18     H     0.44765  0.44765  0.00000  0.10470
      19     H     0.45365  0.45365  0.00000  0.09269
      20     H     0.45495  0.45495  0.00000  0.09010

   Total alpha = 32.00000, Total beta = 32.00000, Total charge = -0.00000

*** Psi4 exiting successfully. Buy a developer a beer!
