  ==> Input File <==

--------------------------------------------------------------------------
set {
	reference rhf
	basis cc-pvtz
}

set_num_threads( 4 )
memory 2 gb

molecule MOL {
0 1

H	 -3.525828	 0.117825	 -0.670102
O	 -3.100036	 -0.268502	 0.074081
C	 -1.771228	 -0.094630	 0.020832
C	 -1.156563	 0.579874	 -1.026864
C	 -1.015473	 -0.615569	 1.057963
H	 -1.749626	 0.981210	 -1.827884
C	 0.209881	 0.729873	 -1.032028
H	 -1.509237	 -1.132240	 1.856253
C	 0.351789	 -0.456775	 1.037804
H	 0.696109	 1.248190	 -1.834549
C	 0.981121	 0.213562	 0.000000
H	 0.939094	 -0.860520	 1.841906
C	 2.447402	 0.371303	 0.000000
O	 3.227427	 -0.521847	 0.000000
H	 2.796538	 1.409525	 0.000000

	symmetry c1
}
set optking {
	frozen_dihedral = ("
		7 11 13 14
	")
}

ee = optimize('scf')
oeprop('DIPOLE', 'QUADRUPOLE', 'MULLIKEN_CHARGES')
f=open( 'psi4out.xyz', 'w' )
f.write( "15  " )
f.write( str(ee) + "\n" )
f.write( MOL.save_string_xyz() )
f.close()
--------------------------------------------------------------------------

    Molecular point group: c1
  Charge       = 0
  Multiplicity = 1
  Basis Set: CC-PVTZ
  Basis Set:
  @DF-RHF Final Energy:  -418.43056601800652
    Total Energy =                       -418.4305660180069708
    Molecular point group: c1
  Basis Set: CC-PVTZ
  Basis Set:
  Basis Set: CC-PVTZ
  Basis Set:
  @DF-RHF Final Energy:  -418.43042977951779
    Total Energy =                       -418.4304297795179082
  Basis Set: CC-PVTZ
  Basis Set:
  Basis Set: CC-PVTZ
  Basis Set:
  @DF-RHF Final Energy:  -418.43128121409376
    Total Energy =                       -418.4312812140930191
  Basis Set: CC-PVTZ
  Basis Set:
  Basis Set: CC-PVTZ
  Basis Set:
  @DF-RHF Final Energy:  -418.43175268488034
    Total Energy =                       -418.4317526848803936
  Basis Set: CC-PVTZ
  Basis Set:
  Basis Set: CC-PVTZ
  Basis Set:
  @DF-RHF Final Energy:  -418.43176030464923
    Total Energy =                       -418.4317603046492877
  Basis Set: CC-PVTZ
  Basis Set:
  Basis Set: CC-PVTZ
  Basis Set:
  @DF-RHF Final Energy:  -418.43176216800947
    Total Energy =                       -418.4317621680094135
  Basis Set: CC-PVTZ
  Basis Set:
  Charge       = 0
  Multiplicity = 1
  Basis Set: CC-PVTZ
  Basis Set:

    Orbital Energies (a.u.)
    -----------------------

    Doubly Occupied:

       1A    -20.599044     2A    -20.556495     3A    -11.328158
       4A    -11.314931     5A    -11.256098     6A    -11.250686
       7A    -11.241117     8A    -11.240276     9A    -11.234467
      10A     -1.431258    11A     -1.411206    12A     -1.173194
      13A     -1.043236    14A     -1.038502    15A     -0.893221
      16A     -0.860993    17A     -0.805751    18A     -0.758305
      19A     -0.703895    20A     -0.687321    21A     -0.651360
      22A     -0.631182    23A     -0.609847    24A     -0.608800
      25A     -0.593567    26A     -0.563605    27A     -0.539994
      28A     -0.506746    29A     -0.495071    30A     -0.424608
      31A     -0.358972    32A     -0.329226

  @DF-RHF Final Energy:  -418.43176236557332

   => Energetics <=

    Nuclear Repulsion Energy =            401.9155092519444565
    One-Electron Energy =               -1366.4122820985112412
    Two-Electron Energy =                 546.0650104809933509
    DFT Exchange-Correlation Energy =       0.0000000000000000
    Empirical Dispersion Energy =           0.0000000000000000
    PCM Polarization Energy =               0.0000000000000000
    EFP Energy =                            0.0000000000000000
    Total Energy =                       -418.4317623655733769
    Molecular point group: c1
  Basis Set: CC-PVTZ
  Basis Set:

  -Total Gradient:
     Atom            X                  Y                   Z
    ------   -----------------  -----------------  -----------------
       1        0.000014279083    -0.000001614027     0.000004024063
       2       -0.000001429170    -0.000030197399    -0.000013383415
       3       -0.000003239867     0.000078156487     0.000056114270
       4        0.000030555887     0.000010641980    -0.000018206410
       5       -0.000014416633    -0.000059382175    -0.000049128792
       6       -0.000002710494    -0.000002918202     0.000002158754
       7        0.000224930390    -0.006066400436    -0.003112054014
       8        0.000005373967     0.000003300236     0.000004015036
       9       -0.000014786100     0.000090262693     0.000041238575
      10       -0.000000720900     0.000036364541     0.000005574374
      11       -0.000495358058     0.008481493681     0.000812290031
      12       -0.000001443336     0.000003156186     0.000007781812
      13        0.000514431704    -0.002081868509     0.010585047666
      14       -0.000278289668    -0.000455635939    -0.008313648401
      15        0.000022823185    -0.000005359118    -0.000011823549

  **** Optimization is complete! (in 7 steps) ****
    Final optimized geometry and variables:
    Molecular point group: c1

    Geometry (in Angstrom), charge = 0, multiplicity = 1:

    H           -3.520158740193     0.090658810145    -0.722096707170
    O           -3.098334691568    -0.284257004070     0.029992188060
    C           -1.769501354954    -0.082567187910    -0.006192969151
    C           -1.150685637285     0.601872202575    -1.035935834513
    C           -1.016093168076    -0.596017796944     1.039098820990
    H           -1.730378760219     0.986183154254    -1.854886858433
    C            0.218128867525     0.787269459469    -1.007590196919
    H           -1.511503969553    -1.132042753563     1.823971028868
    C            0.348044340882    -0.426448575888     1.041205333830
    H            0.689588798959     1.325127797471    -1.809650705493
    C            0.977984898779     0.290946297559     0.033029411870
    H            0.935243618449    -0.852581077094     1.831588888489
    C            2.463964373232     0.385320373651    -0.026479265361
    O            3.187156442799    -0.550199767594    -0.000775462984
    H            2.872129206452     1.391070697005    -0.174779939373

  Mulliken Charges: (a.u.)
   Center  Symbol    Alpha    Beta     Spin     Total
       1     H     0.38640  0.38640  0.00000  0.22719
       2     O     4.16893  4.16893  0.00000 -0.33786
       3     C     2.85254  2.85254  0.00000  0.29492
       4     C     3.12863  3.12863  0.00000 -0.25727
       5     C     3.09868  3.09868  0.00000 -0.19735
       6     H     0.43226  0.43226  0.00000  0.13548
       7     C     3.08153  3.08153  0.00000 -0.16307
       8     H     0.41684  0.41684  0.00000  0.16633
       9     C     3.07115  3.07115  0.00000 -0.14231
      10     H     0.42274  0.42274  0.00000  0.15452
      11     C     2.97310  2.97310  0.00000  0.05379
      12     H     0.41621  0.41621  0.00000  0.16758
      13     C     2.93253  2.93253  0.00000  0.13493
      14     O     4.16146  4.16146  0.00000 -0.32293
      15     H     0.45698  0.45698  0.00000  0.08604

   Total alpha = 32.00000, Total beta = 32.00000, Total charge =  0.00000
