                              Psi4 1.0.54 Driver

  ==> Input File <==

--------------------------------------------------------------------------
set {
	reference rhf
	basis cc-pvtz
}

set_num_threads( 4 )
memory 2 gb

molecule MOL {
0 1

O	 -1.673167	 1.152298	 0.349595
C	 -1.081510	 0.147522	 0.122720
C	 0.327029	 -0.064006	 0.641890
C	 -1.688557	 -0.959464	 -0.705740
C	 1.349460	 -0.017068	 -0.500215
H	 0.399029	 -1.014606	 1.159950
H	 0.538021	 0.726928	 1.350471
C	 2.779782	 -0.209014	 -0.009215
H	 1.115007	 -0.782959	 -1.233891
H	 1.259071	 0.936707	 -1.006644
H	 3.481860	 -0.160270	 -0.833072
H	 2.903471	 -1.171535	 0.475559
H	 3.052569	 0.559584	 0.705428
H	 -1.006748	 -1.268208	 -1.490323
H	 -2.623249	 -0.632916	 -1.134941
H	 -1.862319	 -1.824408	 -0.073656

	symmetry c1
}
set optking {
	frozen_dihedral = ("
		4 2 3 5
	")
}

ee,wfn = optimize('scf', return_wfn=True)
oeprop( wfn, 'DIPOLE', 'QUADRUPOLE', 'MULLIKEN_CHARGES')
f=open( 'psi4out.xyz', 'w' )
f.write( "16  " )
f.write( str(ee) + "\n" )
f.write( MOL.save_string_xyz() )
f.close()
--------------------------------------------------------------------------

    Molecular point group: c1
  Charge       = 0
  Multiplicity = 1
  Basis Set: CC-PVTZ
  Basis Set:
  @DF-RHF Final Energy:  -270.12841824146437
    Total Energy =                       -270.1284182414644874
    Molecular point group: c1
  Basis Set: CC-PVTZ
  Basis Set:
  Basis Set: CC-PVTZ
  Basis Set:
  @DF-RHF Final Energy:  -270.11085446853951
    Total Energy =                       -270.1108544685396282
  Basis Set: CC-PVTZ
  Basis Set:
  Basis Set: CC-PVTZ
  Basis Set:
  @DF-RHF Final Energy:  -270.12867555627781
    Total Energy =                       -270.1286755562779263
  Basis Set: CC-PVTZ
  Basis Set:
  Basis Set: CC-PVTZ
  Basis Set:
  @DF-RHF Final Energy:  -270.12875360865587
    Total Energy =                       -270.1287536086559271
  Basis Set: CC-PVTZ
  Basis Set:
  @DF-RHF Final Energy:  -270.12887506993150
    Total Energy =                       -270.1288750699315528
  @DF-RHF Final Energy:  -270.12892212423696
    Total Energy =                       -270.1289221242367375
  @DF-RHF Final Energy:  -270.12893130981536
    Total Energy =                       -270.1289313098154707
  @DF-RHF Final Energy:  -270.12893766694140
    Total Energy =                       -270.1289376669415105
  @DF-RHF Final Energy:  -270.12895142755775
    Total Energy =                       -270.1289514275578085
  Basis Set: CC-PVTZ
  Basis Set:
  @DF-RHF Final Energy:  -270.12895121648512
    Total Energy =                       -270.1289512164854614
  Basis Set: CC-PVTZ
  Basis Set:
  Basis Set: CC-PVTZ
  Basis Set:
  @DF-RHF Final Energy:  -270.12896781885729
    Total Energy =                       -270.1289678188574044
  Basis Set: CC-PVTZ
  Basis Set:
  Basis Set: CC-PVTZ
  Basis Set:
  @DF-RHF Final Energy:  -270.12896940552071
    Total Energy =                       -270.1289694055207065
  Basis Set: CC-PVTZ
  Basis Set:
  Charge       = 0
  Multiplicity = 1
  Basis Set: CC-PVTZ
  Basis Set:

    Orbital Energies (a.u.)
    -----------------------

    Doubly Occupied:

       1A    -20.538063     2A    -11.319669     3A    -11.233615
       4A    -11.228740     5A    -11.226537     6A    -11.218995
       7A     -1.397573     8A     -1.085740     9A     -1.012251
      10A     -0.951522    11A     -0.832743    12A     -0.736515
      13A     -0.661189    14A     -0.651727    15A     -0.617962
      16A     -0.608949    17A     -0.577701    18A     -0.555452
      19A     -0.535471    20A     -0.522149    21A     -0.507809
      22A     -0.486258    23A     -0.477036    24A     -0.400981

  @DF-RHF Final Energy:  -270.12896961337583

   => Energetics <=

    Nuclear Repulsion Energy =            237.3670333599043545
    One-Electron Energy =                -836.2227143723730478
    Two-Electron Energy =                 328.7267113990928920
    DFT Exchange-Correlation Energy =       0.0000000000000000
    Empirical Dispersion Energy =           0.0000000000000000
    PCM Polarization Energy =               0.0000000000000000
    EFP Energy =                            0.0000000000000000
    Total Energy =                       -270.1289696133758298
    Molecular point group: c1
  Basis Set: CC-PVTZ
  Basis Set:

  -Total Gradient:
     Atom            X                  Y                   Z
    ------   -----------------  -----------------  -----------------
       1        0.000011844116    -0.000058363229    -0.000017925835
       2       -0.000124936007    -0.000248879326     0.000157734523
       3        0.000058636819     0.000336182380     0.000083866134
       4        0.000093417241     0.000157240634    -0.000121903143
       5       -0.000028707266    -0.000168797041    -0.000078609861
       6       -0.000004368781     0.000000536335    -0.000001380304
       7        0.000002683623    -0.000008092338    -0.000009018757
       8        0.000005647921    -0.000013302702    -0.000010454890
       9        0.000021113032     0.000011679120     0.000029568845
      10        0.000006444922    -0.000030615581    -0.000011187903
      11        0.000002912352    -0.000002031315    -0.000000512071
      12       -0.000010744633     0.000018971704    -0.000002008007
      13       -0.000019877992    -0.000005956144    -0.000022591624
      14        0.000017858501     0.000023137901    -0.000002181915
      15       -0.000029432557     0.000005930413    -0.000003270193
      16       -0.000002491292    -0.000017640809     0.000009875002

  **** Optimization is complete! (in 13 steps) ****
    Final optimized geometry and variables:
    Molecular point group: c1

    Geometry (in Angstrom), charge = 0, multiplicity = 1:

    O           -1.695564735945     0.977763684430     0.670037433806
    C           -1.097667326663     0.085113236191     0.162808533258
    C            0.317715457730    -0.251563015947     0.588558952075
    C           -1.719970629111    -0.748339212521    -0.934926672174
    C            1.367159180257     0.099048067622    -0.472700079941
    H            0.375750089118    -1.312903672164     0.814015558935
    H            0.515356772970     0.296834727776     1.499635405404
    C            2.788007021326    -0.160653207898     0.015730396926
    H            1.189932599670    -0.475571826970    -1.375299549049
    H            1.262798720170     1.144955477154    -0.743015080072
    H            3.513361959610     0.094390926628    -0.747660906131
    H            2.928805980153    -1.205247152723     0.271982593186
    H            3.011249755134     0.429749879597     0.897135252477
    H           -1.181684653400    -0.604752343387    -1.864670313005
    H           -2.749982936180    -0.456694150020    -1.070807408469
    H           -1.664448694593    -1.802823419366    -0.688628341629

  Mulliken Charges: (a.u.)
   Center  Symbol    Alpha    Beta     Spin     Total
       1     O     4.17252  4.17252  0.00000 -0.34505
       2     C     2.85808  2.85808  0.00000  0.28384
       3     C     3.09522  3.09522  0.00000 -0.19043
       4     C     3.15897  3.15897  0.00000 -0.31794
       5     C     3.09740  3.09740  0.00000 -0.19479
       6     H     0.45015  0.45015  0.00000  0.09969
       7     H     0.43889  0.43889  0.00000  0.12221
       8     C     3.14820  3.14820  0.00000 -0.29641
       9     H     0.45146  0.45146  0.00000  0.09708
      10     H     0.44453  0.44453  0.00000  0.11093
      11     H     0.44617  0.44617  0.00000  0.10765
      12     H     0.45455  0.45455  0.00000  0.09091
      13     H     0.45063  0.45063  0.00000  0.09874
      14     H     0.44912  0.44912  0.00000  0.10176
      15     H     0.43381  0.43381  0.00000  0.13238
      16     H     0.45029  0.45029  0.00000  0.09942

   Total alpha = 24.00000, Total beta = 24.00000, Total charge = -0.00000

*** Psi4 exiting successfully. Buy a developer a beer!
