  ==> Input File <==

--------------------------------------------------------------------------
set {
	reference rhf
	basis 6-31G*
}

set_num_threads( 1 )
memory 2 gb

molecule MOL {
0 1

O	 1.055560	 4.192703	 -1.026088
C	 0.058862	 4.534587	 -1.585074
C	 -1.206828	 3.696319	 -1.568537
C	 -0.007106	 5.838500	 -2.353590
C	 -1.080693	 2.395291	 -0.781357
H	 -2.009689	 4.313067	 -1.166760
H	 -1.487093	 3.495532	 -2.601754
C	 -2.374195	 1.578845	 -0.787037
H	 -0.792842	 2.623915	 0.239918
H	 -0.269832	 1.805314	 -1.196783
C	 -2.259874	 0.272531	 0.000494
H	 -3.183846	 2.177650	 -0.372377
H	 -2.657975	 1.354452	 -1.814258
C	 -3.549786	 -0.549746	 -0.000374
H	 -1.976921	 0.495686	 1.027703
H	 -1.451367	 -0.327267	 -0.413698
C	 -4.809590	 0.315458	 -0.000369
H	 -3.560515	 -1.202009	 -0.871156
H	 -3.561123	 -1.202955	 0.869711
H	 -4.844746	 0.956611	 -0.876632
H	 -5.706986	 -0.295590	 -0.001609
H	 -4.845960	 0.954827	 0.877144
H	 -0.785219	 6.478540	 -1.947996
H	 0.945582	 6.346040	 -2.293402
H	 -0.253413	 5.652263	 -3.394880

	symmetry c1
}
set optking {
	frozen_dihedral = ("
		9 5 8 12,
		15 11 8 12,
		1 2 3 6,
		9 5 3 6
	")
}

ee = energy('scf')
oeprop('DIPOLE', 'QUADRUPOLE', 'MULLIKEN_CHARGES')
f=open( 'psi4out.xyz', 'w' )
f.write( "25  " )
f.write( str(ee) + "\n" )
f.write( MOL.save_string_xyz() )
f.close()
--------------------------------------------------------------------------

    Molecular point group: c1

    Geometry (in Angstrom), charge = 0, multiplicity = 1:

       Center              X                  Y                   Z               Mass
    ------------   -----------------  -----------------  -----------------  -----------------
           O          2.636842003241     1.711183628089    -0.125618913108    15.994914619560
           C          1.640144003241     2.053067628089    -0.684604913108    12.000000000000
           C          0.374454003241     1.214799628089    -0.668067913108    12.000000000000
           C          1.574176003241     3.356980628089    -1.453120913108    12.000000000000
           C          0.500589003241    -0.086228371911     0.119112086892    12.000000000000
           H         -0.428406996759     1.831547628089    -0.266290913108     1.007825032070
           H          0.094189003241     1.014012628089    -1.701284913108     1.007825032070
           C         -0.792912996759    -0.902674371911     0.113432086892    12.000000000000
           H          0.788440003241     0.142395628089     1.140387086892     1.007825032070
           H          1.311450003241    -0.676205371911    -0.296313913108     1.007825032070
           C         -0.678591996759    -2.208988371911     0.900963086892    12.000000000000
           H         -1.602563996759    -0.303869371911     0.528092086892     1.007825032070
           H         -1.076692996759    -1.127067371911    -0.913788913108     1.007825032070
           C         -1.968503996759    -3.031265371911     0.900095086892    12.000000000000
           H         -0.395638996759    -1.985833371911     1.928172086892     1.007825032070
           H          0.129915003241    -2.808786371911     0.486771086892     1.007825032070
           C         -3.228307996759    -2.166061371911     0.900100086892    12.000000000000
           H         -1.979232996759    -3.683528371911     0.029313086892     1.007825032070
           H         -1.979840996759    -3.684474371911     1.770180086892     1.007825032070
           H         -3.263463996759    -1.524908371911     0.023837086892     1.007825032070
           H         -4.125703996759    -2.777109371911     0.898860086892     1.007825032070
           H         -3.264677996759    -1.526692371911     1.777613086892     1.007825032070
           H          0.796063003241     3.997020628089    -1.047526913108     1.007825032070
           H          2.526864003241     3.864520628089    -1.392932913108     1.007825032070
           H          1.327869003241     3.170743628089    -2.494410913108     1.007825032070

  Charge       = 0
  Multiplicity = 1
  Basis Set: 6-31G*
  Basis Set:

    Orbital Energies (a.u.)
    -----------------------

    Doubly Occupied:

       1A    -20.550273     2A    -11.326123     3A    -11.231619
       4A    -11.228242     5A    -11.216235     6A    -11.215472
       7A    -11.214960     8A    -11.212971     9A    -11.208388
      10A     -1.395579    11A     -1.095382    12A     -1.056883
      13A     -1.012483    14A     -0.964376    15A     -0.898269
      16A     -0.828055    17A     -0.771943    18A     -0.729155
      19A     -0.659936    20A     -0.652626    21A     -0.628686
      22A     -0.624059    23A     -0.605714    24A     -0.592012
      25A     -0.562218    26A     -0.555682    27A     -0.548716
      28A     -0.522066    29A     -0.510270    30A     -0.493427
      31A     -0.489581    32A     -0.476742    33A     -0.458902
      34A     -0.452348    35A     -0.451923    36A     -0.399358

  @DF-RHF Final Energy:  -387.12928790762635

   => Energetics <=

    Nuclear Repulsion Energy =            445.7557867894541914
    One-Electron Energy =               -1408.0890099437390290
    Two-Electron Energy =                 575.2039352466571245
    DFT Exchange-Correlation Energy =       0.0000000000000000
    Empirical Dispersion Energy =           0.0000000000000000
    PCM Polarization Energy =               0.0000000000000000
    EFP Energy =                            0.0000000000000000
    Total Energy =                       -387.1292879076277131

  Mulliken Charges: (a.u.)
   Center  Symbol    Alpha    Beta     Spin     Total
       1     O     4.26119  4.26119  0.00000 -0.52238
       2     C     2.73569  2.73569  0.00000  0.52862
       3     C     3.21080  3.21080  0.00000 -0.42159
       4     C     3.28662  3.28662  0.00000 -0.57323
       5     C     3.14637  3.14637  0.00000 -0.29273
       6     H     0.41017  0.41017  0.00000  0.17966
       7     H     0.41022  0.41022  0.00000  0.17956
       8     C     3.16100  3.16100  0.00000 -0.32201
       9     H     0.41237  0.41237  0.00000  0.17526
      10     H     0.41258  0.41258  0.00000  0.17484
      11     C     3.15264  3.15264  0.00000 -0.30528
      12     H     0.41997  0.41997  0.00000  0.16005
      13     H     0.42503  0.42503  0.00000  0.14994
      14     C     3.15193  3.15193  0.00000 -0.30385
      15     H     0.42185  0.42185  0.00000  0.15629
      16     H     0.41992  0.41992  0.00000  0.16016
      17     C     3.24621  3.24621  0.00000 -0.49241
      18     H     0.42238  0.42238  0.00000  0.15524
      19     H     0.41984  0.41984  0.00000  0.16033
      20     H     0.41867  0.41867  0.00000  0.16266
      21     H     0.41859  0.41859  0.00000  0.16283
      22     H     0.42199  0.42199  0.00000  0.15602
      23     H     0.40877  0.40877  0.00000  0.18246
      24     H     0.39648  0.39648  0.00000  0.20704
      25     H     0.40873  0.40873  0.00000  0.18253

   Total alpha = 36.00000, Total beta = 36.00000, Total charge = -0.00000
