  ==> Input File <==

--------------------------------------------------------------------------
set {
	reference rhf
	basis 6-31G*
}

set_num_threads( 4 )
memory 2 gb

molecule MOL {
0 1

O	 -2.439739	 -0.935931	 -0.423848
C	 -1.921153	 0.064240	 -0.045697
C	 -2.624470	 1.379923	 0.150949
O	 -0.632575	 0.154573	 0.251549
H	 -2.168117	 2.136577	 -0.476876
H	 -3.669540	 1.273223	 -0.098610
H	 -2.519365	 1.700893	 1.180846
C	 0.160891	 -1.019931	 0.106212
C	 1.589627	 -0.672828	 0.480843
H	 0.089836	 -1.367806	 -0.916050
H	 -0.238459	 -1.792301	 0.749618
C	 2.246377	 0.346236	 -0.452210
H	 2.163194	 -1.597435	 0.473358
H	 1.604769	 -0.303424	 1.502885
C	 2.423579	 1.714117	 0.205438
H	 3.216595	 -0.031143	 -0.769007
H	 1.646278	 0.449488	 -1.350308
H	 2.889920	 2.418552	 -0.475979
H	 3.049037	 1.647386	 1.091230
H	 1.466823	 2.130602	 0.507494

	symmetry c1
}
set optking {
	frozen_dihedral = ("
		16 12 9 8
	")
}

ee = optimize('scf')
oeprop('DIPOLE', 'QUADRUPOLE', 'MULLIKEN_CHARGES')
f=open( 'psi4out.xyz', 'w' )
f.write( "20  " )
f.write( str(ee) + "\n" )
f.write( MOL.save_string_xyz() )
f.close()
--------------------------------------------------------------------------

    Molecular point group: c1
  Charge       = 0
  Multiplicity = 1
  Basis Set: 6-31G*
  Basis Set:
  @DF-RHF Final Energy:  -383.94073393389158
    Total Energy =                       -383.9407339338912379
    Molecular point group: c1
  Basis Set: 6-31G*
  Basis Set:
  Basis Set: 6-31G*
  Basis Set:
  @DF-RHF Final Energy:  -383.94092862982353
    Total Energy =                       -383.9409286298235884
  Basis Set: 6-31G*
  Basis Set:
  Basis Set: 6-31G*
  Basis Set:
  @DF-RHF Final Energy:  -383.94092390177883
    Total Energy =                       -383.9409239017788877
  Basis Set: 6-31G*
  Basis Set:
  Basis Set: 6-31G*
  Basis Set:
  @DF-RHF Final Energy:  -383.94111400646949
    Total Energy =                       -383.9411140064694337
  Basis Set: 6-31G*
  Basis Set:
  Basis Set: 6-31G*
  Basis Set:
  @DF-RHF Final Energy:  -383.94111532500176
    Total Energy =                       -383.9411153250014195
  Basis Set: 6-31G*
  Basis Set:
  Charge       = 0
  Multiplicity = 1
  Basis Set: 6-31G*
  Basis Set:

    Orbital Energies (a.u.)
    -----------------------

    Doubly Occupied:

       1A    -20.602390     2A    -20.544591     3A    -11.374982
       4A    -11.282613     5A    -11.233834     6A    -11.225476
       7A    -11.221258     8A    -11.210009     9A     -1.468354
      10A     -1.362651    11A     -1.083751    12A     -1.026963
      13A     -0.980844    14A     -0.881908    15A     -0.807840
      16A     -0.776862    17A     -0.690853    18A     -0.684897
      19A     -0.666970    20A     -0.618474    21A     -0.604773
      22A     -0.595578    23A     -0.574664    24A     -0.554257
      25A     -0.537917    26A     -0.532745    27A     -0.511426
      28A     -0.480196    29A     -0.475620    30A     -0.467871
      31A     -0.449837    32A     -0.438500

  @DF-RHF Final Energy:  -383.94111607239535

   => Energetics <=

    Nuclear Repulsion Energy =            391.3110389103355260
    One-Electron Energy =               -1298.5665069819647215
    Two-Electron Energy =                 523.3143519992336223
    DFT Exchange-Correlation Energy =       0.0000000000000000
    Empirical Dispersion Energy =           0.0000000000000000
    PCM Polarization Energy =               0.0000000000000000
    EFP Energy =                            0.0000000000000000
    Total Energy =                       -383.9411160723955163
    Molecular point group: c1
  Basis Set: 6-31G*
  Basis Set:

  -Total Gradient:
     Atom            X                  Y                   Z
    ------   -----------------  -----------------  -----------------
       1       -0.000006892191     0.000003052029    -0.000005969982
       2        0.000000317930    -0.000001469826    -0.000000033325
       3        0.000001316712    -0.000002996128     0.000001412362
       4       -0.000017273533    -0.000012717204     0.000045859395
       5       -0.000001124962     0.000008552205    -0.000003269314
       6        0.000000054235    -0.000000025211    -0.000001704623
       7        0.000003877995    -0.000008313299    -0.000006119922
       8        0.000448271578    -0.000963897301    -0.000864922441
       9       -0.000804699118     0.001180146621     0.000806707958
      10        0.000000541672    -0.000018600153    -0.000005103101
      11        0.000009214621     0.000019069304     0.000010535722
      12        0.001192369472     0.000573761677     0.001451877529
      13       -0.000005237804     0.000003652569     0.000000964552
      14        0.000007202005     0.000006660238     0.000003276317
      15       -0.000007182822     0.000019674476     0.000017338143
      16       -0.000819976923    -0.000779409066    -0.001432141646
      17       -0.000010056572     0.000000026633    -0.000004640746
      18        0.000000171308    -0.000013944453    -0.000010425291
      19        0.000002889912    -0.000003876976    -0.000000961789
      20        0.000006216484    -0.000009346133    -0.000002679797

  **** Optimization is complete! (in 6 steps) ****
    Final optimized geometry and variables:
    Molecular point group: c1

    Geometry (in Angstrom), charge = 0, multiplicity = 1:

    O           -2.277220292684    -1.070851263362    -0.453240306298
    C           -1.750289005149    -0.071203115499    -0.085482160994
    C           -2.442577101360     1.252318389517     0.097539637507
    O           -0.462203245475     0.009298869031     0.217486471544
    H           -1.978145780114     1.999208189657    -0.536034743545
    H           -3.487884390420     1.152332849257    -0.153819147980
    H           -2.337316181776     1.581499202925     1.124856454679
    C            0.321736706964    -1.173752750418     0.085961878552
    C            1.755457822793    -0.830738881982     0.443505127621
    H            0.243028300853    -1.535110275669    -0.930695001262
    H           -0.079103535452    -1.933720459366     0.743355865884
    C            2.400338576344     0.223429523670    -0.481918301203
    H            2.316985186454    -1.760301695417     0.401301669131
    H            1.790793887063    -0.498929045335     1.477016326460
    C            2.571108054206     1.592778678157     0.174781216192
    H            3.364914613505    -0.136750969251    -0.827021632169
    H            1.793609604951     0.335153319276    -1.376617994674
    H            3.008227087636     2.306055819662    -0.517391893859
    H            3.223209554523     1.531325062452     1.041584657385
    H            1.615096829293     1.985366177812     0.504239290089

  Mulliken Charges: (a.u.)
   Center  Symbol    Alpha    Beta     Spin     Total
       1     O     4.28306  4.28306  0.00000 -0.56612
       2     C     2.61933  2.61933  0.00000  0.76134
       3     C     3.28188  3.28188  0.00000 -0.56375
       4     O     4.30838  4.30838  0.00000 -0.61676
       5     H     0.40066  0.40066  0.00000  0.19867
       6     H     0.39674  0.39674  0.00000  0.20652
       7     H     0.40052  0.40052  0.00000  0.19897
       8     C     3.00446  3.00446  0.00000 -0.00893
       9     C     3.16824  3.16824  0.00000 -0.33648
      10     H     0.41010  0.41010  0.00000  0.17981
      11     H     0.40923  0.40923  0.00000  0.18154
      12     C     3.15515  3.15515  0.00000 -0.31031
      13     H     0.41533  0.41533  0.00000  0.16934
      14     H     0.41222  0.41222  0.00000  0.17556
      15     C     3.24087  3.24087  0.00000 -0.48175
      16     H     0.41900  0.41900  0.00000  0.16200
      17     H     0.41759  0.41759  0.00000  0.16482
      18     H     0.42068  0.42068  0.00000  0.15863
      19     H     0.42247  0.42247  0.00000  0.15506
      20     H     0.41408  0.41408  0.00000  0.17184

   Total alpha = 32.00000, Total beta = 32.00000, Total charge =  0.00000
