  ==> Input File <==

--------------------------------------------------------------------------
set {
	reference rhf
	basis 6-31G*
}

set_num_threads( 4 )
memory 2 gb

molecule MOL {
0 1

H	 -1.836216	 1.387520	 -0.000064
C	 -1.301823	 0.443321	 -0.000031
O	 -0.003969	 0.658512	 0.000451
O	 -1.829879	 -0.616434	 -0.000857
C	 0.850537	 -0.484732	 0.000380
C	 0.398674	 -1.389180	 -1.125726
H	 0.778486	 -0.973823	 0.962106
H	 1.872310	 -0.156783	 -0.132750
H	 -0.629145	 -1.701195	 -0.979892
H	 1.024927	 -2.274522	 -1.160510
H	 0.469912	 -0.880337	 -2.080132

	symmetry c1
}
set optking {
	frozen_dihedral = ("
		7 5 3 2
	")
}

ee = optimize('scf')
oeprop('DIPOLE', 'QUADRUPOLE', 'MULLIKEN_CHARGES')
f=open( 'psi4out.xyz', 'w' )
f.write( "11  " )
f.write( str(ee) + "\n" )
f.write( MOL.save_string_xyz() )
f.close()
--------------------------------------------------------------------------

    Molecular point group: c1
  Charge       = 0
  Multiplicity = 1
  Basis Set: 6-31G*
  Basis Set:
  @DF-RHF Final Energy:  -266.81200560924140
    Total Energy =                       -266.8120056092416235
    Molecular point group: c1
  Basis Set: 6-31G*
  Basis Set:
  Basis Set: 6-31G*
  Basis Set:
  @DF-RHF Final Energy:  -266.82322523950808
    Total Energy =                       -266.8232252395082469
  Basis Set: 6-31G*
  Basis Set:
  Basis Set: 6-31G*
  Basis Set:
  @DF-RHF Final Energy:  -266.82416667857945
    Total Energy =                       -266.8241666785794450
  Basis Set: 6-31G*
  Basis Set:
  Basis Set: 6-31G*
  Basis Set:
  @DF-RHF Final Energy:  -266.81576789084068
    Total Energy =                       -266.8157678908406751
  Basis Set: 6-31G*
  Basis Set:
  Basis Set: 6-31G*
  Basis Set:
  @DF-RHF Final Energy:  -266.82515273769911
    Total Energy =                       -266.8251527376991135
  Basis Set: 6-31G*
  Basis Set:
  Basis Set: 6-31G*
  Basis Set:
  @DF-RHF Final Energy:  -266.82534074992122
    Total Energy =                       -266.8253407499212244
  Basis Set: 6-31G*
  Basis Set:
  Basis Set: 6-31G*
  Basis Set:
  @DF-RHF Final Energy:  -266.82534446087482
    Total Energy =                       -266.8253444608748737
  Basis Set: 6-31G*
  Basis Set:
  Charge       = 0
  Multiplicity = 1
  Basis Set: 6-31G*
  Basis Set:

    Orbital Energies (a.u.)
    -----------------------

    Doubly Occupied:

       1A    -20.612137     2A    -20.556413     3A    -11.378951
       4A    -11.294290     5A    -11.221490     6A     -1.473879
       7A     -1.374066     8A     -1.048173     9A     -0.915784
      10A     -0.795872    11A     -0.736489    12A     -0.683458
      13A     -0.657059    14A     -0.623724    15A     -0.575860
      16A     -0.543834    17A     -0.530864    18A     -0.502039
      19A     -0.458416    20A     -0.449468

  @DF-RHF Final Energy:  -266.82534489667114

   => Energetics <=

    Nuclear Repulsion Energy =            182.7732831437840275
    One-Electron Energy =                -726.3327237416069693
    Two-Electron Energy =                 276.7340957011516593
    DFT Exchange-Correlation Energy =       0.0000000000000000
    Empirical Dispersion Energy =           0.0000000000000000
    PCM Polarization Energy =               0.0000000000000000
    EFP Energy =                            0.0000000000000000
    Total Energy =                       -266.8253448966712540
    Molecular point group: c1
  Basis Set: 6-31G*
  Basis Set:

  -Total Gradient:
     Atom            X                  Y                   Z
    ------   -----------------  -----------------  -----------------
       1       -0.000005449327     0.000004969432     0.000017418470
       2       -0.000183647877    -0.000021795799    -0.004806656814
       3        0.001275061950     0.000661085998     0.007360993475
       4        0.000017673314     0.000009759285     0.000005726829
       5       -0.005233315659    -0.003491734590    -0.004241923104
       6       -0.000014461273     0.000025113596     0.000004585219
       7        0.004156302989     0.002806501278     0.001643552175
       8        0.000001658272    -0.000011098462     0.000002453071
       9       -0.000010840759     0.000007375600     0.000011631460
      10        0.000001003904     0.000010582021     0.000006489375
      11       -0.000003985532    -0.000000758359    -0.000004270158

  **** Optimization is complete! (in 8 steps) ****
    Final optimized geometry and variables:
    Molecular point group: c1

    Geometry (in Angstrom), charge = 0, multiplicity = 1:

    H           -1.362802842337     1.794211830173     0.186043801333
    C           -0.920375489026     0.805888723949     0.256887770372
    O            0.389986459177     0.902662404223     0.200827442931
    O           -1.551203863204    -0.187852252005     0.386817838701
    C            1.196658370626    -0.277570810613     0.162480974679
    C            0.894093781475    -1.212991526552    -0.994333009360
    H            1.144107639565    -0.764205146914     1.127618932640
    H            2.197373387438     0.117230800773     0.060964815901
    H           -0.063592145814    -1.698748194673    -0.886969257785
    H            1.667889993875    -1.973411095219    -1.035840401920
    H            0.910912421274    -0.667342617973    -1.932173958955

  Mulliken Charges: (a.u.)
   Center  Symbol    Alpha    Beta     Spin     Total
       1     H     0.41165  0.41165  0.00000  0.17670
       2     C     2.72550  2.72550  0.00000  0.54899
       3     O     4.29488  4.29488  0.00000 -0.58976
       4     O     4.26408  4.26408  0.00000 -0.52817
       5     C     3.00194  3.00194  0.00000 -0.00388
       6     C     3.26405  3.26405  0.00000 -0.52811
       7     H     0.40877  0.40877  0.00000  0.18247
       8     H     0.40780  0.40780  0.00000  0.18439
       9     H     0.39125  0.39125  0.00000  0.21749
      10     H     0.41615  0.41615  0.00000  0.16770
      11     H     0.41391  0.41391  0.00000  0.17217

   Total alpha = 20.00000, Total beta = 20.00000, Total charge =  0.00000
