  ==> Input File <==

--------------------------------------------------------------------------
set {
	reference rhf
	basis 6-31G*
}

set_num_threads( 4 )
memory 2 gb

molecule MOL {
0 1

O	 -1.276010	 1.052711	 -0.768302
C	 -1.204840	 0.067374	 -0.106123
C	 -2.388195	 -0.672128	 0.458071
O	 -0.067104	 -0.527208	 0.221609
H	 -2.388023	 -1.694060	 0.097175
H	 -3.300579	 -0.174919	 0.164318
H	 -2.315377	 -0.706351	 1.539059
C	 1.170111	 0.034140	 -0.238951
C	 1.920573	 -1.103580	 -0.908269
C	 1.927428	 0.639255	 0.932779
H	 0.937160	 0.803755	 -0.960016
H	 1.340527	 -1.516195	 -1.725914
H	 2.865399	 -0.746160	 -1.304361
H	 2.124593	 -1.898236	 -0.198655
H	 2.875388	 1.045464	 0.594576
H	 1.358247	 1.441689	 1.384563
H	 2.128396	 -0.116603	 1.685307

	symmetry c1
}
set optking {
	frozen_dihedral = ("
		11 8 4 2
	")
}

ee = optimize('scf')
oeprop('DIPOLE', 'QUADRUPOLE', 'MULLIKEN_CHARGES')
f=open( 'psi4out.xyz', 'w' )
f.write( "17  " )
f.write( str(ee) + "\n" )
f.write( MOL.save_string_xyz() )
f.close()
--------------------------------------------------------------------------

    Molecular point group: c1
  Charge       = 0
  Multiplicity = 1
  Basis Set: 6-31G*
  Basis Set:
  @DF-RHF Final Energy:  -344.91339275377885
    Total Energy =                       -344.9133927537789077
    Molecular point group: c1
  Basis Set: 6-31G*
  Basis Set:
  Basis Set: 6-31G*
  Basis Set:
  @DF-RHF Final Energy:  -344.91337873128089
    Total Energy =                       -344.9133787312810000
  Basis Set: 6-31G*
  Basis Set:
  Basis Set: 6-31G*
  Basis Set:
  @DF-RHF Final Energy:  -344.91218142994524
    Total Energy =                       -344.9121814299454627
  Basis Set: 6-31G*
  Basis Set:
  Basis Set: 6-31G*
  Basis Set:
  @DF-RHF Final Energy:  -344.91371169525013
    Total Energy =                       -344.9137116952499014
  Basis Set: 6-31G*
  Basis Set:
  Basis Set: 6-31G*
  Basis Set:
  @DF-RHF Final Energy:  -344.91372616165114
    Total Energy =                       -344.9137261616511410
  Basis Set: 6-31G*
  Basis Set:
  Charge       = 0
  Multiplicity = 1
  Basis Set: 6-31G*
  Basis Set:

    Orbital Energies (a.u.)
    -----------------------

    Doubly Occupied:

       1A    -20.598304     2A    -20.542568     3A    -11.375213
       4A    -11.288648     5A    -11.232104     6A    -11.219608
       7A    -11.218581     8A     -1.464190     9A     -1.361710
      10A     -1.078949    11A     -1.004901    12A     -0.948776
      13A     -0.848008    14A     -0.768480    15A     -0.692194
      16A     -0.664312    17A     -0.660594    18A     -0.612955
      19A     -0.586764    20A     -0.578618    21A     -0.566312
      22A     -0.551649    23A     -0.534431    24A     -0.522701
      25A     -0.502501    26A     -0.482497    27A     -0.443499
      28A     -0.437016

  @DF-RHF Final Energy:  -344.91372653001559

   => Energetics <=

    Nuclear Repulsion Energy =            321.7794160843793065
    One-Electron Energy =               -1107.8141189866557852
    Two-Electron Energy =                 441.1209763722608841
    DFT Exchange-Correlation Energy =       0.0000000000000000
    Empirical Dispersion Energy =           0.0000000000000000
    PCM Polarization Energy =               0.0000000000000000
    EFP Energy =                            0.0000000000000000
    Total Energy =                       -344.9137265300155377
    Molecular point group: c1
  Basis Set: 6-31G*
  Basis Set:

  -Total Gradient:
     Atom            X                  Y                   Z
    ------   -----------------  -----------------  -----------------
       1        0.000009793393     0.000000731571    -0.000009616865
       2       -0.000059257008    -0.000466461629    -0.000607627853
       3       -0.000028669063    -0.000015510924    -0.000034213822
       4        0.000043872599     0.000784129513     0.001088407813
       5       -0.000001952106     0.000002606326     0.000013374519
       6       -0.000011179719    -0.000004918722     0.000008262168
       7       -0.000000304809     0.000008792089     0.000002005545
       8       -0.000027763502    -0.000951381253    -0.001112948972
       9        0.000012461311     0.000009773987     0.000013396046
      10        0.000040491701    -0.000004269366    -0.000033731579
      11        0.000016101185     0.000626723340     0.000665241125
      12       -0.000000657729     0.000013422283     0.000006720589
      13       -0.000002801674    -0.000000699180     0.000002691668
      14       -0.000000273892    -0.000008579683     0.000002602089
      15        0.000018122084     0.000008043199     0.000011291747
      16       -0.000004675611    -0.000004078877    -0.000013368723
      17       -0.000003307157     0.000001677328    -0.000002485494

  **** Optimization is complete! (in 6 steps) ****
    Final optimized geometry and variables:
    Molecular point group: c1

    Geometry (in Angstrom), charge = 0, multiplicity = 1:

    O           -1.306083726556     1.145435059193    -0.691196840094
    C           -1.219915295018     0.151070254524    -0.045401929858
    C           -2.392304110589    -0.597953221145     0.529734157394
    O           -0.076987448416    -0.444102938546     0.266760908075
    H           -2.396832444396    -1.614869034082     0.154893963078
    H           -3.310389323644    -0.098338801986     0.258789768162
    H           -2.300312852967    -0.646655989300     1.608660270960
    C            1.165942058220     0.096194610946    -0.203747342512
    C            1.929357137611    -1.043472944603    -0.856272471738
    C            1.895184340104     0.703393157486     0.984085462099
    H            0.945230129293     0.865319944247    -0.926065142677
    H            1.368365236722    -1.451954334224    -1.689380166125
    H            2.885201257888    -0.690315176271    -1.229476747433
    H            2.112217929319    -1.840389862766    -0.143282677349
    H            2.849442610255     1.114811723523     0.670968278345
    H            1.309013161023     1.503586783918     1.422091446870
    H            2.077652632621    -0.046987015514     1.746183715897

  Mulliken Charges: (a.u.)
   Center  Symbol    Alpha    Beta     Spin     Total
       1     O     4.28422  4.28422  0.00000 -0.56844
       2     C     2.61815  2.61815  0.00000  0.76371
       3     C     3.28233  3.28233  0.00000 -0.56467
       4     O     4.31380  4.31380  0.00000 -0.62759
       5     H     0.40101  0.40101  0.00000  0.19798
       6     H     0.39739  0.39739  0.00000  0.20522
       7     H     0.40081  0.40081  0.00000  0.19838
       8     C     2.93573  2.93573  0.00000  0.12854
       9     C     3.24099  3.24099  0.00000 -0.48199
      10     C     3.24318  3.24318  0.00000 -0.48636
      11     H     0.39298  0.39298  0.00000  0.21404
      12     H     0.41273  0.41273  0.00000  0.17453
      13     H     0.41794  0.41794  0.00000  0.16412
      14     H     0.41444  0.41444  0.00000  0.17111
      15     H     0.41825  0.41825  0.00000  0.16351
      16     H     0.41080  0.41080  0.00000  0.17840
      17     H     0.41525  0.41525  0.00000  0.16950

   Total alpha = 28.00000, Total beta = 28.00000, Total charge =  0.00000
