  ==> Input File <==

--------------------------------------------------------------------------
set {
	reference rhf
	basis 6-31G*
}

set_num_threads( 1 )
memory 2 gb

molecule MOL {
0 1

H	 1.199372	 -0.394603	 -1.258070
O	 1.654024	 -0.625927	 -0.460906
C	 1.135793	 0.118896	 0.612333
C	 0.031547	 1.023609	 0.088541
H	 1.915668	 0.729681	 1.063582
H	 0.754543	 -0.542641	 1.387006
C	 -1.134819	 0.293262	 -0.585751
H	 0.474374	 1.714721	 -0.623187
H	 -0.338529	 1.620940	 0.920081
C	 -1.917817	 -0.639439	 0.339494
H	 -0.758119	 -0.268455	 -1.433105
H	 -1.813832	 1.041889	 -0.986690
H	 -2.777680	 -1.057197	 -0.174994
H	 -1.310268	 -1.471279	 0.680599
H	 -2.283753	 -0.111424	 1.216626

	symmetry c1
}
set optking {
	frozen_dihedral = ("
		8 4 7 11,
		2 3 4 8
	")
}

ee = energy('scf')
oeprop('DIPOLE', 'QUADRUPOLE', 'MULLIKEN_CHARGES')
f=open( 'psi4out.xyz', 'w' )
f.write( "15  " )
f.write( str(ee) + "\n" )
f.write( MOL.save_string_xyz() )
f.close()
--------------------------------------------------------------------------

    Molecular point group: c1

    Geometry (in Angstrom), charge = 0, multiplicity = 1:

       Center              X                  Y                   Z               Mass
    ------------   -----------------  -----------------  -----------------  -----------------
           H          1.214822198508    -0.405616318905    -1.242967312238     1.007825032070
           O          1.669474198508    -0.636940318905    -0.445803312238    15.994914619560
           C          1.151243198508     0.107882681095     0.627435687762    12.000000000000
           C          0.046997198508     1.012595681095     0.103643687762    12.000000000000
           H          1.931118198508     0.718667681095     1.078684687762     1.007825032070
           H          0.769993198508    -0.553654318905     1.402108687762     1.007825032070
           C         -1.119368801492     0.282248681095    -0.570648312238    12.000000000000
           H          0.489824198508     1.703707681095    -0.608084312238     1.007825032070
           H         -0.323078801492     1.609926681095     0.935183687762     1.007825032070
           C         -1.902366801492    -0.650452318905     0.354596687762    12.000000000000
           H         -0.742668801492    -0.279468318905    -1.418002312238     1.007825032070
           H         -1.798381801492     1.030875681095    -0.971587312238     1.007825032070
           H         -2.762229801492    -1.068210318905    -0.159891312238     1.007825032070
           H         -1.294817801492    -1.482292318905     0.695701687762     1.007825032070
           H         -2.268302801492    -0.122437318905     1.231728687762     1.007825032070

  Charge       = 0
  Multiplicity = 1
  Basis Set: 6-31G*
  Basis Set:

    Orbital Energies (a.u.)
    -----------------------

    Doubly Occupied:

       1A    -20.548557     2A    -11.267260     3A    -11.228052
       4A    -11.223680     5A    -11.215231     6A     -1.358781
       7A     -1.075403     8A     -0.976583     9A     -0.884758
      10A     -0.792299    11A     -0.673433    12A     -0.652152
      13A     -0.636148    14A     -0.587068    15A     -0.574882
      16A     -0.551592    17A     -0.503951    18A     -0.483520
      19A     -0.482994    20A     -0.456296    21A     -0.431073

  @DF-RHF Final Energy:  -232.13819176697439

   => Energetics <=

    Nuclear Repulsion Energy =            193.1674947900763755
    One-Electron Energy =                -697.4039486919909905
    Two-Electron Energy =                 272.0982621349404553
    DFT Exchange-Correlation Energy =       0.0000000000000000
    Empirical Dispersion Energy =           0.0000000000000000
    PCM Polarization Energy =               0.0000000000000000
    EFP Energy =                            0.0000000000000000
    Total Energy =                       -232.1381917669741597

  Mulliken Charges: (a.u.)
   Center  Symbol    Alpha    Beta     Spin     Total
       1     H     0.27567  0.27567  0.00000  0.44867
       2     O     4.37890  4.37890  0.00000 -0.75780
       3     C     2.97657  2.97657  0.00000  0.04685
       4     C     3.19243  3.19243  0.00000 -0.38487
       5     H     0.42277  0.42277  0.00000  0.15446
       6     H     0.42405  0.42405  0.00000  0.15190
       7     C     3.15593  3.15593  0.00000 -0.31186
       8     H     0.41704  0.41704  0.00000  0.16592
       9     H     0.41852  0.41852  0.00000  0.16295
      10     C     3.24313  3.24313  0.00000 -0.48625
      11     H     0.42758  0.42758  0.00000  0.14484
      12     H     0.41612  0.41612  0.00000  0.16777
      13     H     0.41690  0.41690  0.00000  0.16619
      14     H     0.41352  0.41352  0.00000  0.17296
      15     H     0.42086  0.42086  0.00000  0.15828

   Total alpha = 21.00000, Total beta = 21.00000, Total charge =  0.00000
