  ==> Input File <==

--------------------------------------------------------------------------
set {
	reference rhf
	basis 6-31G*
}

set_num_threads( 4 )
memory 2 gb

molecule MOL {
0 1

H	 1.992387	 2.060335	 -0.550227
O	 1.067143	 1.983357	 -0.367154
C	 0.702312	 0.627605	 -0.264544
C	 -0.714990	 0.596302	 0.266387
H	 1.359311	 0.103753	 0.424504
H	 0.752269	 0.135915	 -1.233703
O	 -1.405996	 -0.526611	 -0.195820
H	 -1.257453	 1.468809	 -0.075599
H	 -0.688972	 0.618407	 1.353696
H	 -0.890587	 -1.292708	 0.022039

	symmetry c1
}
set optking {
	frozen_dihedral = ("
		5 3 4 7
	")
}

ee = optimize('scf')
oeprop('DIPOLE', 'QUADRUPOLE', 'MULLIKEN_CHARGES')
f=open( 'psi4out.xyz', 'w' )
f.write( "10  " )
f.write( str(ee) + "\n" )
f.write( MOL.save_string_xyz() )
f.close()
--------------------------------------------------------------------------

    Molecular point group: c1
  Charge       = 0
  Multiplicity = 1
  Basis Set: 6-31G*
  Basis Set:
  @DF-RHF Final Energy:  -228.91665947358132
    Total Energy =                       -228.9166594735813192
    Molecular point group: c1
  Basis Set: 6-31G*
  Basis Set:
  Basis Set: 6-31G*
  Basis Set:
  @DF-RHF Final Energy:  -228.91795788666369
    Total Energy =                       -228.9179578866636007
  Basis Set: 6-31G*
  Basis Set:
  Basis Set: 6-31G*
  Basis Set:
  @DF-RHF Final Energy:  -228.91830393634115
    Total Energy =                       -228.9183039363411751
  Basis Set: 6-31G*
  Basis Set:
  Basis Set: 6-31G*
  Basis Set:
  @DF-RHF Final Energy:  -228.91836262755552
    Total Energy =                       -228.9183626275555241
  Basis Set: 6-31G*
  Basis Set:
  Basis Set: 6-31G*
  Basis Set:
  @DF-RHF Final Energy:  -228.91836510915641
    Total Energy =                       -228.9183651091564116
  Basis Set: 6-31G*
  Basis Set:
  Charge       = 0
  Multiplicity = 1
  Basis Set: 6-31G*
  Basis Set:

    Orbital Energies (a.u.)
    -----------------------

    Doubly Occupied:

       1A    -20.559966     2A    -20.559270     3A    -11.271790
       4A    -11.268331     5A     -1.372534     6A     -1.359267
       7A     -0.996174     8A     -0.845386     9A     -0.711296
      10A     -0.701437    11A     -0.631765    12A     -0.603977
      13A     -0.580218    14A     -0.524639    15A     -0.488788
      16A     -0.443141    17A     -0.439277

  @DF-RHF Final Energy:  -228.91836521756017

   => Energetics <=

    Nuclear Repulsion Energy =            131.1469614345107289
    One-Electron Energy =                -573.4161390260305780
    Two-Electron Energy =                 213.3508123739596556
    DFT Exchange-Correlation Energy =       0.0000000000000000
    Empirical Dispersion Energy =           0.0000000000000000
    PCM Polarization Energy =               0.0000000000000000
    EFP Energy =                            0.0000000000000000
    Total Energy =                       -228.9183652175601935
    Molecular point group: c1
  Basis Set: 6-31G*
  Basis Set:

  -Total Gradient:
     Atom            X                  Y                   Z
    ------   -----------------  -----------------  -----------------
       1       -0.000004346715    -0.000005869193     0.000000548471
       2        0.000005432726     0.000032482584     0.000004277990
       3       -0.001432296315    -0.004867425525    -0.004747787694
       4        0.002004265425    -0.002014869231     0.005146556442
       5        0.000775452619     0.004516235606     0.002861413191
       6        0.000000311917    -0.000009994283     0.000002426283
       7       -0.001345114429     0.002344151390    -0.003274748626
       8       -0.000006334269    -0.000010745129     0.000000415224
       9        0.000002997890     0.000006974274     0.000007701824
      10       -0.000000368851     0.000009059505    -0.000000803103

  **** Optimization is complete! (in 6 steps) ****
    Final optimized geometry and variables:
    Molecular point group: c1

    Geometry (in Angstrom), charge = 0, multiplicity = 1:

    H            2.038580302347     1.446374452243    -0.406716800381
    O            1.132997935960     1.350407494128    -0.149096592212
    C            0.784960876716    -0.011730100257    -0.129508595689
    C           -0.643538526436    -0.098416464184     0.396940803599
    H            1.473342518832    -0.544597384317     0.524991224510
    H            0.821342846192    -0.447127516953    -1.123085958334
    O           -1.329969213237    -1.214439789641    -0.106085371373
    H           -1.176578333820     0.770927864310     0.039295788397
    H           -0.660734443929    -0.074271679940     1.482709413292
    H           -1.053767477519    -1.997715601985     0.348459791505

  Mulliken Charges: (a.u.)
   Center  Symbol    Alpha    Beta     Spin     Total
       1     H     0.27924  0.27924  0.00000  0.44153
       2     O     4.37271  4.37271  0.00000 -0.74543
       3     C     3.00933  3.00933  0.00000 -0.01866
       4     C     3.00646  3.00646  0.00000 -0.01291
       5     H     0.43427  0.43427  0.00000  0.13145
       6     H     0.41900  0.41900  0.00000  0.16201
       7     O     4.37000  4.37000  0.00000 -0.74000
       8     H     0.40209  0.40209  0.00000  0.19582
       9     H     0.42471  0.42471  0.00000  0.15058
      10     H     0.28220  0.28220  0.00000  0.43560

   Total alpha = 17.00000, Total beta = 17.00000, Total charge = -0.00000
