  ==> Input File <==

--------------------------------------------------------------------------
set {
	reference rhf
	basis 6-31G*
}

set_num_threads( 1 )
memory 2 gb

molecule MOL {
0 1

H	 -3.420663	 1.227371	 -1.044276
O	 -3.452007	 0.283848	 -0.965577
C	 -3.181085	 -0.079926	 0.364119
C	 -1.765924	 0.277073	 0.805136
H	 -3.327791	 -1.152017	 0.410903
H	 -3.905698	 0.375695	 1.036898
C	 -0.677594	 -0.417312	 -0.014550
H	 -1.637766	 1.358238	 0.744969
H	 -1.659588	 0.017670	 1.857098
C	 0.630541	 0.374550	 -0.068544
H	 -1.044450	 -0.588232	 -1.021979
H	 -0.486537	 -1.400884	 0.411449
C	 1.716973	 -0.329604	 -0.885808
H	 0.431149	 1.358779	 -0.485622
H	 0.995540	 0.540418	 0.944307
C	 3.074746	 0.382086	 -0.895970
H	 1.370962	 -0.456020	 -1.910498
H	 1.856397	 -1.332603	 -0.487851
C	 3.075041	 1.741274	 -1.598119
H	 3.798199	 -0.263767	 -1.387682
H	 3.424425	 0.504170	 0.127272
H	 2.717613	 1.652085	 -2.620581
H	 4.077779	 2.156018	 -1.634753
H	 2.444085	 2.462113	 -1.088758

	symmetry c1
}
set optking {
	frozen_dihedral = ("
		20 16 13 17,
		17 13 10 7,
		13 10 7 11,
		1 2 3 5,
		7 4 3 2
	")
}

ee = energy('scf')
oeprop('DIPOLE', 'QUADRUPOLE', 'MULLIKEN_CHARGES')
f=open( 'psi4out.xyz', 'w' )
f.write( "24  " )
f.write( str(ee) + "\n" )
f.write( MOL.save_string_xyz() )
f.close()
--------------------------------------------------------------------------

    Molecular point group: c1

    Geometry (in Angstrom), charge = 0, multiplicity = 1:

       Center              X                  Y                   Z               Mass
    ------------   -----------------  -----------------  -----------------  -----------------
           H         -3.290931457149     0.930890130740    -0.620866373223     1.007825032070
           O         -3.322275457149    -0.012632869260    -0.542167373223    15.994914619560
           C         -3.051353457149    -0.376406869260     0.787528626777    12.000000000000
           C         -1.636192457149    -0.019407869260     1.228545626777    12.000000000000
           H         -3.198059457149    -1.448497869260     0.834312626777     1.007825032070
           H         -3.775966457149     0.079214130740     1.460307626777     1.007825032070
           C         -0.547862457149    -0.713792869260     0.408859626777    12.000000000000
           H         -1.508034457149     1.061757130740     1.168378626777     1.007825032070
           H         -1.529856457149    -0.278810869260     2.280507626777     1.007825032070
           C          0.760272542851     0.078069130740     0.354865626777    12.000000000000
           H         -0.914718457149    -0.884712869260    -0.598569373223     1.007825032070
           H         -0.356805457149    -1.697364869260     0.834858626777     1.007825032070
           C          1.846704542851    -0.626084869260    -0.462398373223    12.000000000000
           H          0.560880542851     1.062298130740    -0.062212373223     1.007825032070
           H          1.125271542851     0.243937130740     1.367716626777     1.007825032070
           C          3.204477542851     0.085605130740    -0.472560373223    12.000000000000
           H          1.500693542851    -0.752500869260    -1.487088373223     1.007825032070
           H          1.986128542851    -1.629083869260    -0.064441373223     1.007825032070
           C          3.204772542851     1.444793130740    -1.174709373223    12.000000000000
           H          3.927930542851    -0.560247869260    -0.964272373223     1.007825032070
           H          3.554156542851     0.207689130740     0.550681626777     1.007825032070
           H          2.847344542851     1.355604130740    -2.197171373223     1.007825032070
           H          4.207510542851     1.859537130740    -1.211343373223     1.007825032070
           H          2.573816542851     2.165632130740    -0.665348373223     1.007825032070

  Charge       = 0
  Multiplicity = 1
  Basis Set: 6-31G*
  Basis Set:

    Orbital Energies (a.u.)
    -----------------------

    Doubly Occupied:

       1A    -20.554237     2A    -11.267862     3A    -11.216681
       4A    -11.213806     5A    -11.212318     6A    -11.211087
       7A    -11.209746     8A    -11.207170     9A     -1.360750
      10A     -1.088167    11A     -1.048003    12A     -0.985384
      13A     -0.914747    14A     -0.850355    15A     -0.800822
      16A     -0.776160    17A     -0.679631    18A     -0.652449
      19A     -0.624167    20A     -0.621486    21A     -0.596304
      22A     -0.584149    23A     -0.559473    24A     -0.536845
      25A     -0.517330    26A     -0.512156    27A     -0.496913
      28A     -0.471627    29A     -0.466521    30A     -0.456229
      31A     -0.454600    32A     -0.451857    33A     -0.419983

  @DF-RHF Final Energy:  -349.24552696921057

   => Energetics <=

    Nuclear Repulsion Energy =            386.2199066931281095
    One-Electron Energy =               -1238.8926669587390279
    Two-Electron Energy =                 503.4272332964009138
    DFT Exchange-Correlation Energy =       0.0000000000000000
    Empirical Dispersion Energy =           0.0000000000000000
    PCM Polarization Energy =               0.0000000000000000
    EFP Energy =                            0.0000000000000000
    Total Energy =                       -349.2455269692100046

  Mulliken Charges: (a.u.)
   Center  Symbol    Alpha    Beta     Spin     Total
       1     H     0.28327  0.28327  0.00000  0.43346
       2     O     4.36782  4.36782  0.00000 -0.73565
       3     C     2.99785  2.99785  0.00000  0.00431
       4     C     3.16897  3.16897  0.00000 -0.33794
       5     H     0.41631  0.41631  0.00000  0.16739
       6     H     0.42825  0.42825  0.00000  0.14350
       7     C     3.15689  3.15689  0.00000 -0.31378
       8     H     0.42762  0.42762  0.00000  0.14476
       9     H     0.42098  0.42098  0.00000  0.15804
      10     C     3.15437  3.15437  0.00000 -0.30874
      11     H     0.40699  0.40699  0.00000  0.18603
      12     H     0.42334  0.42334  0.00000  0.15332
      13     C     3.15268  3.15268  0.00000 -0.30536
      14     H     0.42302  0.42302  0.00000  0.15396
      15     H     0.42539  0.42539  0.00000  0.14921
      16     C     3.15226  3.15226  0.00000 -0.30452
      17     H     0.42297  0.42297  0.00000  0.15406
      18     H     0.42248  0.42248  0.00000  0.15504
      19     C     3.24098  3.24098  0.00000 -0.48195
      20     H     0.42116  0.42116  0.00000  0.15769
      21     H     0.42391  0.42391  0.00000  0.15217
      22     H     0.42200  0.42200  0.00000  0.15599
      23     H     0.41961  0.41961  0.00000  0.16077
      24     H     0.42089  0.42089  0.00000  0.15823

   Total alpha = 33.00000, Total beta = 33.00000, Total charge =  0.00000
