                              Psi4 1.0.54 Driver

  ==> Input File <==

--------------------------------------------------------------------------
set {
	reference rhf
	basis cc-pvtz
}

set_num_threads( 4 )
memory 2 gb

molecule MOL {
0 1

O	 1.208452	 1.316793	 0.120464
C	 1.099200	 0.160300	 0.347728
C	 -0.193006	 -0.615318	 0.338718
O	 2.125571	 -0.619242	 0.646480
C	 -1.413045	 0.229353	 0.001137
H	 -0.072433	 -1.431155	 -0.366515
H	 -0.294639	 -1.080577	 1.313740
C	 -2.702562	 -0.586401	 0.000228
H	 -1.270757	 0.692446	 -0.968832
H	 -1.493611	 1.042927	 0.713283
C	 -3.953810	 0.284959	 -0.000782
H	 -2.717793	 -1.238567	 -0.869075
H	 -2.719108	 -1.238472	 0.869576
H	 -3.983727	 0.924403	 -0.876454
H	 -4.852989	 -0.320147	 -0.001515
H	 -3.985140	 0.924399	 0.874841
C	 3.404593	 -0.019670	 0.690500
H	 3.660954	 0.402825	 -0.269710
H	 4.094066	 -0.807735	 0.946329
H	 3.435022	 0.759431	 1.437694

	symmetry c1
}
set optking {
	frozen_dihedral = ("
		9 5 8 12
	")
}

ee,wfn = optimize('scf', return_wfn=True)
oeprop( wfn, 'DIPOLE', 'QUADRUPOLE', 'MULLIKEN_CHARGES')
f=open( 'psi4out.xyz', 'w' )
f.write( "20  " )
f.write( str(ee) + "\n" )
f.write( MOL.save_string_xyz() )
f.close()
--------------------------------------------------------------------------

    Molecular point group: c1
  Charge       = 0
  Multiplicity = 1
  Basis Set: CC-PVTZ
  Basis Set:
  @DF-RHF Final Energy:  -384.08252765518836
    Total Energy =                       -384.0825276551884144
    Molecular point group: c1
  Basis Set: CC-PVTZ
  Basis Set:
  Basis Set: CC-PVTZ
  Basis Set:
  @DF-RHF Final Energy:  -384.08261216534532
    Total Energy =                       -384.0826121653451537
  Basis Set: CC-PVTZ
  Basis Set:
  Basis Set: CC-PVTZ
  Basis Set:
  @DF-RHF Final Energy:  -384.08247830493946
    Total Energy =                       -384.0824783049391726
  Basis Set: CC-PVTZ
  Basis Set:
  Basis Set: CC-PVTZ
  Basis Set:
  @DF-RHF Final Energy:  -384.08264511032399
    Total Energy =                       -384.0826451103242789
  Basis Set: CC-PVTZ
  Basis Set:
  Charge       = 0
  Multiplicity = 1
  Basis Set: CC-PVTZ
  Basis Set:

    Orbital Energies (a.u.)
    -----------------------

    Doubly Occupied:

       1A    -20.596373     2A    -20.534211     3A    -11.364602
       4A    -11.278536     5A    -11.233809     6A    -11.218476
       7A    -11.217399     8A    -11.208633     9A     -1.472254
      10A     -1.365856    11A     -1.089774    12A     -1.025360
      13A     -0.969893    14A     -0.886111    15A     -0.804455
      16A     -0.769449    17A     -0.699230    18A     -0.686814
      19A     -0.675817    20A     -0.647105    21A     -0.598883
      22A     -0.593687    23A     -0.579664    24A     -0.541864
      25A     -0.536494    26A     -0.523992    27A     -0.502271
      28A     -0.477623    29A     -0.474876    30A     -0.472093
      31A     -0.459405    32A     -0.439968

  @DF-RHF Final Energy:  -384.08264721566053

   => Energetics <=

    Nuclear Repulsion Energy =            381.7257574507409004
    One-Electron Energy =               -1279.7268521984046856
    Two-Electron Energy =                 513.9184475320031424
    DFT Exchange-Correlation Energy =       0.0000000000000000
    Empirical Dispersion Energy =           0.0000000000000000
    PCM Polarization Energy =               0.0000000000000000
    EFP Energy =                            0.0000000000000000
    Total Energy =                       -384.0826472156605860
    Molecular point group: c1
  Basis Set: CC-PVTZ
  Basis Set:

  -Total Gradient:
     Atom            X                  Y                   Z
    ------   -----------------  -----------------  -----------------
       1       -0.000043457810     0.000022379551     0.000015232283
       2        0.000038517188     0.000004329996    -0.000043834910
       3       -0.000021646806     0.000014601801    -0.000001169093
       4       -0.000004020358    -0.000045119631     0.000018846274
       5       -0.001992644849     0.003042126981     0.000650349331
       6        0.000006542165     0.000000222037     0.000007901468
       7        0.000012937095    -0.000000946414     0.000006404626
       8        0.001786769924    -0.002825075318     0.001560257859
       9        0.001374143650    -0.002107733580    -0.000816937378
      10       -0.000002022457    -0.000004093171     0.000006346260
      11        0.000023724284    -0.000003053246     0.000006818033
      12       -0.001173431325     0.001895048167    -0.001408578742
      13       -0.000007719614     0.000002520032     0.000001709370
      14       -0.000009044295    -0.000013157324     0.000025209704
      15        0.000028028195     0.000023444559    -0.000000589401
      16       -0.000013740514    -0.000010557187    -0.000028357582
      17        0.000002714622     0.000018170736    -0.000002029902
      18        0.000000342940    -0.000002952055     0.000004092179
      19       -0.000007460088    -0.000005569839     0.000000750580
      20        0.000001468049    -0.000004586092    -0.000002420959

  **** Optimization is complete! (in 5 steps) ****
    Final optimized geometry and variables:
    Molecular point group: c1

    Geometry (in Angstrom), charge = 0, multiplicity = 1:

    O            1.225569201234     1.291022716661    -0.154252529854
    C            1.117507205210     0.135487299909     0.078564797947
    C           -0.175974083059    -0.637991032696     0.088731533552
    O            2.146252067961    -0.644458107286     0.368182038860
    C           -1.400332488446     0.208494309944    -0.233634150204
    H           -0.066847316376    -1.455014686591    -0.617293260961
    H           -0.264330243952    -1.102046432013     1.065461750202
    C           -2.683310301051    -0.620173005323    -0.260066814646
    H           -1.249317438059     0.677101381647    -1.199149483943
    H           -1.484698242043     1.008316985038     0.492736029112
    C           -3.939663496606     0.244414629898    -0.308969013517
    H           -2.674062915783    -1.265389169319    -1.134109954830
    H           -2.726037242225    -1.267593607886     0.611065537389
    H           -3.931524217880     0.895440530278    -1.176692610054
    H           -4.833987912014    -0.365623514031    -0.361519989573
    H           -4.017169105673     0.872035699822     0.572180463307
    C            3.426535460047    -0.046692995899     0.394956134364
    H            3.672375907737     0.371687440113    -0.569797532240
    H            4.117759998234    -0.834832958460     0.645802439244
    H            3.466877454065     0.735244714975     1.138710193563

  Mulliken Charges: (a.u.)
   Center  Symbol    Alpha    Beta     Spin     Total
       1     O     4.19685  4.19685  0.00000 -0.39371
       2     C     2.80662  2.80662  0.00000  0.38676
       3     C     3.10052  3.10052  0.00000 -0.20104
       4     O     4.14660  4.14660  0.00000 -0.29319
       5     C     3.08141  3.08141  0.00000 -0.16283
       6     H     0.44019  0.44019  0.00000  0.11962
       7     H     0.44031  0.44031  0.00000  0.11937
       8     C     3.08710  3.08710  0.00000 -0.17421
       9     H     0.44597  0.44597  0.00000  0.10807
      10     H     0.44736  0.44736  0.00000  0.10528
      11     C     3.14896  3.14896  0.00000 -0.29792
      12     H     0.45388  0.45388  0.00000  0.09224
      13     H     0.45596  0.45596  0.00000  0.08807
      14     H     0.45350  0.45350  0.00000  0.09300
      15     H     0.44865  0.44865  0.00000  0.10270
      16     H     0.45437  0.45437  0.00000  0.09127
      17     C     3.03769  3.03769  0.00000 -0.07538
      18     H     0.45435  0.45435  0.00000  0.09130
      19     H     0.44534  0.44534  0.00000  0.10931
      20     H     0.45436  0.45436  0.00000  0.09127

   Total alpha = 32.00000, Total beta = 32.00000, Total charge = -0.00000

*** Psi4 exiting successfully. Buy a developer a beer!
