  ==> Input File <==

--------------------------------------------------------------------------
set {
	reference rhf
	basis cc-pvtz
}

set_num_threads( 4 )
memory 2 gb

molecule MOL {
0 1

H	 -0.000342	 -0.223902	 -3.352295
C	 -0.027146	 0.371068	 -2.446756
C	 0.024493	 -0.518541	 -1.216015
H	 -0.932586	 0.964979	 -2.449855
H	 0.819708	 1.049865	 -2.473332
N	 -0.042516	 0.263377	 -0.000000
H	 -0.822211	 -1.197105	 -1.225584
H	 0.921114	 -1.142847	 -1.255206
C	 0.024493	 -0.518541	 1.216015
H	 0.682568	 0.950412	 -0.000000
C	 -1.242098	 -1.333303	 1.417767
H	 0.875246	 -1.187575	 1.138172
H	 0.201033	 0.104428	 2.096905
H	 -1.409744	 -1.991965	 0.574784
H	 -1.173637	 -1.933428	 2.317696
H	 -2.109433	 -0.687967	 1.517288

	symmetry c1
}
set optking {
	frozen_dihedral = ("
		12 9 6 3
	")
}

ee = optimize('scf')
oeprop('DIPOLE', 'QUADRUPOLE', 'MULLIKEN_CHARGES')
f=open( 'psi4out.xyz', 'w' )
f.write( "16  " )
f.write( str(ee) + "\n" )
f.write( MOL.save_string_xyz() )
f.close()
--------------------------------------------------------------------------

    Molecular point group: c1
  Charge       = 0
  Multiplicity = 1
  Basis Set: CC-PVTZ
  Basis Set:
  @DF-RHF Final Energy:  -212.39025246354228
    Total Energy =                       -212.3902524635424243
    Molecular point group: c1
  Basis Set: CC-PVTZ
  Basis Set:
  Basis Set: CC-PVTZ
  Basis Set:
  @DF-RHF Final Energy:  -212.39214584625913
    Total Energy =                       -212.3921458462593250
  Basis Set: CC-PVTZ
  Basis Set:
  Basis Set: CC-PVTZ
  Basis Set:
  @DF-RHF Final Energy:  -212.39262886451584
    Total Energy =                       -212.3926288645160980
  Basis Set: CC-PVTZ
  Basis Set:
  Basis Set: CC-PVTZ
  Basis Set:
  @DF-RHF Final Energy:  -212.39264691656879
    Total Energy =                       -212.3926469165689355
  Basis Set: CC-PVTZ
  Basis Set:
  Basis Set: CC-PVTZ
  Basis Set:
  @DF-RHF Final Energy:  -212.39264813456572
    Total Energy =                       -212.3926481345659454
  Basis Set: CC-PVTZ
  Basis Set:
  Charge       = 0
  Multiplicity = 1
  Basis Set: CC-PVTZ
  Basis Set:

    Orbital Energies (a.u.)
    -----------------------

    Doubly Occupied:

       1A    -15.528823     2A    -11.239642     3A    -11.238469
       4A    -11.207167     5A    -11.203108     6A     -1.205702
       7A     -1.025760     8A     -0.967717     9A     -0.847744
      10A     -0.800348    11A     -0.662762    12A     -0.628739
      13A     -0.617163    14A     -0.584494    15A     -0.537712
      16A     -0.526423    17A     -0.510774    18A     -0.493061
      19A     -0.483154    20A     -0.467808    21A     -0.361822

  @DF-RHF Final Energy:  -212.39264823669649

   => Energetics <=

    Nuclear Repulsion Energy =            191.3966188837640345
    One-Electron Energy =                -665.3017521320898595
    Two-Electron Energy =                 261.5124850116293374
    DFT Exchange-Correlation Energy =       0.0000000000000000
    Empirical Dispersion Energy =           0.0000000000000000
    PCM Polarization Energy =               0.0000000000000000
    EFP Energy =                            0.0000000000000000
    Total Energy =                       -212.3926482366964592
    Molecular point group: c1
  Basis Set: CC-PVTZ
  Basis Set:

  -Total Gradient:
     Atom            X                  Y                   Z
    ------   -----------------  -----------------  -----------------
       1        0.000001738469     0.000001136222     0.000000203715
       2       -0.000008073505    -0.000000038894    -0.000007295453
       3       -0.000422130956    -0.000047381872    -0.000000112507
       4        0.000002075271     0.000001904710    -0.000001405645
       5       -0.000000029173     0.000001701395    -0.000000793502
       6        0.000685601739     0.000170205395     0.000058842116
       7        0.000006387544     0.000002670090     0.000010405000
       8        0.000001957949    -0.000005286643    -0.000003237945
       9       -0.000585044663    -0.000507247185    -0.000278623097
      10        0.000003645076    -0.000008655532     0.000004820464
      11       -0.000002367488     0.000002527202    -0.000006987461
      12        0.000308715209     0.000398180036     0.000224202465
      13        0.000006634037    -0.000002459412     0.000004827928
      14       -0.000003910123    -0.000007519563    -0.000002108612
      15        0.000001364845     0.000001067755    -0.000003610348
      16        0.000003435768    -0.000000803704     0.000000872881

  **** Optimization is complete! (in 6 steps) ****
    Final optimized geometry and variables:
    Molecular point group: c1

    Geometry (in Angstrom), charge = 0, multiplicity = 1:

    H            0.303176087519     0.206186307714    -3.167293156489
    C            0.261726606311     0.771104309944    -2.243352462490
    C            0.258336820319    -0.160267216948    -1.042461391353
    H           -0.631411584644     1.383448485263    -2.253024050608
    H            1.122431991261     1.432549817237    -2.222406637393
    N            0.173866460599     0.589752480797     0.194075036952
    H           -0.597463467991    -0.820472532392    -1.110224104369
    H            1.146440077417    -0.797619070460    -1.073377003570
    C            0.272806176638    -0.193687441419     1.411203539586
    H            0.877615331830     1.296361516564     0.198801012366
    C           -0.985851882376    -0.998564650899     1.703128581641
    H            1.135574057774    -0.864816051013     1.395165645639
    H            0.435750829094     0.499381945962     2.228561996738
    H           -1.162377146624    -1.761529892009     0.954902972802
    H           -0.896594033446    -1.497382114918     2.661805298417
    H           -1.851096709346    -0.347527160711     1.732345097358

  Mulliken Charges: (a.u.)
   Center  Symbol    Alpha    Beta     Spin     Total
       1     H     0.45369  0.45369  0.00000  0.09261
       2     C     3.14325  3.14325  0.00000 -0.28651
       3     C     3.02215  3.02215  0.00000 -0.04431
       4     H     0.44914  0.44914  0.00000  0.10172
       5     H     0.45936  0.45936  0.00000  0.08127
       6     N     3.63792  3.63792  0.00000 -0.27585
       7     H     0.45743  0.45743  0.00000  0.08515
       8     H     0.47411  0.47411  0.00000  0.05179
       9     C     3.03289  3.03289  0.00000 -0.06579
      10     H     0.44265  0.44265  0.00000  0.11470
      11     C     3.14329  3.14329  0.00000 -0.28657
      12     H     0.47125  0.47125  0.00000  0.05749
      13     H     0.45431  0.45431  0.00000  0.09139
      14     H     0.45600  0.45600  0.00000  0.08799
      15     H     0.45193  0.45193  0.00000  0.09614
      16     H     0.45062  0.45062  0.00000  0.09876

   Total alpha = 21.00000, Total beta = 21.00000, Total charge = -0.00000
