  ==> Input File <==

--------------------------------------------------------------------------
set {
	reference rhf
	basis 6-31G*
}

set_num_threads( 1 )
memory 2 gb

molecule MOL {
0 1

H	 -2.646374	 -0.642757	 1.268656
C	 -2.083525	 -0.384536	 0.393091
O	 -0.807605	 -0.127164	 0.768327
F	 -2.118945	 -1.383102	 -0.486752
F	 -2.621877	 0.670592	 -0.209486
C	 0.084052	 0.273579	 -0.209957
C	 1.126434	 1.151084	 0.470915
Cl	 -0.746205	 1.171245	 -1.491395
H	 0.589562	 -0.558063	 -0.668875
F	 2.022035	 1.561892	 -0.401596
F	 1.747018	 0.437811	 1.389367
F	 0.590186	 2.197499	 1.050077

	symmetry c1
}
set optking {
	frozen_dihedral = ("
		10 7 6 9,
		6 3 2 4
	")
}

ee = energy('scf')
oeprop('DIPOLE', 'QUADRUPOLE', 'MULLIKEN_CHARGES')
f=open( 'psi4out.xyz', 'w' )
f.write( "12  " )
f.write( str(ee) + "\n" )
f.write( MOL.save_string_xyz() )
f.close()
--------------------------------------------------------------------------

    Molecular point group: c1

    Geometry (in Angstrom), charge = 0, multiplicity = 1:

       Center              X                  Y                   Z               Mass
    ------------   -----------------  -----------------  -----------------  -----------------
           H         -2.326702913354    -1.275453096366     1.300843264695     1.007825032070
           C         -1.763853913354    -1.017232096366     0.425278264695    12.000000000000
           O         -0.487933913354    -0.759860096366     0.800514264695    15.994914619560
           F         -1.799273913354    -2.015798096366    -0.454564735305    18.998403224000
           F         -2.302205913354     0.037895903634    -0.177298735305    18.998403224000
           C          0.403723086646    -0.359117096366    -0.177769735305    12.000000000000
           C          1.446105086646     0.518387903634     0.503102264695    12.000000000000
          CL         -0.426533913354     0.538548903634    -1.459207735305    34.968852682000
           H          0.909233086646    -1.190759096366    -0.636687735305     1.007825032070
           F          2.341706086646     0.929195903634    -0.369408735305    18.998403224000
           F          2.066689086646    -0.194885096366     1.421554264695    18.998403224000
           F          0.909857086646     1.564802903634     1.082264264695    18.998403224000

  Charge       = 0
  Multiplicity = 1
  Basis Set: 6-31G*
  Basis Set:

    Orbital Energies (a.u.)
    -----------------------

    Doubly Occupied:

       1A   -104.830609     2A    -26.358946     3A    -26.357717
       4A    -26.356987     5A    -26.340656     6A    -26.333206
       7A    -20.648052     8A    -11.526524     9A    -11.486209
      10A    -11.397839    11A    -10.567552    12A     -8.036706
      13A     -8.033270    14A     -8.032988    15A     -1.760120
      16A     -1.713406    17A     -1.656559    18A     -1.655393
      19A     -1.633550    20A     -1.484857    21A     -1.177231
      22A     -1.053655    23A     -0.983492    24A     -0.918613
      25A     -0.852627    26A     -0.850785    27A     -0.844406
      28A     -0.815336    29A     -0.807496    30A     -0.785757
      31A     -0.732141    32A     -0.724009    33A     -0.711010
      34A     -0.691468    35A     -0.679069    36A     -0.673383
      37A     -0.657725    38A     -0.656123    39A     -0.645002
      40A     -0.635107    41A     -0.603814    42A     -0.556260
      43A     -0.533396    44A     -0.462760    45A     -0.449930

  @DF-RHF Final Energy: -1146.28102206238555

   => Energetics <=

    Nuclear Repulsion Energy =            754.6494232360250862
    One-Electron Energy =               -3092.4374751210780232
    Two-Electron Energy =                1191.5070298226678460
    DFT Exchange-Correlation Energy =       0.0000000000000000
    Empirical Dispersion Energy =           0.0000000000000000
    PCM Polarization Energy =               0.0000000000000000
    EFP Energy =                            0.0000000000000000
    Total Energy =                      -1146.2810220623850910

  Mulliken Charges: (a.u.)
   Center  Symbol    Alpha    Beta     Spin     Total
       1     H     0.39982  0.39982  0.00000  0.20036
       2     C     2.56275  2.56275  0.00000  0.87450
       3     O     4.30838  4.30838  0.00000 -0.61676
       4     F     4.68821  4.68821  0.00000 -0.37642
       5     F     4.67863  4.67863  0.00000 -0.35726
       6     C     3.03550  3.03550  0.00000 -0.07100
       7     C     2.43528  2.43528  0.00000  1.12945
       8    CL     8.50088  8.50088  0.00000 -0.00175
       9     H     0.37085  0.37085  0.00000  0.25830
      10     F     4.67408  4.67408  0.00000 -0.34816
      11     F     4.67713  4.67713  0.00000 -0.35426
      12     F     4.66850  4.66850  0.00000 -0.33699

   Total alpha = 45.00000, Total beta = 45.00000, Total charge = -0.00000
