                              Psi4 1.0.54 Driver

  ==> Input File <==

--------------------------------------------------------------------------
set {
	reference rhf
	basis cc-pvtz
}

set_num_threads( 4 )
memory 2 gb

molecule MOL {
0 1

H	 -0.000105	 1.988529	 0.748933
O	 -0.000098	 1.879786	 -0.188206
C	 -0.000014	 0.545691	 -0.532416
C	 -1.286000	 -0.125171	 -0.046657
C	 1.286016	 -0.125031	 -0.046584
H	 0.000021	 0.481103	 -1.610604
F	 -2.176707	 0.795074	 0.230199
F	 -1.800594	 -0.924921	 -0.946271
F	 -1.077783	 -0.821832	 1.050012
F	 2.317750	 0.468717	 -0.594166
F	 1.336617	 -1.393765	 -0.365123
F	 1.414467	 -0.024806	 1.259108

	symmetry c1
}
set optking {
	frozen_dihedral = ("
		7 4 3 6
	")
}

ee,wfn = optimize('scf', return_wfn=True)
oeprop( wfn, 'DIPOLE', 'QUADRUPOLE', 'MULLIKEN_CHARGES')
f=open( 'psi4out.xyz', 'w' )
f.write( "12  " )
f.write( str(ee) + "\n" )
f.write( MOL.save_string_xyz() )
f.close()
--------------------------------------------------------------------------

    Molecular point group: c1
  Charge       = 0
  Multiplicity = 1
  Basis Set: CC-PVTZ
  Basis Set:
  @DF-RHF Final Energy:  -786.58323791704879
    Total Energy =                       -786.5832379170492459
    Molecular point group: c1
  Basis Set: CC-PVTZ
  Basis Set:
  Basis Set: CC-PVTZ
  Basis Set:
  @DF-RHF Final Energy:  -786.58440508376589
    Total Energy =                       -786.5844050837661143
  Basis Set: CC-PVTZ
  Basis Set:
  Basis Set: CC-PVTZ
  Basis Set:
  @DF-RHF Final Energy:  -786.58507993790556
    Total Energy =                       -786.5850799379054479
  Basis Set: CC-PVTZ
  Basis Set:
  Basis Set: CC-PVTZ
  Basis Set:
  @DF-RHF Final Energy:  -786.58513861333540
    Total Energy =                       -786.5851386133355163
  Basis Set: CC-PVTZ
  Basis Set:
  Basis Set: CC-PVTZ
  Basis Set:
  @DF-RHF Final Energy:  -786.58516955216567
    Total Energy =                       -786.5851695521658939
  Basis Set: CC-PVTZ
  Basis Set:
  Basis Set: CC-PVTZ
  Basis Set:
  @DF-RHF Final Energy:  -786.58518620177540
    Total Energy =                       -786.5851862017750591
  Basis Set: CC-PVTZ
  Basis Set:
  Basis Set: CC-PVTZ
  Basis Set:
  @DF-RHF Final Energy:  -786.58518793818018
    Total Energy =                       -786.5851879381796152
  Basis Set: CC-PVTZ
  Basis Set:
  Charge       = 0
  Multiplicity = 1
  Basis Set: CC-PVTZ
  Basis Set:

    Orbital Energies (a.u.)
    -----------------------

    Doubly Occupied:

       1A    -26.357673     2A    -26.357391     3A    -26.356396
       4A    -26.355280     5A    -26.354013     6A    -26.353185
       7A    -20.610528     8A    -11.520127     9A    -11.518364
      10A    -11.351561    11A     -1.771452    12A     -1.765444
      13A     -1.665807    14A     -1.663751    15A     -1.663109
      16A     -1.659018    17A     -1.440463    18A     -1.102157
      19A     -1.000166    20A     -0.944026    21A     -0.871038
      22A     -0.866496    23A     -0.857987    24A     -0.853343
      25A     -0.840001    26A     -0.819694    27A     -0.741808
      28A     -0.737131    29A     -0.733729    30A     -0.728653
      31A     -0.695300    32A     -0.691235    33A     -0.689888
      34A     -0.683539    35A     -0.675026    36A     -0.667517
      37A     -0.663186    38A     -0.656830    39A     -0.623284
      40A     -0.551202    41A     -0.509866

  @DF-RHF Final Energy:  -786.58518809236284

   => Energetics <=

    Nuclear Repulsion Energy =            670.8776466318381608
    One-Electron Energy =               -2428.9923409288726361
    Two-Electron Energy =                 971.5295062046715202
    DFT Exchange-Correlation Energy =       0.0000000000000000
    Empirical Dispersion Energy =           0.0000000000000000
    PCM Polarization Energy =               0.0000000000000000
    EFP Energy =                            0.0000000000000000
    Total Energy =                       -786.5851880923629551
    Molecular point group: c1
  Basis Set: CC-PVTZ
  Basis Set:

  -Total Gradient:
     Atom            X                  Y                   Z
    ------   -----------------  -----------------  -----------------
       1       -0.000004422111     0.000003879885     0.000001005196
       2        0.000000215347    -0.000011289105     0.000001351082
       3       -0.002480196348     0.004585695034     0.000785850439
       4       -0.001067379195    -0.000982324762    -0.004609353599
       5       -0.000024165867     0.000040299857     0.000037045666
       6        0.002378073006    -0.003782919023     0.000211384415
       7        0.001176089512     0.000196352277     0.003566093603
       8        0.000008465095     0.000021677360     0.000029458167
       9        0.000006797722    -0.000032489569     0.000004112566
      10       -0.000010606187    -0.000008056518     0.000009172064
      11        0.000005444163    -0.000036926663    -0.000018648709
      12        0.000011684858     0.000006101224    -0.000017470893

  **** Optimization is complete! (in 8 steps) ****
    Final optimized geometry and variables:
    Molecular point group: c1

    Geometry (in Angstrom), charge = 0, multiplicity = 1:

    H           -0.019172478230     2.026316252240     0.806210007407
    O           -0.022480400947     1.928118867376    -0.131666438590
    C           -0.019246177958     0.605333942498    -0.501441959392
    C           -1.279919164368    -0.161771574274    -0.039543470765
    C            1.276421142697    -0.072417382540    -0.053992363390
    H           -0.005582192482     0.551886677993    -1.579402618004
    F           -2.248166432008     0.672524661667     0.241818209494
    F           -1.691504311891    -0.975388122785    -0.981476766286
    F           -1.069356699215    -0.879801716434     1.042628210398
    F            2.293202595599     0.469216965092    -0.678899091137
    F            1.268024762189    -1.353736902607    -0.332478439321
    F            1.482405670772     0.072690446629     1.236082214292

  Mulliken Charges: (a.u.)
   Center  Symbol    Alpha    Beta     Spin     Total
       1     H     0.38361  0.38361  0.00000  0.23279
       2     O     4.18290  4.18290  0.00000 -0.36581
       3     C     3.01457  3.01457  0.00000 -0.02914
       4     C     2.67798  2.67798  0.00000  0.64404
       5     C     2.67979  2.67979  0.00000  0.64043
       6     H     0.42864  0.42864  0.00000  0.14273
       7     F     4.60151  4.60151  0.00000 -0.20303
       8     F     4.60535  4.60535  0.00000 -0.21071
       9     F     4.60669  4.60669  0.00000 -0.21338
      10     F     4.60243  4.60243  0.00000 -0.20486
      11     F     4.60578  4.60578  0.00000 -0.21155
      12     F     4.61075  4.61075  0.00000 -0.22150

   Total alpha = 41.00000, Total beta = 41.00000, Total charge =  0.00000

*** Psi4 exiting successfully. Buy a developer a beer!
