  ==> Input File <==

--------------------------------------------------------------------------
set {
	reference rhf
	basis 6-31G*
}

set_num_threads( 4 )
memory 2 gb

molecule MOL {
0 1

H	 2.756765	 -0.201008	 -0.702837
O	 1.913719	 -0.642339	 -0.738721
C	 1.050492	 0.053836	 0.000068
C	 -0.318135	 -0.576402	 0.000164
O	 1.364608	 1.046071	 0.572603
C	 -1.454360	 0.441875	 -0.000474
H	 -0.374042	 -1.230163	 -0.866135
H	 -0.374274	 -1.229227	 0.867154
C	 -2.826123	 -0.230780	 0.000056
H	 -1.357605	 1.085198	 -0.868380
H	 -1.357504	 1.086451	 0.866496
H	 -2.959731	 -0.858053	 -0.876869
H	 -3.619374	 0.509403	 -0.000080
H	 -2.959371	 -0.857318	 0.877556

	symmetry c1
}
set optking {
	frozen_dihedral = ("
		2 3 4 7
	")
}

ee = optimize('scf')
oeprop('DIPOLE', 'QUADRUPOLE', 'MULLIKEN_CHARGES')
f=open( 'psi4out.xyz', 'w' )
f.write( "14  " )
f.write( str(ee) + "\n" )
f.write( MOL.save_string_xyz() )
f.close()
--------------------------------------------------------------------------

    Molecular point group: c1
  Charge       = 0
  Multiplicity = 1
  Basis Set: 6-31G*
  Basis Set:
  @DF-RHF Final Energy:  -305.87959793565443
    Total Energy =                       -305.8795979356544308
    Molecular point group: c1
  Basis Set: 6-31G*
  Basis Set:
  Basis Set: 6-31G*
  Basis Set:
  @DF-RHF Final Energy:  -305.87986992457473
    Total Energy =                       -305.8798699245749049
  Basis Set: 6-31G*
  Basis Set:
  Basis Set: 6-31G*
  Basis Set:
  @DF-RHF Final Energy:  -305.87953945724007
    Total Energy =                       -305.8795394572401847
  Basis Set: 6-31G*
  Basis Set:
  Basis Set: 6-31G*
  Basis Set:
  @DF-RHF Final Energy:  -305.87991539972154
    Total Energy =                       -305.8799153997216536
  Basis Set: 6-31G*
  Basis Set:
  Basis Set: 6-31G*
  Basis Set:
  @DF-RHF Final Energy:  -305.87991652135725
    Total Energy =                       -305.8799165213572451
  Basis Set: 6-31G*
  Basis Set:
  Charge       = 0
  Multiplicity = 1
  Basis Set: 6-31G*
  Basis Set:

    Orbital Energies (a.u.)
    -----------------------

    Doubly Occupied:

       1A    -20.614795     2A    -20.550282     3A    -11.381738
       4A    -11.240696     5A    -11.228465     6A    -11.218087
       7A     -1.475684     8A     -1.365672     9A     -1.083544
      10A     -0.979392    11A     -0.856802    12A     -0.795985
      13A     -0.701648    14A     -0.688567    15A     -0.659182
      16A     -0.621014    17A     -0.593710    18A     -0.572379
      19A     -0.547519    20A     -0.508054    21A     -0.492773
      22A     -0.484946    23A     -0.474865    24A     -0.442855

  @DF-RHF Final Energy:  -305.87991666536067

   => Energetics <=

    Nuclear Repulsion Energy =            239.9180028630105994
    One-Electron Energy =                -892.4385272198721850
    Two-Electron Energy =                 346.6406076915010317
    DFT Exchange-Correlation Energy =       0.0000000000000000
    Empirical Dispersion Energy =           0.0000000000000000
    PCM Polarization Energy =               0.0000000000000000
    EFP Energy =                            0.0000000000000000
    Total Energy =                       -305.8799166653606108
    Molecular point group: c1
  Basis Set: 6-31G*
  Basis Set:

  -Total Gradient:
     Atom            X                  Y                   Z
    ------   -----------------  -----------------  -----------------
       1        0.000000752405     0.000009245222    -0.000008934216
       2       -0.000246445332     0.000524979331    -0.000775063564
       3        0.000394917053    -0.000933412155     0.001206900236
       4       -0.000550313104     0.001300335609    -0.001065801740
       5       -0.000008762289    -0.000010557429    -0.000000587229
       6       -0.000004377815     0.000017568645    -0.000032057852
       7        0.000406435940    -0.000883023928     0.000644219161
       8        0.000002562946    -0.000012786223     0.000016301380
       9        0.000003631205    -0.000007834118     0.000013180708
      10       -0.000002084885    -0.000000537425     0.000007516269
      11        0.000002021760    -0.000005920175    -0.000008527419
      12        0.000005908981     0.000005315068     0.000001626965
      13        0.000003825304     0.000003076901     0.000000616528
      14       -0.000008072171    -0.000006449323     0.000000610774

  **** Optimization is complete! (in 6 steps) ****
    Final optimized geometry and variables:
    Molecular point group: c1

    Geometry (in Angstrom), charge = 0, multiplicity = 1:

    H            2.789701572430    -0.196003592596    -0.597543043377
    O            1.949321480531    -0.635319041727    -0.687540179732
    C            1.053312523105     0.038058794618     0.030125684622
    C           -0.313009029549    -0.599210886514    -0.004513621330
    O            1.337125440748     1.022861954546     0.632154154627
    C           -1.445509141583     0.427915639027     0.019532887385
    H           -0.377596700199    -1.253987332681    -0.865024497784
    H           -0.373611214292    -1.238245238314     0.874415153854
    C           -2.820875595084    -0.235332371582     0.058730928735
    H           -1.371819058781     1.064040247177    -0.858137863451
    H           -1.316591894804     1.073657824144     0.879823756320
    H           -2.979890536947    -0.869839867942    -0.808467697216
    H           -3.608877882111     0.510356016325     0.071426269562
    H           -2.935166555253    -0.852079464628     0.945692032627

  Mulliken Charges: (a.u.)
   Center  Symbol    Alpha    Beta     Spin     Total
       1     H     0.26815  0.26815  0.00000  0.46370
       2     O     4.34975  4.34975  0.00000 -0.69949
       3     C     2.62222  2.62222  0.00000  0.75557
       4     C     3.21024  3.21024  0.00000 -0.42049
       5     O     4.27997  4.27997  0.00000 -0.55994
       6     C     3.15721  3.15721  0.00000 -0.31441
       7     H     0.39882  0.39882  0.00000  0.20237
       8     H     0.39870  0.39870  0.00000  0.20261
       9     C     3.24235  3.24235  0.00000 -0.48471
      10     H     0.41531  0.41531  0.00000  0.16938
      11     H     0.40262  0.40262  0.00000  0.19475
      12     H     0.42030  0.42030  0.00000  0.15939
      13     H     0.41444  0.41444  0.00000  0.17112
      14     H     0.41992  0.41992  0.00000  0.16015

   Total alpha = 24.00000, Total beta = 24.00000, Total charge = -0.00000
