                              Psi4 1.0.54 Driver

  ==> Input File <==

--------------------------------------------------------------------------
set {
	reference rhf
	basis cc-pvtz
}

set_num_threads( 4 )
memory 2 gb

molecule MOL {
0 1

O	 1.179411	 1.257888	 -0.337923
C	 1.121787	 0.124983	 0.000110
C	 -0.118971	 -0.583277	 0.480058
O	 2.167739	 -0.685178	 -0.000678
C	 -1.358595	 0.299161	 0.503730
H	 -0.263459	 -1.446888	 -0.160864
H	 0.099550	 -0.980581	 1.465887
C	 -2.595178	 -0.448730	 0.993456
H	 -1.537191	 0.692567	 -0.490692
H	 -1.174172	 1.158926	 1.138030
C	 -3.843960	 0.425787	 1.019006
H	 -2.772907	 -1.310913	 0.356044
H	 -2.410169	 -0.840709	 1.990131
H	 -4.075335	 0.805251	 0.029532
H	 -4.705183	 -0.130657	 1.370206
H	 -3.710043	 1.278782	 1.675548
C	 3.449556	 -0.089977	 -0.000570
H	 3.585694	 0.522473	 -0.879546
H	 4.155805	 -0.904274	 -0.001389
H	 3.586173	 0.521118	 0.879272

	symmetry c1
}
set optking {
	frozen_dihedral = ("
		1 2 4 17
	")
}

ee,wfn = optimize('scf', return_wfn=True)
oeprop( wfn, 'DIPOLE', 'QUADRUPOLE', 'MULLIKEN_CHARGES')
f=open( 'psi4out.xyz', 'w' )
f.write( "20  " )
f.write( str(ee) + "\n" )
f.write( MOL.save_string_xyz() )
f.close()
--------------------------------------------------------------------------

    Molecular point group: c1
  Charge       = 0
  Multiplicity = 1
  Basis Set: CC-PVTZ
  Basis Set:
  @DF-RHF Final Energy:  -384.08088015998845
    Total Energy =                       -384.0808801599879416
    Molecular point group: c1
  Basis Set: CC-PVTZ
  Basis Set:
  Basis Set: CC-PVTZ
  Basis Set:
  @DF-RHF Final Energy:  -384.07760118566779
    Total Energy =                       -384.0776011856680725
  Basis Set: CC-PVTZ
  Basis Set:
  Basis Set: CC-PVTZ
  Basis Set:
  @DF-RHF Final Energy:  -384.08109939060125
    Total Energy =                       -384.0810993906005706
  Basis Set: CC-PVTZ
  Basis Set:
  Basis Set: CC-PVTZ
  Basis Set:
  @DF-RHF Final Energy:  -384.08116002863329
    Total Energy =                       -384.0811600286333487
  Basis Set: CC-PVTZ
  Basis Set:
  Basis Set: CC-PVTZ
  Basis Set:
  @DF-RHF Final Energy:  -384.08116998364983
    Total Energy =                       -384.0811699836499429
  Basis Set: CC-PVTZ
  Basis Set:
  Basis Set: CC-PVTZ
  Basis Set:
  @DF-RHF Final Energy:  -384.08117580467064
    Total Energy =                       -384.0811758046702380
  Basis Set: CC-PVTZ
  Basis Set:
  Charge       = 0
  Multiplicity = 1
  Basis Set: CC-PVTZ
  Basis Set:

    Orbital Energies (a.u.)
    -----------------------

    Doubly Occupied:

       1A    -20.594484     2A    -20.535265     3A    -11.365092
       4A    -11.279498     5A    -11.234154     6A    -11.218587
       7A    -11.217457     8A    -11.208860     9A     -1.470874
      10A     -1.366207    11A     -1.090069    12A     -1.025093
      13A     -0.969862    14A     -0.887229    15A     -0.804847
      16A     -0.769265    17A     -0.698814    18A     -0.685608
      19A     -0.675938    20A     -0.646846    21A     -0.600311
      22A     -0.592894    23A     -0.580545    24A     -0.542785
      25A     -0.537027    26A     -0.523763    27A     -0.501762
      28A     -0.479418    29A     -0.475416    30A     -0.471304
      31A     -0.458813    32A     -0.439454

  @DF-RHF Final Energy:  -384.08117655497068

   => Energetics <=

    Nuclear Repulsion Energy =            381.5779758947061850
    One-Electron Energy =               -1279.4232277908929518
    Two-Electron Energy =                 513.7640753412158574
    DFT Exchange-Correlation Energy =       0.0000000000000000
    Empirical Dispersion Energy =           0.0000000000000000
    PCM Polarization Energy =               0.0000000000000000
    EFP Energy =                            0.0000000000000000
    Total Energy =                       -384.0811765549708525
    Molecular point group: c1
  Basis Set: CC-PVTZ
  Basis Set:

  -Total Gradient:
     Atom            X                  Y                   Z
    ------   -----------------  -----------------  -----------------
       1       -0.001675914072    -0.001248866288    -0.006145920138
       2        0.002559897499     0.001829294987     0.011854739452
       3       -0.000042528407    -0.000013802982    -0.000248264002
       4       -0.001117801684    -0.000224937133    -0.010366247940
       5        0.000021147245    -0.000021000619     0.000017358355
       6        0.000014592519    -0.000004779358     0.000005193172
       7        0.000012034974     0.000000564367     0.000001761167
       8       -0.000012762503     0.000014692025     0.000003909528
       9        0.000002687764     0.000002885542    -0.000005749818
      10       -0.000002025781     0.000002354192     0.000000748090
      11       -0.000003106638    -0.000021658387     0.000001619292
      12       -0.000000658330    -0.000001927974     0.000000559224
      13        0.000000113102     0.000001028663     0.000003137028
      14        0.000000462893     0.000006038576    -0.000003445902
      15       -0.000004452649     0.000001769681    -0.000001913080
      16        0.000002848068     0.000002321286    -0.000000254933
      17        0.000220365726    -0.000380074304     0.004974241622
      18        0.000014532524     0.000050570884    -0.000052772708
      19       -0.000007280945    -0.000031039662    -0.000017216539
      20        0.000017848703     0.000036566500    -0.000021481872

  **** Optimization is complete! (in 7 steps) ****
    Final optimized geometry and variables:
    Molecular point group: c1

    Geometry (in Angstrom), charge = 0, multiplicity = 1:

    O            1.184851459342     1.248660715991    -0.500052768757
    C            1.101279574031     0.096633612437    -0.244552841015
    C           -0.155096138741    -0.614464546650     0.186333917793
    O            2.117342109874    -0.747104882754    -0.361906108022
    C           -1.398518604830     0.262376671639     0.159708639254
    H           -0.269297316077    -1.484231473740    -0.451374615971
    H            0.027973485563    -1.002458846806     1.183998501113
    C           -2.648865564832    -0.487350187998     0.610215858140
    H           -1.543432318283     0.647159777215    -0.843901288406
    H           -1.240185572162     1.127712227161     0.793007675638
    C           -3.901303031044     0.381944559663     0.585032757178
    H           -2.800319729661    -1.354878756934    -0.026671473866
    H           -2.497770530477    -0.871317216956     1.615732370238
    H           -4.098992434062     0.753238823941    -0.414798358474
    H           -4.772219533013    -0.175605208044     0.909542207260
    H           -3.794183652186     1.240275169272     1.239536345464
    C            3.418747796906    -0.195811304676    -0.386005212964
    H            3.568299581156     0.403471716772    -1.271572054384
    H            4.097838445180    -1.032926165069    -0.385477067061
    H            3.585249648945     0.417693468604     0.487947423907

  Mulliken Charges: (a.u.)
   Center  Symbol    Alpha    Beta     Spin     Total
       1     O     4.19420  4.19420  0.00000 -0.38839
       2     C     2.80590  2.80590  0.00000  0.38819
       3     C     3.10059  3.10059  0.00000 -0.20118
       4     O     4.14864  4.14864  0.00000 -0.29728
       5     C     3.08185  3.08185  0.00000 -0.16370
       6     H     0.43849  0.43849  0.00000  0.12303
       7     H     0.44275  0.44275  0.00000  0.11451
       8     C     3.08667  3.08667  0.00000 -0.17334
       9     H     0.44752  0.44752  0.00000  0.10497
      10     H     0.44581  0.44581  0.00000  0.10839
      11     C     3.14922  3.14922  0.00000 -0.29845
      12     H     0.45509  0.45509  0.00000  0.08981
      13     H     0.45536  0.45536  0.00000  0.08927
      14     H     0.45385  0.45385  0.00000  0.09230
      15     H     0.44836  0.44836  0.00000  0.10328
      16     H     0.45385  0.45385  0.00000  0.09229
      17     C     3.03742  3.03742  0.00000 -0.07485
      18     H     0.45066  0.45066  0.00000  0.09867
      19     H     0.44526  0.44526  0.00000  0.10947
      20     H     0.45850  0.45850  0.00000  0.08299

   Total alpha = 32.00000, Total beta = 32.00000, Total charge =  0.00000

*** Psi4 exiting successfully. Buy a developer a beer!
