  ==> Input File <==

--------------------------------------------------------------------------
set {
	reference rhf
	basis 6-31G*
}

set_num_threads( 4 )
memory 2 gb

molecule MOL {
0 1

H	 -2.798360	 -0.862255	 -0.071053
N	 -1.863561	 -0.715187	 0.256814
C	 -1.344686	 0.554728	 -0.219830
H	 -1.300452	 -1.461917	 -0.101532
C	 0.081427	 0.741154	 0.254071
H	 -1.362155	 0.656231	 -1.305829
H	 -1.952773	 1.354456	 0.191809
O	 0.791194	 1.415031	 -0.745533
H	 0.098684	 1.317544	 1.178795
H	 0.532282	 -0.229641	 0.447772
C	 2.146903	 1.579171	 -0.475938
H	 2.585580	 2.108880	 -1.310605
H	 2.304857	 2.160171	 0.430965
H	 2.648791	 0.620403	 -0.363326

	symmetry c1
}
set optking {
	frozen_dihedral = ("
		8 5 3 6
	")
}

ee = optimize('scf')
oeprop('DIPOLE', 'QUADRUPOLE', 'MULLIKEN_CHARGES')
f=open( 'psi4out.xyz', 'w' )
f.write( "14  " )
f.write( str(ee) + "\n" )
f.write( MOL.save_string_xyz() )
f.close()
--------------------------------------------------------------------------

    Molecular point group: c1
  Charge       = 0
  Multiplicity = 1
  Basis Set: 6-31G*
  Basis Set:
  @DF-RHF Final Energy:  -248.11893865721044
    Total Energy =                       -248.1189386572105491
    Molecular point group: c1
  Basis Set: 6-31G*
  Basis Set:
  Basis Set: 6-31G*
  Basis Set:
  @DF-RHF Final Energy:  -248.11988991955442
    Total Energy =                       -248.1198899195545096
  Basis Set: 6-31G*
  Basis Set:
  Basis Set: 6-31G*
  Basis Set:
  @DF-RHF Final Energy:  -248.12005816898014
    Total Energy =                       -248.1200581689802220
  Basis Set: 6-31G*
  Basis Set:
  Basis Set: 6-31G*
  Basis Set:
  @DF-RHF Final Energy:  -248.12007525715447
    Total Energy =                       -248.1200752571543262
  Basis Set: 6-31G*
  Basis Set:
  Basis Set: 6-31G*
  Basis Set:
  @DF-RHF Final Energy:  -248.12008805523996
    Total Energy =                       -248.1200880552399894
  Basis Set: 6-31G*
  Basis Set:
  Charge       = 0
  Multiplicity = 1
  Basis Set: 6-31G*
  Basis Set:

    Orbital Energies (a.u.)
    -----------------------

    Doubly Occupied:

       1A    -20.554385     2A    -15.538307     3A    -11.264331
       4A    -11.264141     5A    -11.240908     6A     -1.379014
       7A     -1.180342     8A     -0.996983     9A     -0.900009
      10A     -0.823456    11A     -0.686051    12A     -0.663624
      13A     -0.652350    14A     -0.619129    15A     -0.585373
      16A     -0.567774    17A     -0.514892    18A     -0.497485
      19A     -0.469738    20A     -0.413812    21A     -0.385882

  @DF-RHF Final Energy:  -248.12008839459509

   => Energetics <=

    Nuclear Repulsion Energy =            190.8370910622574002
    One-Electron Energy =                -715.5183816854366796
    Two-Electron Energy =                 276.5612022285839657
    DFT Exchange-Correlation Energy =       0.0000000000000000
    Empirical Dispersion Energy =           0.0000000000000000
    PCM Polarization Energy =               0.0000000000000000
    EFP Energy =                            0.0000000000000000
    Total Energy =                       -248.1200883945953137
    Molecular point group: c1
  Basis Set: 6-31G*
  Basis Set:

  -Total Gradient:
     Atom            X                  Y                   Z
    ------   -----------------  -----------------  -----------------
       1        0.000005793586    -0.000010793525     0.000003726564
       2       -0.000008445609     0.000000636919    -0.000013134417
       3        0.001064367911    -0.006398736056    -0.000937760691
       4       -0.000009070441    -0.000016947586     0.000008394862
       5       -0.001218686073     0.005050544394     0.001944596838
       6       -0.000663262529     0.004478068304     0.000448934392
       7        0.000009447866     0.000019934452    -0.000007262822
       8        0.000865163441    -0.003115198385    -0.001460265141
       9       -0.000024284189    -0.000015481410     0.000024073599
      10       -0.000027371577    -0.000023051620     0.000029676086
      11        0.000006714521     0.000044052141    -0.000054763679
      12        0.000027255543     0.000005233249     0.000006841612
      13       -0.000006619153    -0.000012004022     0.000000919330
      14       -0.000021003300    -0.000006256856     0.000006023468

  **** Optimization is complete! (in 6 steps) ****
    Final optimized geometry and variables:
    Molecular point group: c1

    Geometry (in Angstrom), charge = 0, multiplicity = 1:

    H           -2.853672302952    -1.450432843303     0.328198235802
    N           -1.864319841504    -1.409482610692     0.475814104076
    C           -1.315468758995    -0.166423489384    -0.039131973991
    H           -1.464735254125    -2.196699107764     0.001258733450
    C            0.131058078631     0.006555147167     0.419814706945
    H           -1.339338605266    -0.060237675786    -1.122356814945
    H           -1.917497558862     0.646529864239     0.352708192073
    O            0.844330762134     0.675526149951    -0.577778436475
    H            0.178858726575     0.551024455010     1.360539407803
    H            0.575670848834    -0.972980042759     0.595422604376
    C            2.170007289026     0.940487592130    -0.249652334717
    H            2.621531526883     1.447159486419    -1.091746398922
    H            2.244552689312     1.580510695237     0.627627621764
    H            2.722670938288     0.023180365900    -0.053172839886

  Mulliken Charges: (a.u.)
   Center  Symbol    Alpha    Beta     Spin     Total
       1     H     0.33008  0.33008  0.00000  0.33985
       2     N     3.92657  3.92657  0.00000 -0.85313
       3     C     3.07673  3.07673  0.00000 -0.15345
       4     H     0.33281  0.33281  0.00000  0.33437
       5     C     2.98560  2.98560  0.00000  0.02881
       6     H     0.41662  0.41662  0.00000  0.16675
       7     H     0.41702  0.41702  0.00000  0.16596
       8     O     4.30790  4.30790  0.00000 -0.61580
       9     H     0.42619  0.42619  0.00000  0.14762
      10     H     0.42878  0.42878  0.00000  0.14244
      11     C     3.07956  3.07956  0.00000 -0.15912
      12     H     0.41249  0.41249  0.00000  0.17502
      13     H     0.42948  0.42948  0.00000  0.14105
      14     H     0.43018  0.43018  0.00000  0.13964

   Total alpha = 21.00000, Total beta = 21.00000, Total charge = -0.00000
