  ==> Input File <==

--------------------------------------------------------------------------
set {
	reference rhf
	basis 6-31G*
}

set_num_threads( 4 )
memory 2 gb

molecule MOL {
0 1

O	 3.392538	 1.157702	 0.104554
C	 2.790186	 0.157771	 0.328988
C	 1.322897	 0.072507	 0.673344
O	 3.347903	 -1.046386	 0.304773
C	 0.633142	 1.434701	 0.701307
H	 0.865984	 -0.600175	 -0.044933
H	 1.245573	 -0.424962	 1.636797
C	 -0.830591	 1.376167	 1.151369
H	 0.697525	 1.889537	 -0.282613
H	 1.184309	 2.087633	 1.369377
C	 -1.770927	 0.637647	 0.194568
H	 -1.187413	 2.396580	 1.270364
H	 -0.888420	 0.919705	 2.138439
C	 -3.235600	 0.701777	 0.632310
H	 -1.674651	 1.065005	 -0.802385
H	 -1.475302	 -0.405596	 0.109594
C	 -4.183830	 -0.037312	 -0.313597
H	 -3.543504	 1.743346	 0.706910
H	 -3.330818	 0.284364	 1.633509
C	 -5.644979	 0.034786	 0.128608
H	 -4.089223	 0.377878	 -1.314751
H	 -3.880289	 -1.079613	 -0.386068
H	 -6.291967	 -0.498012	 -0.561420
H	 -5.989514	 1.063926	 0.177212
H	 -5.778751	 -0.404256	 1.113301
C	 4.728119	 -1.109107	 -0.004993
H	 4.882018	 -1.033965	 -1.071845
H	 5.068212	 -2.067527	 0.355250
H	 5.265056	 -0.311663	 0.488280

	symmetry c1
}
set optking {
	frozen_dihedral = ("
		2 4 26 27
	")
}

ee = optimize('scf')
oeprop('DIPOLE', 'QUADRUPOLE', 'MULLIKEN_CHARGES')
f=open( 'psi4out.xyz', 'w' )
f.write( "29  " )
f.write( str(ee) + "\n" )
f.write( MOL.save_string_xyz() )
f.close()
--------------------------------------------------------------------------

    Molecular point group: c1
  Charge       = 0
  Multiplicity = 1
  Basis Set: 6-31G*
  Basis Set:
  @DF-RHF Final Energy:  -501.04346393757930
    Total Energy =                       -501.0434639375797587
    Molecular point group: c1
  Basis Set: 6-31G*
  Basis Set:
  Basis Set: 6-31G*
  Basis Set:
  @DF-RHF Final Energy:  -501.04350740473524
    Total Energy =                       -501.0435074047346689
  Basis Set: 6-31G*
  Basis Set:
  Basis Set: 6-31G*
  Basis Set:
  @DF-RHF Final Energy:  -501.04330638752481
    Total Energy =                       -501.0433063875238986
  Basis Set: 6-31G*
  Basis Set:
  Basis Set: 6-31G*
  Basis Set:
  @DF-RHF Final Energy:  -501.04355015651811
    Total Energy =                       -501.0435501565174263
  Basis Set: 6-31G*
  Basis Set:
  Basis Set: 6-31G*
  Basis Set:
  @DF-RHF Final Energy:  -501.04355995602384
    Total Energy =                       -501.0435599560239552
  Basis Set: 6-31G*
  Basis Set:
  Charge       = 0
  Multiplicity = 1
  Basis Set: 6-31G*
  Basis Set:

    Orbital Energies (a.u.)
    -----------------------

    Doubly Occupied:

       1A    -20.603153     2A    -20.544972     3A    -11.372321
       4A    -11.280384     5A    -11.234562     6A    -11.218933
       7A    -11.217533     8A    -11.215909     9A    -11.215782
      10A    -11.214385    11A    -11.209017    12A     -1.468318
      13A     -1.362644    14A     -1.097942    15A     -1.066719
      16A     -1.019525    17A     -0.977444    18A     -0.928552
      19A     -0.861473    20A     -0.799168    21A     -0.790393
      22A     -0.763531    23A     -0.700885    24A     -0.681763
      25A     -0.672187    26A     -0.650857    27A     -0.628795
      28A     -0.604739    29A     -0.594661    30A     -0.580917
      31A     -0.567487    32A     -0.549360    33A     -0.532569
      34A     -0.529517    35A     -0.515438    36A     -0.511881
      37A     -0.496224    38A     -0.477706    39A     -0.470148
      40A     -0.462282    41A     -0.458533    42A     -0.455481
      43A     -0.440713    44A     -0.435391

  @DF-RHF Final Energy:  -501.04355927788151

   => Energetics <=

    Nuclear Repulsion Energy =            609.9776284490710623
    One-Electron Energy =               -1891.0820002004959406
    Two-Electron Energy =                 780.0608124735439333
    DFT Exchange-Correlation Energy =       0.0000000000000000
    Empirical Dispersion Energy =           0.0000000000000000
    PCM Polarization Energy =               0.0000000000000000
    EFP Energy =                            0.0000000000000000
    Total Energy =                       -501.0435592778809450
    Molecular point group: c1
  Basis Set: 6-31G*
  Basis Set:

  -Total Gradient:
     Atom            X                  Y                   Z
    ------   -----------------  -----------------  -----------------
       1       -0.000008082339     0.000007596855     0.000003449227
       2        0.000270780357     0.000100348221     0.001263616894
       3        0.000029198623    -0.000005953939     0.000026479248
       4       -0.000419898147    -0.000544275301    -0.001807695906
       5       -0.000014088459     0.000002772040    -0.000048218929
       6        0.000035328641     0.000015645679    -0.000000341056
       7       -0.000001504312    -0.000008131667    -0.000005501506
       8        0.000004240550    -0.000020708877     0.000004744603
       9       -0.000000230242    -0.000015645482    -0.000006302367
      10       -0.000007251015     0.000021542722    -0.000002212686
      11       -0.000012178934     0.000003249103     0.000006794652
      12        0.000002360831     0.000001169562     0.000020833922
      13        0.000008784068    -0.000024972476    -0.000010276597
      14        0.000000928137     0.000012411474    -0.000004274567
      15        0.000011154773    -0.000009929778    -0.000010776262
      16       -0.000036765255     0.000019852057     0.000018645423
      17       -0.000000721383     0.000004342065    -0.000002289886
      18       -0.000004640236     0.000000454842     0.000010436707
      19        0.000005300457    -0.000007393981    -0.000005766749
      20       -0.000001146645     0.000008364341    -0.000005383231
      21        0.000001466239    -0.000004480841    -0.000002800947
      22       -0.000000920258    -0.000000016240     0.000005390680
      23       -0.000000176699     0.000002178137    -0.000001316628
      24       -0.000001683135     0.000000538321     0.000002243099
      25        0.000001867994    -0.000001387814    -0.000001734350
      26        0.000237771240     0.001942525635     0.000682432245
      27       -0.000083150404    -0.001497001188    -0.000134842240
      28       -0.000005369209    -0.000001533245     0.000003513762
      29       -0.000011375248    -0.000001560222     0.000001153444

  **** Optimization is complete! (in 6 steps) ****
    Final optimized geometry and variables:
    Molecular point group: c1

    Geometry (in Angstrom), charge = 0, multiplicity = 1:

    O            3.297740034593     0.876711743028    -0.251246949855
    C            2.700812364669    -0.126289703658    -0.026482170173
    C            1.234558302586    -0.216727051028     0.321441597168
    O            3.259165404536    -1.330420050236    -0.054201360760
    C            0.539611083407     1.142800523874     0.349871762879
    H            0.778775858435    -0.891568126795    -0.395522225692
    H            1.161146446236    -0.713965693098     1.285289715052
    C           -0.922469552825     1.079217226096     0.804622273218
    H            0.599220591471     1.596723985991    -0.634764074296
    H            1.090275642061     1.798667362124     1.015470715279
    C           -1.864403221972     0.341955027703    -0.151593857793
    H           -1.281244265707     2.098385872160     0.928356569446
    H           -0.975968006626     0.619203976229     1.790292989974
    C           -3.328334086412     0.405444566317     0.288733147141
    H           -1.769856217912     0.770730745163    -1.148099392333
    H           -1.568916401135    -0.701149925716    -0.238556766808
    C           -4.278388257433    -0.330816726477    -0.657539065785
    H           -3.635744645067     1.446920586570     0.366557071973
    H           -3.422046810126    -0.014535103747     1.288997887559
    C           -5.738939640619    -0.258287545120    -0.213420392334
    H           -4.184621272602     0.086356227827    -1.657944942400
    H           -3.975890472096    -1.373240439360    -0.732539538787
    H           -6.387269094649    -0.788911371242    -0.903870495592
    H           -6.082414765184     0.771072782334    -0.162087980812
    H           -5.871955141808    -0.699408921749     0.770445720707
    C            4.644806567266    -1.405339084446    -0.337753099362
    H            4.811630617975    -1.321343878692    -1.403232174745
    H            4.964546693322    -2.378958422042     0.001156835355
    H            5.187054174528    -0.628906084396     0.178381689624

  Mulliken Charges: (a.u.)
   Center  Symbol    Alpha    Beta     Spin     Total
       1     O     4.28583  4.28583  0.00000 -0.57165
       2     C     2.60473  2.60473  0.00000  0.79054
       3     C     3.20977  3.20977  0.00000 -0.41954
       4     O     4.30800  4.30800  0.00000 -0.61600
       5     C     3.15379  3.15379  0.00000 -0.30759
       6     H     0.39873  0.39873  0.00000  0.20254
       7     H     0.40140  0.40140  0.00000  0.19720
       8     C     3.15665  3.15665  0.00000 -0.31329
       9     H     0.41308  0.41308  0.00000  0.17384
      10     H     0.40878  0.40878  0.00000  0.18244
      11     C     3.15502  3.15502  0.00000 -0.31004
      12     H     0.41826  0.41826  0.00000  0.16348
      13     H     0.42390  0.42390  0.00000  0.15220
      14     C     3.15030  3.15030  0.00000 -0.30061
      15     H     0.42260  0.42260  0.00000  0.15479
      16     H     0.42361  0.42361  0.00000  0.15278
      17     C     3.15145  3.15145  0.00000 -0.30291
      18     H     0.42333  0.42333  0.00000  0.15334
      19     H     0.42399  0.42399  0.00000  0.15202
      20     C     3.23935  3.23935  0.00000 -0.47869
      21     H     0.42280  0.42280  0.00000  0.15441
      22     H     0.42343  0.42343  0.00000  0.15314
      23     H     0.41924  0.41924  0.00000  0.16153
      24     H     0.42155  0.42155  0.00000  0.15690
      25     H     0.42184  0.42184  0.00000  0.15632
      26     C     3.09352  3.09352  0.00000 -0.18704
      27     H     0.41242  0.41242  0.00000  0.17516
      28     H     0.40923  0.40923  0.00000  0.18154
      29     H     0.40341  0.40341  0.00000  0.19318

   Total alpha = 44.00000, Total beta = 44.00000, Total charge =  0.00000
