  ==> Input File <==

--------------------------------------------------------------------------
set {
	reference rhf
	basis cc-pvtz
}

set_num_threads( 4 )
memory 2 gb

molecule MOL {
0 1

H	 -2.498963	 -0.741158	 -0.729149
O	 -2.346257	 -0.289210	 0.080372
C	 -1.183935	 0.486039	 -0.009831
C	 0.062853	 -0.375310	 0.027457
H	 -1.178881	 1.094526	 -0.908634
H	 -1.184406	 1.155156	 0.838676
O	 1.172093	 0.457955	 -0.054438
H	 0.052476	 -1.081302	 -0.804627
H	 0.076323	 -0.955658	 0.947560
C	 2.380546	 -0.202695	 -0.239921
H	 2.383736	 -0.772737	 -1.166375
H	 3.161275	 0.542235	 -0.287111
H	 2.592486	 -0.881633	 0.582663

	symmetry c1
}
set optking {
	frozen_dihedral = ("
		10 7 4 8
	")
}

ee = optimize('scf')
oeprop('DIPOLE', 'QUADRUPOLE', 'MULLIKEN_CHARGES')
f=open( 'psi4out.xyz', 'w' )
f.write( "13  " )
f.write( str(ee) + "\n" )
f.write( MOL.save_string_xyz() )
f.close()
--------------------------------------------------------------------------

    Molecular point group: c1
  Charge       = 0
  Multiplicity = 1
  Basis Set: CC-PVTZ
  Basis Set:
  @DF-RHF Final Energy:  -268.06203263490181
    Total Energy =                       -268.0620326349020957
    Molecular point group: c1
  Basis Set: CC-PVTZ
  Basis Set:
  Basis Set: CC-PVTZ
  Basis Set:
  @DF-RHF Final Energy:  -268.06204838821873
    Total Energy =                       -268.0620483882185567
  Basis Set: CC-PVTZ
  Basis Set:
  Charge       = 0
  Multiplicity = 1
  Basis Set: CC-PVTZ
  Basis Set:

    Orbital Energies (a.u.)
    -----------------------

    Doubly Occupied:

       1A    -20.555921     2A    -20.553017     3A    -11.269295
       4A    -11.268025     5A    -11.267661     6A     -1.391860
       7A     -1.369367     8A     -1.019776     9A     -0.914254
      10A     -0.843107    11A     -0.712260    12A     -0.675275
      13A     -0.663647    14A     -0.640834    15A     -0.595903
      16A     -0.570193    17A     -0.549955    18A     -0.491612
      19A     -0.481713    20A     -0.443871    21A     -0.423358

  @DF-RHF Final Energy:  -268.06205187702562

   => Energetics <=

    Nuclear Repulsion Energy =            190.4886980295431158
    One-Electron Energy =                -743.6996848796734412
    Two-Electron Energy =                 285.1489349731047014
    DFT Exchange-Correlation Energy =       0.0000000000000000
    Empirical Dispersion Energy =           0.0000000000000000
    PCM Polarization Energy =               0.0000000000000000
    EFP Energy =                            0.0000000000000000
    Total Energy =                       -268.0620518770256240
    Molecular point group: c1
  Basis Set: CC-PVTZ
  Basis Set:

  -Total Gradient:
     Atom            X                  Y                   Z
    ------   -----------------  -----------------  -----------------
       1       -0.000021978027    -0.000019633535    -0.000003446144
       2        0.000028816247    -0.000022944228    -0.000029217287
       3       -0.000027964882     0.000077172453     0.000055213675
       4       -0.001006525997     0.001167858050    -0.001406393386
       5        0.000007396668    -0.000012781440    -0.000019067025
       6        0.000005693585     0.000008859534    -0.000008081687
       7        0.000398192514    -0.000336515780     0.001765244261
       8        0.000731863224    -0.000880937363     0.000799324528
       9        0.000007616723    -0.000035862670    -0.000035870548
      10       -0.000102546469     0.000035063940    -0.001127675714
      11        0.000002977082     0.000003623743     0.000001294250
      12       -0.000020403224     0.000009956855     0.000005858254
      13       -0.000003137442     0.000006140443     0.000002816823

  **** Optimization is complete! (in 3 steps) ****
    Final optimized geometry and variables:
    Molecular point group: c1

    Geometry (in Angstrom), charge = 0, multiplicity = 1:

    H           -2.506271744035    -0.747280304780    -0.655530388659
    O           -2.343707142567    -0.285570328975     0.146550661808
    C           -1.181786563433     0.487217363783     0.033587511000
    C            0.064455237518    -0.374728184993     0.063653251819
    H           -1.187997073812     1.087217205036    -0.870953736582
    H           -1.169878183261     1.164312546866     0.875670788428
    O            1.176011161039     0.457069635936    -0.007744343942
    H            0.058137726213    -1.078589935752    -0.769820781859
    H            0.077497927696    -0.963199759963     0.978909751594
    C            2.385944726356    -0.202651856168    -0.186102633261
    H            2.398162019819    -0.763227771202    -1.117991589882
    H            3.167363561302     0.542385487732    -0.217060508196
    H            2.590005944119    -0.889884370182     0.631882539243

  Mulliken Charges: (a.u.)
   Center  Symbol    Alpha    Beta     Spin     Total
       1     H     0.39444  0.39444  0.00000  0.21112
       2     O     4.20174  4.20174  0.00000 -0.40348
       3     C     2.97322  2.97322  0.00000  0.05355
       4     C     2.96517  2.96517  0.00000  0.06966
       5     H     0.46719  0.46719  0.00000  0.06563
       6     H     0.45238  0.45238  0.00000  0.09525
       7     O     4.17561  4.17561  0.00000 -0.35122
       8     H     0.48368  0.48368  0.00000  0.03265
       9     H     0.46762  0.46762  0.00000  0.06475
      10     C     3.03191  3.03191  0.00000 -0.06383
      11     H     0.47081  0.47081  0.00000  0.05837
      12     H     0.44600  0.44600  0.00000  0.10800
      13     H     0.47023  0.47023  0.00000  0.05954

   Total alpha = 21.00000, Total beta = 21.00000, Total charge = -0.00000
