  ==> Input File <==

--------------------------------------------------------------------------
set {
	reference rhf
	basis 6-31G*
}

set_num_threads( 4 )
memory 2 gb

molecule MOL {
0 1

O	 -2.821601	 1.309235	 -0.001213
C	 -2.668563	 0.129746	 -0.000350
C	 -3.801572	 -0.864014	 -0.000442
O	 -1.481751	 -0.454642	 0.000584
H	 -4.417280	 -0.689587	 -0.874708
H	 -3.443784	 -1.883046	 -0.000565
H	 -4.417179	 -0.689832	 0.873954
C	 -0.334255	 0.388708	 0.000906
C	 0.891947	 -0.504646	 0.000751
H	 -0.365390	 1.025305	 -0.873475
H	 -0.365484	 1.024911	 0.875569
C	 2.191998	 0.301789	 0.000897
H	 0.855148	 -1.151283	 -0.871571
H	 0.855132	 -1.151660	 0.872805
C	 3.435896	 -0.572965	 -0.165988
H	 2.162958	 1.038893	 -0.799677
H	 2.271598	 0.863421	 0.930045
C	 4.734274	 0.232689	 -0.167181
H	 3.358169	 -1.134645	 -1.094185
H	 3.467730	 -1.308653	 0.634524
H	 4.746964	 0.954998	 -0.978429
H	 5.597468	 -0.414402	 -0.287207
H	 4.857519	 0.779398	 0.763373

	symmetry c1
}
set optking {
	frozen_dihedral = ("
		16 12 9 13
	")
}

ee = optimize('scf')
oeprop('DIPOLE', 'QUADRUPOLE', 'MULLIKEN_CHARGES')
f=open( 'psi4out.xyz', 'w' )
f.write( "23  " )
f.write( str(ee) + "\n" )
f.write( MOL.save_string_xyz() )
f.close()
--------------------------------------------------------------------------

    Molecular point group: c1
  Charge       = 0
  Multiplicity = 1
  Basis Set: 6-31G*
  Basis Set:
  @DF-RHF Final Energy:  -422.97937179906495
    Total Energy =                       -422.9793717990652340
    Molecular point group: c1
  Basis Set: 6-31G*
  Basis Set:
  Basis Set: 6-31G*
  Basis Set:
  @DF-RHF Final Energy:  -422.97938160049074
    Total Energy =                       -422.9793816004911378
  Basis Set: 6-31G*
  Basis Set:
  Basis Set: 6-31G*
  Basis Set:
  @DF-RHF Final Energy:  -422.97939530316717
    Total Energy =                       -422.9793953031670526
  Basis Set: 6-31G*
  Basis Set:
  Basis Set: 6-31G*
  Basis Set:
  @DF-RHF Final Energy:  -422.97938420543835
    Total Energy =                       -422.9793842054384641
  Basis Set: 6-31G*
  Basis Set:
  Basis Set: 6-31G*
  Basis Set:
  @DF-RHF Final Energy:  -422.97939930495545
    Total Energy =                       -422.9793993049556775
  Basis Set: 6-31G*
  Basis Set:
  Charge       = 0
  Multiplicity = 1
  Basis Set: 6-31G*
  Basis Set:

    Orbital Energies (a.u.)
    -----------------------

    Doubly Occupied:

       1A    -20.603073     2A    -20.540590     3A    -11.374138
       4A    -11.281632     5A    -11.232416     6A    -11.224407
       7A    -11.223802     8A    -11.221812     9A    -11.213013
      10A     -1.468033    11A     -1.360802    12A     -1.094224
      13A     -1.042334    14A     -1.003486    15A     -0.930991
      16A     -0.841790    17A     -0.802870    18A     -0.774546
      19A     -0.692081    20A     -0.685105    21A     -0.668117
      22A     -0.646305    23A     -0.606132    24A     -0.588576
      25A     -0.582268    26A     -0.566643    27A     -0.558778
      28A     -0.537273    29A     -0.523260    30A     -0.505057
      31A     -0.490880    32A     -0.478086    33A     -0.470648
      34A     -0.466161    35A     -0.451264    36A     -0.435389

  @DF-RHF Final Energy:  -422.97939936282978

   => Energetics <=

    Nuclear Repulsion Energy =            449.6019016164279947
    One-Electron Energy =               -1466.7906439014359421
    Two-Electron Energy =                 594.2093429221781662
    DFT Exchange-Correlation Energy =       0.0000000000000000
    Empirical Dispersion Energy =           0.0000000000000000
    PCM Polarization Energy =               0.0000000000000000
    EFP Energy =                            0.0000000000000000
    Total Energy =                       -422.9793993628297812
    Molecular point group: c1
  Basis Set: 6-31G*
  Basis Set:

  -Total Gradient:
     Atom            X                  Y                   Z
    ------   -----------------  -----------------  -----------------
       1       -0.000001049824     0.000001438114     0.000013192651
       2       -0.000001232243    -0.000002566625    -0.000026242381
       3       -0.000000534373     0.000000779196     0.000010511264
       4       -0.000003663241     0.000002445247     0.000010648377
       5        0.000001359578    -0.000000148289    -0.000001527109
       6        0.000000197515     0.000000088794     0.000000040226
       7       -0.000001533421     0.000000019515    -0.000001341573
       8        0.000004604414    -0.000001432707    -0.000020030427
       9       -0.000736392316     0.001212903217    -0.000563441500
      10        0.000002140668    -0.000001032959     0.000005449996
      11       -0.000005724396    -0.000000386039     0.000003780382
      12        0.000697378106    -0.001131914393    -0.000756952391
      13        0.000511146863    -0.000828538701     0.000592266789
      14       -0.000003915250     0.000004044218     0.000006416633
      15        0.000001905029    -0.000001083595     0.000025745158
      16       -0.000480314602     0.000756086521     0.000704029823
      17        0.000011656682    -0.000010495834     0.000001361164
      18        0.000001056975    -0.000001172920    -0.000011006843
      19        0.000003693680     0.000006019742     0.000003378866
      20       -0.000002061883    -0.000004075134     0.000001173080
      21       -0.000002655895     0.000003767489     0.000005239093
      22        0.000001988142     0.000001707477    -0.000005984337
      23        0.000001949796    -0.000006452335     0.000003293059

  **** Optimization is complete! (in 6 steps) ****
    Final optimized geometry and variables:
    Molecular point group: c1

    Geometry (in Angstrom), charge = 0, multiplicity = 1:

    O           -2.821760495239     1.306989300550     0.040982902520
    C           -2.668215173495     0.127571815837     0.045642150932
    C           -3.800743567387    -0.866547885862     0.064711361407
    O           -1.481254435063    -0.456445136403     0.034944632229
    H           -4.427744503485    -0.696334029762    -0.802321646380
    H           -3.442587189471    -1.885453295896     0.064680431504
    H           -4.405083884926    -0.688541312535     0.946169386332
    C           -0.334216223206     0.387257088746     0.016525235491
    C            0.892201294183    -0.505043935910     0.006922275443
    H           -0.375951921217     1.018658900250    -0.861084707008
    H           -0.355048142090     1.028676030668     0.887788687649
    C            2.193339270857     0.300222965879     0.015862883979
    H            0.857087117859    -1.150555857251    -0.866426544293
    H            0.857216179458    -1.158496417144     0.874361313847
    C            3.439186495240    -0.574275428823    -0.132601676562
    H            2.172296184699     1.040392876867    -0.782408476672
    H            2.260519551987     0.864038633737     0.944719002131
    C            4.738351725314     0.229254779820    -0.096187691944
    H            3.381193111158    -1.125688060813    -1.068276386689
    H            3.451990892919    -1.318731642754     0.660421580894
    H            4.768285216688     0.962854371198    -0.896790680735
    H            5.602904564493    -0.417483271320    -0.207956405740
    H            4.843581638379     0.762637580930     0.844232681081

  Mulliken Charges: (a.u.)
   Center  Symbol    Alpha    Beta     Spin     Total
       1     O     4.28390  4.28390  0.00000 -0.56780
       2     C     2.61532  2.61532  0.00000  0.76937
       3     C     3.28774  3.28774  0.00000 -0.57549
       4     O     4.31270  4.31270  0.00000 -0.62540
       5     H     0.39749  0.39749  0.00000  0.20502
       6     H     0.39985  0.39985  0.00000  0.20030
       7     H     0.39749  0.39749  0.00000  0.20501
       8     C     2.99565  2.99565  0.00000  0.00870
       9     C     3.16491  3.16491  0.00000 -0.32983
      10     H     0.41053  0.41053  0.00000  0.17893
      11     H     0.41065  0.41065  0.00000  0.17870
      12     C     3.16009  3.16009  0.00000 -0.32017
      13     H     0.41444  0.41444  0.00000  0.17112
      14     H     0.41406  0.41406  0.00000  0.17189
      15     C     3.15147  3.15147  0.00000 -0.30295
      16     H     0.42104  0.42104  0.00000  0.15791
      17     H     0.42052  0.42052  0.00000  0.15895
      18     C     3.23992  3.23992  0.00000 -0.47983
      19     H     0.42130  0.42130  0.00000  0.15741
      20     H     0.42134  0.42134  0.00000  0.15732
      21     H     0.42078  0.42078  0.00000  0.15845
      22     H     0.41798  0.41798  0.00000  0.16403
      23     H     0.42082  0.42082  0.00000  0.15837

   Total alpha = 36.00000, Total beta = 36.00000, Total charge = -0.00000
