  ==> Input File <==

--------------------------------------------------------------------------
set {
	reference rhf
	basis 6-31G*
}

set_num_threads( 4 )
memory 2 gb

molecule MOL {
0 1

O	 -1.426348	 2.196658	 -1.956250
C	 -1.593982	 1.271659	 -1.220920
C	 -0.653105	 0.079770	 -1.242257
C	 -2.723141	 1.251636	 -0.214951
C	 0.645510	 0.392942	 -0.481558
H	 -0.421512	 -0.137865	 -2.279226
H	 -1.133731	 -0.794384	 -0.812280
C	 1.631333	 -0.777471	 -0.511575
H	 1.090277	 1.278147	 -0.921987
H	 0.413531	 0.639402	 0.553425
C	 2.915987	 -0.544314	 0.291766
H	 1.889634	 -1.001481	 -1.544931
H	 1.135138	 -1.664038	 -0.122167
C	 3.373361	 0.914346	 0.347591
H	 3.708709	 -1.142521	 -0.150311
H	 2.780642	 -0.921148	 1.303579
H	 3.506512	 1.320010	 -0.651625
H	 4.322697	 0.999599	 0.867103
H	 2.660624	 1.545032	 0.868198
H	 -3.428905	 0.466613	 -0.473605
H	 -3.232499	 2.205220	 -0.211043
H	 -2.347856	 1.029542	 0.779856

	symmetry c1
}
set optking {
	frozen_dihedral = ("
		12 8 11 15
	")
}

ee = optimize('scf')
oeprop('DIPOLE', 'QUADRUPOLE', 'MULLIKEN_CHARGES')
f=open( 'psi4out.xyz', 'w' )
f.write( "22  " )
f.write( str(ee) + "\n" )
f.write( MOL.save_string_xyz() )
f.close()
--------------------------------------------------------------------------

    Molecular point group: c1
  Charge       = 0
  Multiplicity = 1
  Basis Set: 6-31G*
  Basis Set:
  @DF-RHF Final Energy:  -348.09352989467999
    Total Energy =                       -348.0935298946802163
    Molecular point group: c1
  Basis Set: 6-31G*
  Basis Set:
  Basis Set: 6-31G*
  Basis Set:
  @DF-RHF Final Energy:  -348.09392840383560
    Total Energy =                       -348.0939284038355481
  Basis Set: 6-31G*
  Basis Set:
  Basis Set: 6-31G*
  Basis Set:
  @DF-RHF Final Energy:  -348.09434267134628
    Total Energy =                       -348.0943426713465669
  Basis Set: 6-31G*
  Basis Set:
  Basis Set: 6-31G*
  Basis Set:
  @DF-RHF Final Energy:  -348.09434331970914
    Total Energy =                       -348.0943433197091963
  Basis Set: 6-31G*
  Basis Set:
  @DF-RHF Final Energy:  -348.09441087418998
    Total Energy =                       -348.0944108741899754
  Basis Set: 6-31G*
  Basis Set:
  @DF-RHF Final Energy:  -348.09443586475697
    Total Energy =                       -348.0944358647570880
  Basis Set: 6-31G*
  Basis Set:
  Basis Set: 6-31G*
  Basis Set:
  @DF-RHF Final Energy:  -348.09442763718630
    Total Energy =                       -348.0944276371862998
  Basis Set: 6-31G*
  Basis Set:
  Basis Set: 6-31G*
  Basis Set:
  @DF-RHF Final Energy:  -348.09443406799869
    Total Energy =                       -348.0944340679988045
  Basis Set: 6-31G*
  Basis Set:
  Charge       = 0
  Multiplicity = 1
  Basis Set: 6-31G*
  Basis Set:

    Orbital Energies (a.u.)
    -----------------------

    Doubly Occupied:

       1A    -20.547367     2A    -11.324477     3A    -11.229835
       4A    -11.229106     5A    -11.228240     6A    -11.222396
       7A    -11.220936     8A    -11.210927     9A     -1.393134
      10A     -1.094857    11A     -1.043189    12A     -0.999188
      13A     -0.937230    14A     -0.862199    15A     -0.780709
      16A     -0.733186    17A     -0.663950    18A     -0.644483
      19A     -0.629180    20A     -0.617375    21A     -0.593654
      22A     -0.586400    23A     -0.561437    24A     -0.538338
      25A     -0.533754    26A     -0.524840    27A     -0.498275
      28A     -0.488080    29A     -0.466587    30A     -0.462916
      31A     -0.459084    32A     -0.396314

  @DF-RHF Final Energy:  -348.09443922471434

   => Energetics <=

    Nuclear Repulsion Energy =            373.9533156265259208
    One-Electron Energy =               -1212.6522222314215469
    Two-Electron Energy =                 490.6044673801814611
    DFT Exchange-Correlation Energy =       0.0000000000000000
    Empirical Dispersion Energy =           0.0000000000000000
    PCM Polarization Energy =               0.0000000000000000
    EFP Energy =                            0.0000000000000000
    Total Energy =                       -348.0944392247142218
    Molecular point group: c1
  Basis Set: 6-31G*
  Basis Set:

  -Total Gradient:
     Atom            X                  Y                   Z
    ------   -----------------  -----------------  -----------------
       1        0.000018657000    -0.000006379566     0.000011194178
       2       -0.000039559726    -0.000005666391     0.000006379829
       3        0.000015457307    -0.000005008344     0.000031566214
       4       -0.000007412937     0.000013312189    -0.000006785840
       5        0.000047327074     0.000023814013    -0.000067272635
       6        0.000013864292    -0.000012623552    -0.000000086201
       7       -0.000009222839     0.000003645524    -0.000008272125
       8        0.000352616823     0.008152743120    -0.002418653295
       9        0.000010121729     0.000008912391     0.000003849859
      10       -0.000011629395    -0.000027294517    -0.000002773155
      11       -0.002012002209    -0.006766653873     0.004642418750
      12       -0.000019045863    -0.005814432762     0.001340012959
      13       -0.000013835639    -0.000000979675     0.000013158302
      14       -0.000004980502     0.000005715407     0.000009601875
      15        0.001642714209     0.004451663255    -0.003558107578
      16        0.000011822891    -0.000013824149    -0.000001079238
      17       -0.000001219538    -0.000003619918    -0.000000347282
      18        0.000002894259     0.000002286522     0.000001742297
      19        0.000000965457    -0.000003434300    -0.000000181271
      20       -0.000000552315    -0.000002040585     0.000001991372
      21       -0.000003579173     0.000000634659     0.000003236171
      22        0.000006599089    -0.000000769449    -0.000001593184

  **** Optimization is complete! (in 9 steps) ****
    Final optimized geometry and variables:
    Molecular point group: c1

    Geometry (in Angstrom), charge = 0, multiplicity = 1:

    O           -1.743556378838     1.577638864228    -1.340908143882
    C           -1.894441475750     0.648881206235    -0.606813887949
    C           -0.931398059104    -0.525278605637    -0.628218105566
    C           -3.028343364260     0.603104679275     0.393185739104
    C            0.355386767977    -0.192636277010     0.143990314077
    H           -0.687874175455    -0.732041032468    -1.664722293572
    H           -1.399400141487    -1.410671620409    -0.207533031301
    C            1.359245484414    -1.344927591571     0.103842986263
    H            0.785177181835     0.705852123483    -0.283379398483
    H            0.110359481694     0.037947289967     1.179551906922
    C            2.644718751343    -1.155550632182     0.934253979835
    H            1.622359013879    -1.581788387432    -0.924633086343
    H            0.861514067587    -2.242855009588     0.466942499051
    C            3.203357144848     0.271433489505     0.957250611939
    H            3.417962608618    -1.785557040377     0.503924205093
    H            2.479851590344    -1.489282893632     1.954542819410
    H            3.382157400034     0.642112240303    -0.048204243559
    H            4.149700301178     0.296063364420     1.488641903460
    H            2.534174383345     0.966929195981     1.452267161620
    H           -3.717160448416    -0.194672988568     0.128055178555
    H           -3.556316242936     1.546489611726     0.397483090335
    H           -2.654117467560     0.384963349965     1.389237956620

  Mulliken Charges: (a.u.)
   Center  Symbol    Alpha    Beta     Spin     Total
       1     O     4.26229  4.26229  0.00000 -0.52458
       2     C     2.73722  2.73722  0.00000  0.52557
       3     C     3.19977  3.19977  0.00000 -0.39954
       4     C     3.28953  3.28953  0.00000 -0.57906
       5     C     3.16485  3.16485  0.00000 -0.32970
       6     H     0.40110  0.40110  0.00000  0.19780
       7     H     0.41685  0.41685  0.00000  0.16630
       8     C     3.15482  3.15482  0.00000 -0.30964
       9     H     0.40274  0.40274  0.00000  0.19452
      10     H     0.42094  0.42094  0.00000  0.15811
      11     C     3.15272  3.15272  0.00000 -0.30544
      12     H     0.41910  0.41910  0.00000  0.16180
      13     H     0.42234  0.42234  0.00000  0.15532
      14     C     3.24413  3.24413  0.00000 -0.48825
      15     H     0.41911  0.41911  0.00000  0.16178
      16     H     0.42111  0.42111  0.00000  0.15777
      17     H     0.41979  0.41979  0.00000  0.16041
      18     H     0.41845  0.41845  0.00000  0.16310
      19     H     0.41941  0.41941  0.00000  0.16119
      20     H     0.40684  0.40684  0.00000  0.18632
      21     H     0.39708  0.39708  0.00000  0.20584
      22     H     0.40981  0.40981  0.00000  0.18038

   Total alpha = 32.00000, Total beta = 32.00000, Total charge =  0.00000
