                              Psi4 1.0.54 Driver

  ==> Input File <==

--------------------------------------------------------------------------
set {
	reference rhf
	basis cc-pvtz
}

set_num_threads( 4 )
memory 2 gb

molecule MOL {
0 1

H	 3.721907	 -0.933076	 -0.066039
O	 2.824271	 -1.154299	 0.131461
C	 2.076458	 -0.067370	 -0.038225
C	 0.626018	 -0.337582	 0.258241
O	 2.538288	 0.965419	 -0.381593
C	 -0.267326	 0.883135	 0.076490
H	 0.325620	 -1.161483	 -0.378003
H	 0.574537	 -0.713685	 1.275261
C	 -1.726822	 0.642622	 0.463839
H	 -0.210803	 1.217591	 -0.953497
H	 0.129920	 1.693110	 0.675679
C	 -2.480891	 -0.340606	 -0.429852
H	 -2.243098	 1.597649	 0.438609
H	 -1.776542	 0.301208	 1.495542
C	 -2.170611	 -0.147598	 -1.910713
H	 -2.225319	 -1.355716	 -0.137841
H	 -3.550932	 -0.239285	 -0.279178
H	 -2.715658	 -0.857669	 -2.521782
H	 -1.112838	 -0.282885	 -2.109487
H	 -2.442707	 0.849590	 -2.240462

	symmetry c1
}
set optking {
	frozen_dihedral = ("
		16 12 9 6
	")
}

ee,wfn = optimize('scf', return_wfn=True)
oeprop( wfn, 'DIPOLE', 'QUADRUPOLE', 'MULLIKEN_CHARGES')
f=open( 'psi4out.xyz', 'w' )
f.write( "20  " )
f.write( str(ee) + "\n" )
f.write( MOL.save_string_xyz() )
f.close()
--------------------------------------------------------------------------

    Molecular point group: c1
  Charge       = 0
  Multiplicity = 1
  Basis Set: CC-PVTZ
  Basis Set:
  @DF-RHF Final Energy:  -384.09016439872966
    Total Energy =                       -384.0901643987301668
    Molecular point group: c1
  Basis Set: CC-PVTZ
  Basis Set:
  Basis Set: CC-PVTZ
  Basis Set:
  @DF-RHF Final Energy:  -384.01979508112646
    Total Energy =                       -384.0197950811267447
  Basis Set: CC-PVTZ
  Basis Set:
  Basis Set: CC-PVTZ
  Basis Set:
  @DF-RHF Final Energy:  -383.94155122582475
    Total Energy =                       -383.9415512258245826
  Basis Set: CC-PVTZ
  Basis Set:
  Basis Set: CC-PVTZ
  Basis Set:
  @DF-RHF Final Energy:  -384.03710944893101
    Total Energy =                       -384.0371094489310053
  Basis Set: CC-PVTZ
  Basis Set:
  @DF-RHF Final Energy:  -384.08211762349481
    Total Energy =                       -384.0821176234946961
  @DF-RHF Final Energy:  -384.08985460043465
    Total Energy =                       -384.0898546004349328
  @DF-RHF Final Energy:  -384.09166144691221
    Total Energy =                       -384.0916614469125534
  @DF-RHF Final Energy:  -384.09184154981864
    Total Energy =                       -384.0918415498188097
  @DF-RHF Final Energy:  -384.09172504635114
    Total Energy =                       -384.0917250463517121
  Basis Set: CC-PVTZ
  Basis Set:
  @DF-RHF Final Energy:  -384.09214076311940
    Total Energy =                       -384.0921407631193460
  Basis Set: CC-PVTZ
  Basis Set:
  Basis Set: CC-PVTZ
  Basis Set:
  @DF-RHF Final Energy:  -384.09215670404723
    Total Energy =                       -384.0921567040478521
  Basis Set: CC-PVTZ
  Basis Set:
  Basis Set: CC-PVTZ
  Basis Set:
  @DF-RHF Final Energy:  -384.09215795119053
    Total Energy =                       -384.0921579511901882
  Basis Set: CC-PVTZ
  Basis Set:
  Charge       = 0
  Multiplicity = 1
  Basis Set: CC-PVTZ
  Basis Set:

    Orbital Energies (a.u.)
    -----------------------

    Doubly Occupied:

       1A    -20.603773     2A    -20.540391     3A    -11.373262
       4A    -11.238374     5A    -11.220001     6A    -11.219098
       7A    -11.218483     8A    -11.211420     9A     -1.477338
      10A     -1.368824    11A     -1.097247    12A     -1.039172
      13A     -0.961625    14A     -0.882246    15A     -0.816560
      16A     -0.765689    17A     -0.703322    18A     -0.693363
      19A     -0.669745    20A     -0.628337    21A     -0.625025
      22A     -0.584941    23A     -0.571478    24A     -0.568123
      25A     -0.533879    26A     -0.513870    27A     -0.506772
      28A     -0.484269    29A     -0.467109    30A     -0.463487
      31A     -0.458609    32A     -0.445539

  @DF-RHF Final Energy:  -384.09215803080900

   => Energetics <=

    Nuclear Repulsion Energy =            383.9285349917934695
    One-Electron Energy =               -1284.1386383242486318
    Two-Electron Energy =                 516.1179453016462730
    DFT Exchange-Correlation Energy =       0.0000000000000000
    Empirical Dispersion Energy =           0.0000000000000000
    PCM Polarization Energy =               0.0000000000000000
    EFP Energy =                            0.0000000000000000
    Total Energy =                       -384.0921580308089460
    Molecular point group: c1
  Basis Set: CC-PVTZ
  Basis Set:

  -Total Gradient:
     Atom            X                  Y                   Z
    ------   -----------------  -----------------  -----------------
       1       -0.000003558564    -0.000004713671     0.000000715238
       2        0.000009457037     0.000032753981    -0.000016480650
       3       -0.000006460396    -0.000025525936     0.000016936846
       4        0.000004991615     0.000006102236    -0.000009696962
       5        0.000004706392    -0.000004473710     0.000008869043
       6        0.000795047879     0.002165781872    -0.002409083860
       7       -0.000008173276     0.000001761794     0.000001414684
       8       -0.000000896481     0.000000481732     0.000000533333
       9       -0.002217904130    -0.003263125140     0.003290585653
      10       -0.000007151439    -0.000000986075     0.000000745539
      11        0.000007638963    -0.000008389029    -0.000002985414
      12        0.005790378246     0.001592221563    -0.000077971273
      13       -0.000002219506    -0.000009973012    -0.000002048664
      14        0.000008948189     0.000000747687    -0.000005668875
      15       -0.000001656446     0.000005859273     0.000005513134
      16       -0.004375228791    -0.000489468363    -0.000813635110
      17        0.000006417387     0.000002286989     0.000007731103
      18        0.000000487397     0.000000584916     0.000003634392
      19       -0.000002705404     0.000002366823     0.000001573071
      20       -0.000002118667    -0.000004293933    -0.000000681222

  **** Optimization is complete! (in 13 steps) ****
    Final optimized geometry and variables:
    Molecular point group: c1

    Geometry (in Angstrom), charge = 0, multiplicity = 1:

    H            2.111211715906    -0.267691216361     2.957555021137
    O            1.416300823628    -0.643837409027     2.438581321692
    C            1.000987332260     0.270379972656     1.566148861785
    C           -0.109092338131    -0.253161409021     0.695547073367
    O            1.476515564594     1.351738737509     1.514857404136
    C           -0.631542701668     0.769080873437    -0.306186363479
    H            0.268692336931    -1.144279878936     0.207043092401
    H           -0.899723806315    -0.593336215789     1.356794345294
    C           -1.790955110355     0.247496771149    -1.156912205028
    H            0.180928210110     1.102908940700    -0.937935589759
    H           -0.964273024779     1.646077104700     0.235642521441
    C           -1.482072863810    -0.920349961416    -2.104375715402
    H           -2.150790588179     1.080790862595    -1.753584787392
    H           -2.616816888442    -0.036512997364    -0.510947121592
    C           -0.210691891961    -0.778747880787    -2.934842569567
    H           -1.477463689018    -1.857624437920    -1.555270479595
    H           -2.324575820545    -1.010338282312    -2.784056126082
    H           -0.133019037306    -1.589356492888    -3.649867874731
    H            0.684707940059    -0.796591973993    -2.325420801391
    H           -0.209887210423     0.152679372027    -3.491546931436

  Mulliken Charges: (a.u.)
   Center  Symbol    Alpha    Beta     Spin     Total
       1     H     0.38242  0.38242  0.00000  0.23516
       2     O     4.16031  4.16031  0.00000 -0.32063
       3     C     2.80348  2.80348  0.00000  0.39303
       4     C     3.11238  3.11238  0.00000 -0.22477
       5     O     4.19110  4.19110  0.00000 -0.38220
       6     C     3.10106  3.10106  0.00000 -0.20213
       7     H     0.43707  0.43707  0.00000  0.12587
       8     H     0.43602  0.43602  0.00000  0.12796
       9     C     3.10525  3.10525  0.00000 -0.21049
      10     H     0.44204  0.44204  0.00000  0.11592
      11     H     0.43587  0.43587  0.00000  0.12827
      12     C     3.10055  3.10055  0.00000 -0.20109
      13     H     0.44465  0.44465  0.00000  0.11070
      14     H     0.44842  0.44842  0.00000  0.10315
      15     C     3.15462  3.15462  0.00000 -0.30924
      16     H     0.45070  0.45070  0.00000  0.09860
      17     H     0.44488  0.44488  0.00000  0.11025
      18     H     0.44410  0.44410  0.00000  0.11180
      19     H     0.45403  0.45403  0.00000  0.09195
      20     H     0.45105  0.45105  0.00000  0.09789

   Total alpha = 32.00000, Total beta = 32.00000, Total charge = -0.00000

*** Psi4 exiting successfully. Buy a developer a beer!
