                              Psi4 1.0.54 Driver

  ==> Input File <==

--------------------------------------------------------------------------
set {
	reference rhf
	basis cc-pvtz
}

set_num_threads( 4 )
memory 2 gb

molecule MOL {
0 1

H	 2.190573	 -0.629143	 -0.208718
O	 1.355408	 -0.529451	 0.208662
C	 0.700177	 0.619554	 -0.266242
C	 -0.713111	 0.588314	 0.266177
H	 0.678680	 0.627133	 -1.351786
H	 1.199747	 1.521489	 0.077736
O	 -1.421673	 -0.521378	 -0.196983
H	 -1.244794	 1.469161	 -0.069059
H	 -0.685100	 0.604721	 1.352683
H	 -1.201567	 -0.660796	 -1.101493

	symmetry c1
}
set optking {
	frozen_dihedral = ("
		10 7 4 3
	")
}

ee,wfn = optimize('scf', return_wfn=True)
oeprop( wfn, 'DIPOLE', 'QUADRUPOLE', 'MULLIKEN_CHARGES')
f=open( 'psi4out.xyz', 'w' )
f.write( "10  " )
f.write( str(ee) + "\n" )
f.write( MOL.save_string_xyz() )
f.close()
--------------------------------------------------------------------------

    Molecular point group: c1
  Charge       = 0
  Multiplicity = 1
  Basis Set: CC-PVTZ
  Basis Set:
  @DF-RHF Final Energy:  -229.02130969529850
    Total Energy =                       -229.0213096952985836
    Molecular point group: c1
  Basis Set: CC-PVTZ
  Basis Set:
  Basis Set: CC-PVTZ
  Basis Set:
  @DF-RHF Final Energy:  -229.02295053798196
    Total Energy =                       -229.0229505379819273
  Basis Set: CC-PVTZ
  Basis Set:
  Basis Set: CC-PVTZ
  Basis Set:
  @DF-RHF Final Energy:  -229.02321401554443
    Total Energy =                       -229.0232140155444540
  Basis Set: CC-PVTZ
  Basis Set:
  Basis Set: CC-PVTZ
  Basis Set:
  @DF-RHF Final Energy:  -229.02322677413036
    Total Energy =                       -229.0232267741303076
  Basis Set: CC-PVTZ
  Basis Set:
  Basis Set: CC-PVTZ
  Basis Set:
  @DF-RHF Final Energy:  -229.02322841966944
    Total Energy =                       -229.0232284196693513
  Basis Set: CC-PVTZ
  Basis Set:
  Basis Set: CC-PVTZ
  Basis Set:
  @DF-RHF Final Energy:  -229.02323148128650
    Total Energy =                       -229.0232314812864729
  Basis Set: CC-PVTZ
  Basis Set:
  Basis Set: CC-PVTZ
  Basis Set:
  @DF-RHF Final Energy:  -229.02323373782099
    Total Energy =                       -229.0232337378211014
  Basis Set: CC-PVTZ
  Basis Set:
  Charge       = 0
  Multiplicity = 1
  Basis Set: CC-PVTZ
  Basis Set:

    Orbital Energies (a.u.)
    -----------------------

    Doubly Occupied:

       1A    -20.554740     2A    -20.544886     3A    -11.277603
       4A    -11.268371     5A     -1.381181     6A     -1.357898
       7A     -1.005190     8A     -0.849505     9A     -0.722908
      10A     -0.676992    11A     -0.661139    12A     -0.601576
      13A     -0.574388    14A     -0.551376    15A     -0.475073
      16A     -0.452153    17A     -0.441923

  @DF-RHF Final Energy:  -229.02323378819020

   => Energetics <=

    Nuclear Repulsion Energy =            133.6446301216575137
    One-Electron Energy =                -578.5419233415684630
    Two-Electron Energy =                 215.8740594317209229
    DFT Exchange-Correlation Energy =       0.0000000000000000
    Empirical Dispersion Energy =           0.0000000000000000
    PCM Polarization Energy =               0.0000000000000000
    EFP Energy =                            0.0000000000000000
    Total Energy =                       -229.0232337881899980
    Molecular point group: c1
  Basis Set: CC-PVTZ
  Basis Set:

  -Total Gradient:
     Atom            X                  Y                   Z
    ------   -----------------  -----------------  -----------------
       1        0.000003204918    -0.000006449408     0.000003089744
       2       -0.000005671441     0.000030002965    -0.000010789638
       3       -0.000084569977     0.000157143073    -0.000286266913
       4        0.000216122947    -0.000359393174     0.000465563704
       5        0.000002166702     0.000004443728    -0.000007423389
       6        0.000003960222     0.000002206557     0.000000260039
       7       -0.000535682669     0.000533383382    -0.000351867676
       8       -0.000000772146    -0.000003244132     0.000001115642
       9       -0.000003432841    -0.000001470236     0.000003122890
      10        0.000404674283    -0.000356622755     0.000183195599

  **** Optimization is complete! (in 8 steps) ****
    Final optimized geometry and variables:
    Molecular point group: c1

    Geometry (in Angstrom), charge = 0, multiplicity = 1:

    H            2.273940914882    -0.573236701857     0.023816359237
    O            1.376337958562    -0.555430134001     0.299930776634
    C            0.732996437627     0.571288203408    -0.219044437763
    C           -0.710778074956     0.585727053349     0.228953238747
    H            0.775517101000     0.573415369562    -1.308773161022
    H            1.205438318638     1.488063187713     0.126677003019
    O           -1.463265072164    -0.493626788309    -0.240010746499
    H           -1.151816153931     1.528715071510    -0.088793777400
    H           -0.750803317856     0.545777825291     1.308961238924
    H           -1.237230726364    -0.689822559937    -1.130844419658

  Mulliken Charges: (a.u.)
   Center  Symbol    Alpha    Beta     Spin     Total
       1     H     0.39528  0.39528  0.00000  0.20945
       2     O     4.19173  4.19173  0.00000 -0.38347
       3     C     2.97199  2.97199  0.00000  0.05602
       4     C     2.95664  2.95664  0.00000  0.08673
       5     H     0.48146  0.48146  0.00000  0.03708
       6     H     0.47258  0.47258  0.00000  0.05485
       7     O     4.19875  4.19875  0.00000 -0.39750
       8     H     0.47693  0.47693  0.00000  0.04614
       9     H     0.45962  0.45962  0.00000  0.08076
      10     H     0.39503  0.39503  0.00000  0.20994

   Total alpha = 17.00000, Total beta = 17.00000, Total charge = -0.00000

*** Psi4 exiting successfully. Buy a developer a beer!
