                              Psi4 1.0.54 Driver

  ==> Input File <==

--------------------------------------------------------------------------
set {
	reference rhf
	basis cc-pvtz
}

set_num_threads( 4 )
memory 2 gb

molecule MOL {
0 1

H	 -3.335249	 -0.942579	 -0.289536
O	 -2.509321	 -0.602645	 -0.579922
C	 -2.021813	 0.336996	 0.342658
C	 -0.669613	 0.837286	 -0.127252
H	 -2.709946	 1.174342	 0.426610
H	 -1.928121	 -0.112685	 1.329265
C	 0.490865	 -0.082543	 0.241244
H	 -0.708709	 0.967192	 -1.204587
H	 -0.507562	 1.822272	 0.303070
C	 1.839800	 0.429565	 -0.255472
H	 0.305636	 -1.070211	 -0.165276
H	 0.527397	 -0.195943	 1.322876
C	 3.001144	 -0.485193	 0.119072
H	 1.804373	 0.541073	 -1.335756
H	 2.020437	 1.423114	 0.146921
H	 2.866892	 -1.477297	 -0.298806
H	 3.943543	 -0.095749	 -0.249061
H	 3.085064	 -0.590459	 1.195790

	symmetry c1
}
set optking {
	frozen_dihedral = ("
		2 3 4 8
	")
}

ee,wfn = optimize('scf', return_wfn=True)
oeprop( wfn, 'DIPOLE', 'QUADRUPOLE', 'MULLIKEN_CHARGES')
f=open( 'psi4out.xyz', 'w' )
f.write( "18  " )
f.write( str(ee) + "\n" )
f.write( MOL.save_string_xyz() )
f.close()
--------------------------------------------------------------------------

    Molecular point group: c1
  Charge       = 0
  Multiplicity = 1
  Basis Set: CC-PVTZ
  Basis Set:
  @DF-RHF Final Energy:  -271.28546761039263
    Total Energy =                       -271.2854676103924589
    Molecular point group: c1
  Basis Set: CC-PVTZ
  Basis Set:
  Basis Set: CC-PVTZ
  Basis Set:
  @DF-RHF Final Energy:  -271.28568089790440
    Total Energy =                       -271.2856808979042853
  Basis Set: CC-PVTZ
  Basis Set:
  Basis Set: CC-PVTZ
  Basis Set:
  @DF-RHF Final Energy:  -271.28570830227193
    Total Energy =                       -271.2857083022719280
  Basis Set: CC-PVTZ
  Basis Set:
  Basis Set: CC-PVTZ
  Basis Set:
  @DF-RHF Final Energy:  -271.28571059046641
    Total Energy =                       -271.2857105904664650
  Basis Set: CC-PVTZ
  Basis Set:
  Charge       = 0
  Multiplicity = 1
  Basis Set: CC-PVTZ
  Basis Set:

    Orbital Energies (a.u.)
    -----------------------

    Doubly Occupied:

       1A    -20.546188     2A    -11.265721     3A    -11.209943
       4A    -11.209880     5A    -11.206887     6A    -11.203664
       7A     -1.363601     8A     -1.077380     9A     -1.010171
      10A     -0.914087    11A     -0.819280    12A     -0.786402
      13A     -0.708892    14A     -0.636940    15A     -0.633188
      16A     -0.581444    17A     -0.571484    18A     -0.561812
      19A     -0.525804    20A     -0.499647    21A     -0.489714
      22A     -0.469843    23A     -0.461140    24A     -0.453046
      25A     -0.428479

  @DF-RHF Final Energy:  -271.28571114792209

   => Energetics <=

    Nuclear Repulsion Energy =            248.5560856878976779
    One-Electron Energy =                -860.4143238436620322
    Two-Electron Energy =                 340.5725270078422113
    DFT Exchange-Correlation Energy =       0.0000000000000000
    Empirical Dispersion Energy =           0.0000000000000000
    PCM Polarization Energy =               0.0000000000000000
    EFP Energy =                            0.0000000000000000
    Total Energy =                       -271.2857111479221999
    Molecular point group: c1
  Basis Set: CC-PVTZ
  Basis Set:

  -Total Gradient:
     Atom            X                  Y                   Z
    ------   -----------------  -----------------  -----------------
       1       -0.000029619926    -0.000034214729    -0.000028720901
       2       -0.001344110719     0.002078265717    -0.001426698977
       3        0.001999625588    -0.003419097812     0.001789986766
       4       -0.001824335432     0.004910344005     0.000111580716
       5       -0.000013713655    -0.000000841786     0.000010704282
       6       -0.000006608639    -0.000006829777    -0.000012728100
       7        0.000019697695    -0.000056194105     0.000002141072
       8        0.001192124473    -0.003468139845    -0.000447216035
       9       -0.000007007181    -0.000027744018    -0.000002660064
      10       -0.000001424621    -0.000009378647    -0.000016714798
      11        0.000000460220     0.000012652474     0.000008504603
      12       -0.000005307691     0.000002000893     0.000005853068
      13        0.000001223939     0.000013607814     0.000012410685
      14        0.000003823530     0.000002543129    -0.000005546643
      15        0.000008684485     0.000003123885    -0.000003723232
      16       -0.000002757933     0.000004937503    -0.000001625756
      17        0.000008005832     0.000002444907     0.000003952500
      18        0.000001240026    -0.000007479612     0.000000500813

  **** Optimization is complete! (in 5 steps) ****
    Final optimized geometry and variables:
    Molecular point group: c1

    Geometry (in Angstrom), charge = 0, multiplicity = 1:

    H           -3.234604696703    -1.047879719930    -0.209297646541
    O           -2.443026401141    -0.643775232547    -0.513053823684
    C           -1.987587486743     0.297011694544     0.426185509682
    C           -0.636950967537     0.823008142427    -0.030199512293
    H           -2.697074561257     1.117508858118     0.497631481442
    H           -1.904908169814    -0.152276596723     1.413114946387
    C            0.520636708018    -0.118184944367     0.298421011450
    H           -0.683798454978     0.953769198732    -1.106136871802
    H           -0.460176849250     1.795766182483     0.417916790747
    C            1.861824024394     0.364819084083    -0.245290439211
    H            0.300815546102    -1.102110125214    -0.104165118434
    H            0.593698360410    -0.234692506756     1.377626236276
    C            3.017867980988    -0.569636197268     0.095375154397
    H            1.792395399179     0.472585507985    -1.324154541521
    H            2.073559681636     1.356543079710     0.146296900329
    H            2.851270210636    -1.561187921697    -0.312109398163
    H            3.954323083724    -0.199933389613    -0.306579175979
    H            3.136243219794    -0.670866607800     1.169223215466

  Mulliken Charges: (a.u.)
   Center  Symbol    Alpha    Beta     Spin     Total
       1     H     0.39524  0.39524  0.00000  0.20952
       2     O     4.19990  4.19990  0.00000 -0.39980
       3     C     2.97110  2.97110  0.00000  0.05779
       4     C     3.09030  3.09030  0.00000 -0.18060
       5     H     0.46637  0.46637  0.00000  0.06725
       6     H     0.47485  0.47485  0.00000  0.05030
       7     C     3.08847  3.08847  0.00000 -0.17695
       8     H     0.45075  0.45075  0.00000  0.09850
       9     H     0.45216  0.45216  0.00000  0.09567
      10     C     3.08431  3.08431  0.00000 -0.16862
      11     H     0.44806  0.44806  0.00000  0.10388
      12     H     0.45903  0.45903  0.00000  0.08194
      13     C     3.14985  3.14985  0.00000 -0.29969
      14     H     0.45341  0.45341  0.00000  0.09319
      15     H     0.45650  0.45650  0.00000  0.08701
      16     H     0.45457  0.45457  0.00000  0.09087
      17     H     0.44905  0.44905  0.00000  0.10190
      18     H     0.45608  0.45608  0.00000  0.08783

   Total alpha = 25.00000, Total beta = 25.00000, Total charge = -0.00000

*** Psi4 exiting successfully. Buy a developer a beer!
