                              Psi4 1.0.54 Driver

  ==> Input File <==

--------------------------------------------------------------------------
set {
	reference rhf
	basis cc-pvtz
}

set_num_threads( 4 )
memory 2 gb

molecule MOL {
0 1

H	 0.579340	 -2.085832	 0.884347
C	 -0.178698	 -1.330119	 1.098182
N	 -0.537714	 -0.645117	 0.000000
O	 -0.609218	 -1.167124	 2.195818
C	 -1.522613	 0.412524	 0.000000
H	 -0.095777	 -0.887340	 -0.852058
H	 -2.150256	 0.356137	 -0.880771
H	 -1.005621	 1.357208	 0.000000
H	 -2.150256	 0.356137	 0.880771

	symmetry c1
}
set optking {
	frozen_dihedral = ("
		6 3 5 7
	")
}

ee,wfn = optimize('scf', return_wfn=True)
oeprop( wfn, 'DIPOLE', 'QUADRUPOLE', 'MULLIKEN_CHARGES')
f=open( 'psi4out.xyz', 'w' )
f.write( "9  " )
f.write( str(ee) + "\n" )
f.write( MOL.save_string_xyz() )
f.close()
--------------------------------------------------------------------------

    Molecular point group: c1
  Charge       = 0
  Multiplicity = 1
  Basis Set: CC-PVTZ
  Basis Set:
  @DF-RHF Final Energy:  -208.04293222739727
    Total Energy =                       -208.0429322273972730
    Molecular point group: c1
  Basis Set: CC-PVTZ
  Basis Set:
  Basis Set: CC-PVTZ
  Basis Set:
  @DF-RHF Final Energy:  -208.04348029695680
    Total Energy =                       -208.0434802969567727
  Basis Set: CC-PVTZ
  Basis Set:
  Basis Set: CC-PVTZ
  Basis Set:
  @DF-RHF Final Energy:  -208.04357627597409
    Total Energy =                       -208.0435762759740896
  Basis Set: CC-PVTZ
  Basis Set:
  Basis Set: CC-PVTZ
  Basis Set:
  @DF-RHF Final Energy:  -208.04350149820033
    Total Energy =                       -208.0435014982002713
  Basis Set: CC-PVTZ
  Basis Set:
  Basis Set: CC-PVTZ
  Basis Set:
  @DF-RHF Final Energy:  -208.04360524191293
    Total Energy =                       -208.0436052419129567
  Basis Set: CC-PVTZ
  Basis Set:
  Basis Set: CC-PVTZ
  Basis Set:
  @DF-RHF Final Energy:  -208.04362634847308
    Total Energy =                       -208.0436263484730830
  Basis Set: CC-PVTZ
  Basis Set:
  Basis Set: CC-PVTZ
  Basis Set:
  @DF-RHF Final Energy:  -208.04364214659898
    Total Energy =                       -208.0436421465990406
  Basis Set: CC-PVTZ
  Basis Set:
  Charge       = 0
  Multiplicity = 1
  Basis Set: CC-PVTZ
  Basis Set:

    Orbital Energies (a.u.)
    -----------------------

    Doubly Occupied:

       1A    -20.516646     2A    -15.584771     3A    -11.337078
       4A    -11.259617     5A     -1.394044     6A     -1.239693
       7A     -0.970044     8A     -0.808410     9A     -0.748786
      10A     -0.646330    11A     -0.629696    12A     -0.596499
      13A     -0.556713    14A     -0.540330    15A     -0.428619
      16A     -0.396429

  @DF-RHF Final Energy:  -208.04364341755050

   => Energetics <=

    Nuclear Repulsion Energy =            122.7899486726704197
    One-Electron Energy =                -526.3597718538629806
    Two-Electron Energy =                 195.5261797636421193
    DFT Exchange-Correlation Energy =       0.0000000000000000
    Empirical Dispersion Energy =           0.0000000000000000
    PCM Polarization Energy =               0.0000000000000000
    EFP Energy =                            0.0000000000000000
    Total Energy =                       -208.0436434175504132
    Molecular point group: c1
  Basis Set: CC-PVTZ
  Basis Set:

  -Total Gradient:
     Atom            X                  Y                   Z
    ------   -----------------  -----------------  -----------------
       1       -0.000010195385     0.000007763784     0.000007324320
       2        0.000077797433    -0.000070871279    -0.000025433220
       3       -0.000209863646    -0.000117276243    -0.000018660453
       4       -0.000034596996     0.000045922147    -0.000073672147
       5        0.000111286268     0.000121930470    -0.000009449242
       6        0.000136541361     0.000073546193     0.000073271663
       7       -0.000068758145    -0.000070562093     0.000073937372
       8       -0.000008768052    -0.000007418867    -0.000015090793
       9        0.000006557162     0.000016965888    -0.000012227496

  **** Optimization is complete! (in 8 steps) ****
    Final optimized geometry and variables:
    Molecular point group: c1

    Geometry (in Angstrom), charge = 0, multiplicity = 1:

    H            1.280379150337    -1.436539895571     0.077778678399
    C            0.541152215040    -0.659726837269     0.282309976006
    N            0.133016280305    -0.031800388366    -0.832967944560
    O            0.154409414502    -0.432765755221     1.384667257968
    C           -0.796884260812     1.074843024522    -0.817107579743
    H            0.595626162319    -0.256701593792    -1.678762098958
    H           -1.377487593420     1.071036576243    -1.729246404885
    H           -0.289799581492     2.028703582858    -0.727041532594
    H           -1.462524730066     0.960936325158     0.022888977959

  Mulliken Charges: (a.u.)
   Center  Symbol    Alpha    Beta     Spin     Total
       1     H     0.46341  0.46341  0.00000  0.07318
       2     C     2.88080  2.88080  0.00000  0.23840
       3     N     3.60689  3.60689  0.00000 -0.21377
       4     O     4.21418  4.21418  0.00000 -0.42836
       5     C     3.07910  3.07910  0.00000 -0.15820
       6     H     0.41036  0.41036  0.00000  0.17928
       7     H     0.45376  0.45376  0.00000  0.09248
       8     H     0.45540  0.45540  0.00000  0.08921
       9     H     0.43611  0.43611  0.00000  0.12778

   Total alpha = 16.00000, Total beta = 16.00000, Total charge =  0.00000

*** Psi4 exiting successfully. Buy a developer a beer!
