  ==> Input File <==

--------------------------------------------------------------------------
set {
	reference rhf
	basis cc-pvtz
}

set_num_threads( 4 )
memory 2 gb

molecule MOL {
0 1

O	 -1.278239	 1.034789	 -0.784693
C	 -1.204115	 0.062668	 -0.112312
C	 -2.386398	 -0.667698	 0.460323
O	 -0.068058	 -0.518372	 0.226882
H	 -2.382952	 -1.693172	 0.114333
H	 -3.296656	 -0.175702	 0.158400
H	 -2.312537	 -0.685191	 1.540100
C	 1.169086	 0.037484	 -0.230612
C	 0.804578	 1.128945	 -1.217000
C	 2.029227	 -1.053251	 -0.843034
H	 1.676786	 0.462567	 0.621816
H	 0.188039	 1.882226	 -0.743506
H	 1.702465	 1.606442	 -1.590507
H	 0.258580	 0.719468	 -2.058516
H	 2.961329	 -0.631910	 -1.201026
H	 2.261712	 -1.814882	 -0.111927
H	 1.518640	 -1.514117	 -1.681000

	symmetry c1
}
set optking {
	frozen_dihedral = ("
		11 8 4 2
	")
}

ee = optimize('scf')
oeprop('DIPOLE', 'QUADRUPOLE', 'MULLIKEN_CHARGES')
f=open( 'psi4out.xyz', 'w' )
f.write( "17  " )
f.write( str(ee) + "\n" )
f.write( MOL.save_string_xyz() )
f.close()
--------------------------------------------------------------------------

    Molecular point group: c1
  Charge       = 0
  Multiplicity = 1
  Basis Set: CC-PVTZ
  Basis Set:
  @DF-RHF Final Energy:  -344.97624467987492
    Total Energy =                       -344.9762446798749806
    Molecular point group: c1
  Basis Set: CC-PVTZ
  Basis Set:
  Basis Set: CC-PVTZ
  Basis Set:
  @DF-RHF Final Energy:  -345.01685373651571
    Total Energy =                       -345.0168537365151451
  Basis Set: CC-PVTZ
  Basis Set:
  Basis Set: CC-PVTZ
  Basis Set:
  @DF-RHF Final Energy:  -345.02653950027315
    Total Energy =                       -345.0265395002729747
  Basis Set: CC-PVTZ
  Basis Set:
  Basis Set: CC-PVTZ
  Basis Set:
  @DF-RHF Final Energy:  -345.02768801468670
    Total Energy =                       -345.0276880146865324
  Basis Set: CC-PVTZ
  Basis Set:
  @DF-RHF Final Energy:  -345.03089321859665
    Total Energy =                       -345.0308932185965887
  @DF-RHF Final Energy:  -345.03178348651591
    Total Energy =                       -345.0317834865160762
  Basis Set: CC-PVTZ
  Basis Set:
  @DF-RHF Final Energy:  -345.03185779853675
    Total Energy =                       -345.0318577985370325
  Basis Set: CC-PVTZ
  Basis Set:
  Basis Set: CC-PVTZ
  Basis Set:
  @DF-RHF Final Energy:  -345.03187217697058
    Total Energy =                       -345.0318721769710919
  Basis Set: CC-PVTZ
  Basis Set:
  Basis Set: CC-PVTZ
  Basis Set:
  @DF-RHF Final Energy:  -345.03187570430333
    Total Energy =                       -345.0318757043035021
  Basis Set: CC-PVTZ
  Basis Set:
  Charge       = 0
  Multiplicity = 1
  Basis Set: CC-PVTZ
  Basis Set:

    Orbital Energies (a.u.)
    -----------------------

    Doubly Occupied:

       1A    -20.588245     2A    -20.527260     3A    -11.367112
       4A    -11.295871     5A    -11.227612     6A    -11.218058
       7A    -11.210862     8A     -1.461233     9A     -1.363913
      10A     -1.081406    11A     -1.002667    12A     -0.946500
      13A     -0.864515    14A     -0.744097    15A     -0.689424
      16A     -0.681768    17A     -0.659066    18A     -0.614124
      19A     -0.586629    20A     -0.579935    21A     -0.559336
      22A     -0.547543    23A     -0.540358    24A     -0.516652
      25A     -0.507196    26A     -0.485580    27A     -0.441647
      28A     -0.431014

  @DF-RHF Final Energy:  -345.03187639972651

   => Energetics <=

    Nuclear Repulsion Energy =            323.8711597007731484
    One-Electron Energy =               -1112.3268209169650618
    Two-Electron Energy =                 443.4237848164653997
    DFT Exchange-Correlation Energy =       0.0000000000000000
    Empirical Dispersion Energy =           0.0000000000000000
    PCM Polarization Energy =               0.0000000000000000
    EFP Energy =                            0.0000000000000000
    Total Energy =                       -345.0318763997264568
    Molecular point group: c1
  Basis Set: CC-PVTZ
  Basis Set:

  -Total Gradient:
     Atom            X                  Y                   Z
    ------   -----------------  -----------------  -----------------
       1        0.000023133339     0.000013438398     0.000026058040
       2       -0.000209829062    -0.001451013720    -0.002077704040
       3       -0.000011588114    -0.000049826310    -0.000085094642
       4        0.000474456005     0.001837192097     0.003333993532
       5        0.000005653583    -0.000004845252     0.000034092123
       6        0.000008549672     0.000006408110     0.000010758812
       7       -0.000006135931     0.000022175075     0.000032512998
       8       -0.001430002326     0.001849897934    -0.001636960611
       9        0.000010692413     0.000039988743    -0.000019780446
      10       -0.000003208275     0.000016415154     0.000019201489
      11        0.001118140681    -0.002252196748     0.000394205493
      12        0.000016838796    -0.000023003521    -0.000011193636
      13       -0.000006786261     0.000003879038     0.000001896119
      14        0.000000595970     0.000005627015    -0.000013248677
      15        0.000007036550    -0.000005682218    -0.000004844516
      16        0.000002773366    -0.000002789958    -0.000003393606
      17       -0.000000320403    -0.000005663838    -0.000000498433

  **** Optimization is complete! (in 10 steps) ****
    Final optimized geometry and variables:
    Molecular point group: c1

    Geometry (in Angstrom), charge = 0, multiplicity = 1:

    O           -1.418720299792     1.057961529504    -0.245273328234
    C           -1.147236251035     0.045724593103     0.302944366271
    C           -2.173015218067    -0.893473038974     0.880545100013
    O            0.068660406198    -0.420455430660     0.513889624167
    H           -2.080795083963    -1.865821069404     0.414262095093
    H           -3.160509944674    -0.493964224865     0.715790543250
    H           -1.993832286548    -1.019629182509     1.940462571852
    C            1.318118504554     0.113425246813     0.042577087857
    C            1.253132611990     1.201080579571    -1.016603435863
    C            2.106762922936    -1.093445657322    -0.438614815977
    H            1.803634533722     0.502120231354     0.929140675586
    H            0.777373971909     2.098182352547    -0.659081680877
    H            2.274395511390     1.434766913032    -1.296927733231
    H            0.726599947518     0.866534856238    -1.900233119899
    H            3.123847535008    -0.804927424427    -0.674948913246
    H            2.135011470680    -1.858575040288     0.325854592368
    H            1.654058251990    -1.514501877067    -1.328984570321

  Mulliken Charges: (a.u.)
   Center  Symbol    Alpha    Beta     Spin     Total
       1     O     4.19816  4.19816  0.00000 -0.39631
       2     C     2.80932  2.80932  0.00000  0.38135
       3     C     3.13545  3.13545  0.00000 -0.27091
       4     O     4.16233  4.16233  0.00000 -0.32466
       5     H     0.44733  0.44733  0.00000  0.10535
       6     H     0.43907  0.43907  0.00000  0.12186
       7     H     0.44603  0.44603  0.00000  0.10793
       8     C     2.93746  2.93746  0.00000  0.12507
       9     C     3.15455  3.15455  0.00000 -0.30910
      10     C     3.13850  3.13850  0.00000 -0.27701
      11     H     0.44754  0.44754  0.00000  0.10492
      12     H     0.43227  0.43227  0.00000  0.13547
      13     H     0.45228  0.45228  0.00000  0.09545
      14     H     0.44617  0.44617  0.00000  0.10766
      15     H     0.45436  0.45436  0.00000  0.09128
      16     H     0.44556  0.44556  0.00000  0.10889
      17     H     0.45362  0.45362  0.00000  0.09277

   Total alpha = 28.00000, Total beta = 28.00000, Total charge = -0.00000
