  ==> Input File <==

--------------------------------------------------------------------------
set {
	reference rhf
	basis cc-pvtz
}

set_num_threads( 4 )
memory 2 gb

molecule MOL {
0 1

H	 3.283750	 -0.486419	 -0.006941
C	 2.228218	 -0.291958	 -0.005294
C	 1.765747	 0.998519	 0.204760
C	 1.339195	 -1.327498	 -0.212206
H	 2.462852	 1.798028	 0.364837
C	 0.412456	 1.252282	 0.207644
H	 1.699818	 -2.324554	 -0.374398
C	 -0.019631	 -1.071079	 -0.209029
H	 0.035693	 2.242701	 0.368193
C	 -0.486398	 0.214248	 0.000000
H	 -0.717138	 -1.872288	 -0.369413
C	 -1.946525	 0.470130	 0.000000
O	 -2.779618	 -0.371226	 0.000000
H	 -2.227127	 1.528393	 0.000000

	symmetry c1
}
set optking {
	frozen_dihedral = ("
		8 10 12 14
	")
}

ee = optimize('scf')
oeprop('DIPOLE', 'QUADRUPOLE', 'MULLIKEN_CHARGES')
f=open( 'psi4out.xyz', 'w' )
f.write( "14  " )
f.write( str(ee) + "\n" )
f.write( MOL.save_string_xyz() )
f.close()
--------------------------------------------------------------------------

    Molecular point group: c1
  Charge       = 0
  Multiplicity = 1
  Basis Set: CC-PVTZ
  Basis Set:
  @DF-RHF Final Energy:  -343.54948505760569
    Total Energy =                       -343.5494850576056365
    Molecular point group: c1
  Basis Set: CC-PVTZ
  Basis Set:
  Basis Set: CC-PVTZ
  Basis Set:
  @DF-RHF Final Energy:  -343.54912172924008
    Total Energy =                       -343.5491217292400279
  Basis Set: CC-PVTZ
  Basis Set:
  Basis Set: CC-PVTZ
  Basis Set:
  @DF-RHF Final Energy:  -343.54959566013002
    Total Energy =                       -343.5495956601301941
  Basis Set: CC-PVTZ
  Basis Set:
  Basis Set: CC-PVTZ
  Basis Set:
  @DF-RHF Final Energy:  -343.54980017667867
    Total Energy =                       -343.5498001766785592
  Basis Set: CC-PVTZ
  Basis Set:
  Basis Set: CC-PVTZ
  Basis Set:
  @DF-RHF Final Energy:  -343.54980508712100
    Total Energy =                       -343.5498050871210012
  Basis Set: CC-PVTZ
  Basis Set:
  Charge       = 0
  Multiplicity = 1
  Basis Set: CC-PVTZ
  Basis Set:

    Orbital Energies (a.u.)
    -----------------------

    Doubly Occupied:

       1A    -20.552841     2A    -11.327024     3A    -11.252642
       4A    -11.250144     5A    -11.246695     6A    -11.245410
       7A    -11.243919     8A    -11.242326     9A     -1.408712
      10A     -1.177125    11A     -1.051807    12A     -1.036210
      13A     -0.892712    14A     -0.848457    15A     -0.794568
      16A     -0.725564    17A     -0.682356    18A     -0.656589
      19A     -0.623775    20A     -0.621335    21A     -0.606110
      22A     -0.561665    23A     -0.530274    24A     -0.510165
      25A     -0.508408    26A     -0.425584    27A     -0.355799
      28A     -0.352595

  @DF-RHF Final Energy:  -343.54980642884237

   => Energetics <=

    Nuclear Repulsion Energy =            323.9554510264902660
    One-Electron Energy =               -1107.5488904349122095
    Two-Electron Energy =                 440.0436329795798542
    DFT Exchange-Correlation Energy =       0.0000000000000000
    Empirical Dispersion Energy =           0.0000000000000000
    PCM Polarization Energy =               0.0000000000000000
    EFP Energy =                            0.0000000000000000
    Total Energy =                       -343.5498064288421460
    Molecular point group: c1
  Basis Set: CC-PVTZ
  Basis Set:

  -Total Gradient:
     Atom            X                  Y                   Z
    ------   -----------------  -----------------  -----------------
       1       -0.000001996087    -0.000005581359     0.000006814851
       2       -0.000012173718     0.000035722201    -0.000020490710
       3        0.000024479980    -0.000006536367    -0.000023761249
       4       -0.000016449109     0.000002943784     0.000028843692
       5        0.000000576139    -0.000002304465    -0.000001674637
       6       -0.000019635210     0.000002478071     0.000069665170
       7        0.000001076655    -0.000000413273    -0.000003738816
       8        0.000087126618     0.000304866235    -0.001518900501
       9        0.000013348894    -0.000012609808    -0.000017169702
      10       -0.000107011287    -0.000439677464     0.001644723324
      11       -0.000011477052    -0.000003914674    -0.000010085578
      12        0.000002584471     0.000100604500     0.001690838519
      13        0.000010063633     0.000013675028     0.000017093294
      14        0.000029486070     0.000010747589    -0.001862157658

  **** Optimization is complete! (in 6 steps) ****
    Final optimized geometry and variables:
    Molecular point group: c1

    Geometry (in Angstrom), charge = 0, multiplicity = 1:

    H            3.291564550238    -0.455172773741    -0.008524480984
    C            2.235348230549    -0.264299800855    -0.001993529424
    C            1.770515152296     1.018184796282     0.208151520145
    C            1.345557444797    -1.308076714082    -0.208658357997
    H            2.460753801842     1.824068614314     0.365325683061
    C            0.408509029065     1.258881659659     0.209691576030
    H            1.714719499174    -2.301222688641    -0.376845454595
    C           -0.010156032922    -1.068269428413    -0.199301124992
    H            0.040367469149     2.256292118707     0.364508289312
    C           -0.483353214990     0.219656161287     0.015680584164
    H           -0.713303916864    -1.862100366749    -0.355140522313
    C           -1.939843637455     0.498116671678     0.008804196035
    O           -2.784961353676    -0.330169002047    -0.024597418445
    H           -2.203725824914     1.560837269902     0.015573407306

  Mulliken Charges: (a.u.)
   Center  Symbol    Alpha    Beta     Spin     Total
       1     H     0.41952  0.41952  0.00000  0.16097
       2     C     3.06988  3.06988  0.00000 -0.13976
       3     C     3.07360  3.07360  0.00000 -0.14720
       4     C     3.07236  3.07236  0.00000 -0.14472
       5     H     0.42059  0.42059  0.00000  0.15882
       6     C     3.08731  3.08731  0.00000 -0.17461
       7     H     0.41953  0.41953  0.00000  0.16093
       8     C     3.08014  3.08014  0.00000 -0.16029
       9     H     0.42296  0.42296  0.00000  0.15409
      10     C     2.98421  2.98421  0.00000  0.03159
      11     H     0.40879  0.40879  0.00000  0.18242
      12     C     2.91017  2.91017  0.00000  0.17965
      13     O     4.17256  4.17256  0.00000 -0.34511
      14     H     0.45839  0.45839  0.00000  0.08321

   Total alpha = 28.00000, Total beta = 28.00000, Total charge =  0.00000
