  ==> Input File <==

--------------------------------------------------------------------------
set {
	reference rhf
	basis 6-31G*
}

set_num_threads( 4 )
memory 2 gb

molecule MOL {
0 1

H	 1.752422	 -1.570622	 0.582151
O	 2.016064	 -0.864478	 0.000222
C	 1.050492	 0.053836	 0.000068
C	 -0.318135	 -0.576402	 0.000164
O	 1.285279	 1.218255	 -0.000078
C	 -1.454360	 0.441875	 -0.000474
H	 -0.374042	 -1.230163	 -0.866135
H	 -0.374274	 -1.229227	 0.867154
C	 -2.826123	 -0.230780	 0.000056
H	 -1.357605	 1.085198	 -0.868380
H	 -1.357504	 1.086451	 0.866496
H	 -2.959731	 -0.858053	 -0.876869
H	 -3.619374	 0.509403	 -0.000080
H	 -2.959371	 -0.857318	 0.877556

	symmetry c1
}
set optking {
	frozen_dihedral = ("
		1 2 3 5
	")
}

ee = optimize('scf')
oeprop('DIPOLE', 'QUADRUPOLE', 'MULLIKEN_CHARGES')
f=open( 'psi4out.xyz', 'w' )
f.write( "14  " )
f.write( str(ee) + "\n" )
f.write( MOL.save_string_xyz() )
f.close()
--------------------------------------------------------------------------

    Molecular point group: c1
  Charge       = 0
  Multiplicity = 1
  Basis Set: 6-31G*
  Basis Set:
  @DF-RHF Final Energy:  -305.86337750399059
    Total Energy =                       -305.8633775039905345
    Molecular point group: c1
  Basis Set: 6-31G*
  Basis Set:
  Basis Set: 6-31G*
  Basis Set:
  @DF-RHF Final Energy:  -305.86478233329098
    Total Energy =                       -305.8647823332910320
  Basis Set: 6-31G*
  Basis Set:
  Basis Set: 6-31G*
  Basis Set:
  @DF-RHF Final Energy:  -305.86492156789745
    Total Energy =                       -305.8649215678975111
  Basis Set: 6-31G*
  Basis Set:
  Basis Set: 6-31G*
  Basis Set:
  @DF-RHF Final Energy:  -305.86482525022546
    Total Energy =                       -305.8648252502254650
  Basis Set: 6-31G*
  Basis Set:
  Basis Set: 6-31G*
  Basis Set:
  @DF-RHF Final Energy:  -305.86493362952785
    Total Energy =                       -305.8649336295278545
  Basis Set: 6-31G*
  Basis Set:
  Charge       = 0
  Multiplicity = 1
  Basis Set: 6-31G*
  Basis Set:

    Orbital Energies (a.u.)
    -----------------------

    Doubly Occupied:

       1A    -20.605787     2A    -20.554163     3A    -11.381408
       4A    -11.250836     5A    -11.230570     6A    -11.221706
       7A     -1.464974     8A     -1.370537     9A     -1.086999
      10A     -0.978002    11A     -0.852252    12A     -0.813149
      13A     -0.718718    14A     -0.672738    15A     -0.659232
      16A     -0.626964    17A     -0.582707    18A     -0.575904
      19A     -0.550342    20A     -0.507885    21A     -0.495664
      22A     -0.488054    23A     -0.479320    24A     -0.442372

  @DF-RHF Final Energy:  -305.86493421716722

   => Energetics <=

    Nuclear Repulsion Energy =            239.6125889999757987
    One-Electron Energy =                -891.7344842108427656
    Two-Electron Energy =                 346.2569609936994084
    DFT Exchange-Correlation Energy =       0.0000000000000000
    Empirical Dispersion Energy =           0.0000000000000000
    PCM Polarization Energy =               0.0000000000000000
    EFP Energy =                            0.0000000000000000
    Total Energy =                       -305.8649342171676153
    Molecular point group: c1
  Basis Set: 6-31G*
  Basis Set:

  -Total Gradient:
     Atom            X                  Y                   Z
    ------   -----------------  -----------------  -----------------
       1        0.002945510714     0.003439612563     0.005305064936
       2       -0.003804159806    -0.004237461226    -0.004002306103
       3        0.000874358148     0.000682185726    -0.007356243914
       4        0.000017898650     0.000007370299    -0.000049041460
       5       -0.000006004769     0.000112845936     0.006064959068
       6        0.000006153144     0.000004938363     0.000012555035
       7       -0.000012776518    -0.000005340761     0.000020063224
       8        0.000002664694     0.000005824759     0.000017372226
       9       -0.000015412339     0.000004053124    -0.000000944085
      10        0.000001488961    -0.000004919469     0.000000859257
      11        0.000001636557    -0.000007394467    -0.000012107823
      12       -0.000001418559     0.000002141567     0.000000391436
      13       -0.000010857620    -0.000002897581     0.000001117704
      14        0.000000918744    -0.000000958833    -0.000001739501

  **** Optimization is complete! (in 6 steps) ****
    Final optimized geometry and variables:
    Molecular point group: c1

    Geometry (in Angstrom), charge = 0, multiplicity = 1:

    H            1.897570288581    -1.565984885370     0.578642235740
    O            2.076059332375    -0.832491542456     0.004612889431
    C            1.061343143953     0.053790820000    -0.005934887061
    C           -0.319411887010    -0.567549808532    -0.005281986703
    O            1.277291704005     1.214083018698    -0.018780086898
    C           -1.450375742881     0.456777429400    -0.004608619732
    H           -0.382804749480    -1.219345937246    -0.873410079138
    H           -0.398716776242    -1.220841276279     0.863490391143
    C           -2.827017768554    -0.205659541800    -0.009712572585
    H           -1.344104392386     1.100323326714    -0.870622282857
    H           -1.349567183982     1.098290931363     0.863926154397
    H           -2.963226206501    -0.829593470933    -0.888574213985
    H           -3.614037067044     0.540950853412    -0.010773380436
    H           -2.969084945276    -0.832710589639     0.866242257555

  Mulliken Charges: (a.u.)
   Center  Symbol    Alpha    Beta     Spin     Total
       1     H     0.26940  0.26940  0.00000  0.46121
       2     O     4.35807  4.35807  0.00000 -0.71614
       3     C     2.61512  2.61512  0.00000  0.76975
       4     C     3.22541  3.22541  0.00000 -0.45083
       5     O     4.25499  4.25499  0.00000 -0.50999
       6     C     3.15102  3.15102  0.00000 -0.30203
       7     H     0.39835  0.39835  0.00000  0.20331
       8     H     0.41288  0.41288  0.00000  0.17425
       9     C     3.24354  3.24354  0.00000 -0.48709
      10     H     0.40683  0.40683  0.00000  0.18634
      11     H     0.40914  0.40914  0.00000  0.18171
      12     H     0.42046  0.42046  0.00000  0.15908
      13     H     0.41294  0.41294  0.00000  0.17412
      14     H     0.42185  0.42185  0.00000  0.15630

   Total alpha = 24.00000, Total beta = 24.00000, Total charge =  0.00000
