  ==> Input File <==

--------------------------------------------------------------------------
set {
	reference rhf
	basis 6-31G*
}

set_num_threads( 1 )
memory 2 gb

molecule MOL {
0 1

H	 -4.042684	 -0.942487	 1.159298
O	 -3.400949	 -0.912148	 0.464200
C	 -2.181131	 -0.431937	 0.968215
C	 -1.177863	 -0.397191	 -0.171080
H	 -2.305619	 0.566161	 1.386078
H	 -1.816192	 -1.076512	 1.766766
C	 0.198102	 0.111031	 0.262842
H	 -1.578279	 0.233568	 -0.960091
H	 -1.094723	 -1.398689	 -0.584076
C	 1.331804	 -0.827780	 -0.158768
H	 0.361943	 1.100838	 -0.156218
H	 0.217265	 0.229072	 1.345532
C	 2.723619	 -0.410569	 0.329459
H	 1.342964	 -0.912588	 -1.244120
H	 1.116806	 -1.824343	 0.220779
C	 3.243875	 0.895854	 -0.272975
H	 3.424222	 -1.207124	 0.091250
H	 2.714788	 -0.329854	 1.414619
H	 3.251977	 0.848779	 -1.358681
H	 2.637085	 1.747371	 0.016682
H	 4.259473	 1.094070	 0.055697

	symmetry c1
}
set optking {
	frozen_dihedral = ("
		2 3 4 8,
		4 7 10 14,
		16 13 10 14,
		1 2 3 5
	")
}

ee = energy('scf')
oeprop('DIPOLE', 'QUADRUPOLE', 'MULLIKEN_CHARGES')
f=open( 'psi4out.xyz', 'w' )
f.write( "21  " )
f.write( str(ee) + "\n" )
f.write( MOL.save_string_xyz() )
f.close()
--------------------------------------------------------------------------

    Molecular point group: c1

    Geometry (in Angstrom), charge = 0, multiplicity = 1:

       Center              X                  Y                   Z               Mass
    ------------   -----------------  -----------------  -----------------  -----------------
           H         -4.080081346117    -0.656473868540     0.942898582917     1.007825032070
           O         -3.438346346117    -0.626134868540     0.247800582917    15.994914619560
           C         -2.218528346117    -0.145923868540     0.751815582917    12.000000000000
           C         -1.215260346117    -0.111177868540    -0.387479417083    12.000000000000
           H         -2.343016346117     0.852174131460     1.169678582917     1.007825032070
           H         -1.853589346117    -0.790498868540     1.550366582917     1.007825032070
           C          0.160704653883     0.397044131460     0.046442582917    12.000000000000
           H         -1.615676346117     0.519581131460    -1.176490417083     1.007825032070
           H         -1.132120346117    -1.112675868540    -0.800475417083     1.007825032070
           C          1.294406653883    -0.541766868540    -0.375167417083    12.000000000000
           H          0.324545653883     1.386851131460    -0.372617417083     1.007825032070
           H          0.179867653883     0.515085131460     1.129132582917     1.007825032070
           C          2.686221653883    -0.124555868540     0.113059582917    12.000000000000
           H          1.305566653883    -0.626574868540    -1.460519417083     1.007825032070
           H          1.079408653883    -1.538329868540     0.004379582917     1.007825032070
           C          3.206477653883     1.181867131460    -0.489374417083    12.000000000000
           H          3.386824653883    -0.921110868540    -0.125149417083     1.007825032070
           H          2.677390653883    -0.043840868540     1.198219582917     1.007825032070
           H          3.214579653883     1.134792131460    -1.575080417083     1.007825032070
           H          2.599687653883     2.033384131460    -0.199717417083     1.007825032070
           H          4.222075653883     1.380083131460    -0.160702417083     1.007825032070

  Charge       = 0
  Multiplicity = 1
  Basis Set: 6-31G*
  Basis Set:

    Orbital Energies (a.u.)
    -----------------------

    Doubly Occupied:

       1A    -20.551708     2A    -11.267661     3A    -11.214890
       4A    -11.214551     5A    -11.213800     6A    -11.209100
       7A    -11.207976     8A     -1.358631     9A     -1.086484
      10A     -1.032908    11A     -0.953518    12A     -0.876810
      13A     -0.807456    14A     -0.779438    15A     -0.693212
      16A     -0.656133    17A     -0.623152    18A     -0.609015
      19A     -0.591642    20A     -0.554345    21A     -0.551529
      22A     -0.516813    23A     -0.505240    24A     -0.495340
      25A     -0.475232    26A     -0.459199    27A     -0.453733
      28A     -0.445036    29A     -0.431712

  @DF-RHF Final Energy:  -310.20794935257976

   => Energetics <=

    Nuclear Repulsion Energy =            313.1946294864982860
    One-Electron Energy =               -1041.1327050871980191
    Two-Electron Energy =                 417.7301262481200865
    DFT Exchange-Correlation Energy =       0.0000000000000000
    Empirical Dispersion Energy =           0.0000000000000000
    PCM Polarization Energy =               0.0000000000000000
    EFP Energy =                            0.0000000000000000
    Total Energy =                       -310.2079493525795897

  Mulliken Charges: (a.u.)
   Center  Symbol    Alpha    Beta     Spin     Total
       1     H     0.28130  0.28130  0.00000  0.43740
       2     O     4.37165  4.37165  0.00000 -0.74330
       3     C     2.99375  2.99375  0.00000  0.01251
       4     C     3.16007  3.16007  0.00000 -0.32015
       5     H     0.43229  0.43229  0.00000  0.13542
       6     H     0.43269  0.43269  0.00000  0.13462
       7     C     3.16419  3.16419  0.00000 -0.32839
       8     H     0.41275  0.41275  0.00000  0.17450
       9     H     0.41218  0.41218  0.00000  0.17563
      10     C     3.15433  3.15433  0.00000 -0.30866
      11     H     0.41686  0.41686  0.00000  0.16627
      12     H     0.42385  0.42385  0.00000  0.15230
      13     C     3.15297  3.15297  0.00000 -0.30595
      14     H     0.42207  0.42207  0.00000  0.15586
      15     H     0.42148  0.42148  0.00000  0.15703
      16     C     3.24117  3.24117  0.00000 -0.48233
      17     H     0.42088  0.42088  0.00000  0.15823
      18     H     0.42392  0.42392  0.00000  0.15217
      19     H     0.42189  0.42189  0.00000  0.15621
      20     H     0.42037  0.42037  0.00000  0.15926
      21     H     0.41932  0.41932  0.00000  0.16135

   Total alpha = 29.00000, Total beta = 29.00000, Total charge =  0.00000
