  ==> Input File <==

--------------------------------------------------------------------------
set {
	reference rhf
	basis 6-31G*
}

set_num_threads( 1 )
memory 2 gb

molecule MOL {
0 1

H	 2.770563	 -0.500259	 -0.452395
O	 2.016064	 -0.864478	 0.000222
C	 1.050492	 0.053836	 0.000068
C	 -0.318135	 -0.576402	 0.000164
O	 1.285279	 1.218255	 -0.000078
C	 -1.454360	 0.441875	 -0.000474
H	 -0.374042	 -1.230163	 -0.866135
H	 -0.374274	 -1.229227	 0.867154
C	 -2.826123	 -0.230780	 0.000056
H	 -1.357605	 1.085198	 -0.868380
H	 -1.357504	 1.086451	 0.866496
H	 -2.959731	 -0.858053	 -0.876869
H	 -3.619374	 0.509403	 -0.000080
H	 -2.959371	 -0.857318	 0.877556

	symmetry c1
}
set optking {
	frozen_dihedral = ("
		7 4 6 10,
		2 3 4 7
	")
}

ee = energy('scf')
oeprop('DIPOLE', 'QUADRUPOLE', 'MULLIKEN_CHARGES')
f=open( 'psi4out.xyz', 'w' )
f.write( "14  " )
f.write( str(ee) + "\n" )
f.write( MOL.save_string_xyz() )
f.close()
--------------------------------------------------------------------------

    Molecular point group: c1

    Geometry (in Angstrom), charge = 0, multiplicity = 1:

       Center              X                  Y                   Z               Mass
    ------------   -----------------  -----------------  -----------------  -----------------
           H          2.771519374896    -0.499252895402    -0.447214861767     1.007825032070
           O          2.017020374896    -0.863471895402     0.005402138233    15.994914619560
           C          1.051448374896     0.054842104598     0.005248138233    12.000000000000
           C         -0.317178625104    -0.575395895402     0.005344138233    12.000000000000
           O          1.286235374896     1.219261104598     0.005102138233    15.994914619560
           C         -1.453403625104     0.442881104598     0.004706138233    12.000000000000
           H         -0.373085625104    -1.229156895402    -0.860954861767     1.007825032070
           H         -0.373317625104    -1.228220895402     0.872334138233     1.007825032070
           C         -2.825166625104    -0.229773895402     0.005236138233    12.000000000000
           H         -1.356648625104     1.086204104598    -0.863199861767     1.007825032070
           H         -1.356547625104     1.087457104598     0.871676138233     1.007825032070
           H         -2.958774625104    -0.857046895402    -0.871688861767     1.007825032070
           H         -3.618417625104     0.510409104598     0.005100138233     1.007825032070
           H         -2.958414625104    -0.856311895402     0.882736138233     1.007825032070

  Charge       = 0
  Multiplicity = 1
  Basis Set: 6-31G*
  Basis Set:

    Orbital Energies (a.u.)
    -----------------------

    Doubly Occupied:

       1A    -20.609595     2A    -20.553689     3A    -11.381427
       4A    -11.241087     5A    -11.225377     6A    -11.217073
       7A     -1.473921     8A     -1.366567     9A     -1.082857
      10A     -0.978919    11A     -0.856432    12A     -0.792120
      13A     -0.702038    14A     -0.687823    15A     -0.666670
      16A     -0.622567    17A     -0.584962    18A     -0.571029
      19A     -0.544949    20A     -0.504942    21A     -0.492444
      22A     -0.482422    23A     -0.478482    24A     -0.444556

  @DF-RHF Final Energy:  -305.87542787637517

   => Energetics <=

    Nuclear Repulsion Energy =            239.9641302801009317
    One-Electron Energy =                -892.5552676130703276
    Two-Electron Energy =                 346.7157094565942543
    DFT Exchange-Correlation Energy =       0.0000000000000000
    Empirical Dispersion Energy =           0.0000000000000000
    PCM Polarization Energy =               0.0000000000000000
    EFP Energy =                            0.0000000000000000
    Total Energy =                       -305.8754278763751699

  Mulliken Charges: (a.u.)
   Center  Symbol    Alpha    Beta     Spin     Total
       1     H     0.26679  0.26679  0.00000  0.46642
       2     O     4.35270  4.35270  0.00000 -0.70540
       3     C     2.62649  2.62649  0.00000  0.74701
       4     C     3.20898  3.20898  0.00000 -0.41795
       5     O     4.27344  4.27344  0.00000 -0.54688
       6     C     3.15263  3.15263  0.00000 -0.30526
       7     H     0.40067  0.40067  0.00000  0.19865
       8     H     0.39843  0.39843  0.00000  0.20313
       9     C     3.24284  3.24284  0.00000 -0.48568
      10     H     0.41094  0.41094  0.00000  0.17813
      11     H     0.40968  0.40968  0.00000  0.18064
      12     H     0.42124  0.42124  0.00000  0.15751
      13     H     0.41452  0.41452  0.00000  0.17096
      14     H     0.42064  0.42064  0.00000  0.15871

   Total alpha = 24.00000, Total beta = 24.00000, Total charge =  0.00000
