                              Psi4 1.0.54 Driver

  ==> Input File <==

--------------------------------------------------------------------------
set {
	reference rhf
	basis cc-pvtz
}

set_num_threads( 4 )
memory 2 gb

molecule MOL {
0 1

H	 -3.162190	 0.493205	 -0.000107
C	 -2.363908	 -0.234727	 0.000005
O	 -1.158738	 0.454634	 -0.000087
H	 -2.464314	 -0.863616	 -0.882153
H	 -2.464327	 -0.863359	 0.882345
C	 -0.028611	 -0.359694	 0.000037
C	 1.212847	 0.509314	 -0.000053
H	 -0.034155	 -1.007047	 -0.877198
H	 -0.034195	 -1.006836	 0.877430
C	 0.903068	 1.967262	 -0.320638
H	 1.687763	 0.433298	 0.971853
H	 1.914714	 0.108856	 -0.723218
H	 0.220300	 2.395365	 0.405752
H	 1.806471	 2.564621	 -0.313866
H	 0.449048	 2.068788	 -1.300754

	symmetry c1
}
set optking {
	frozen_dihedral = ("
		11 7 6 8
	")
}

ee,wfn = optimize('scf', return_wfn=True)
oeprop( wfn, 'DIPOLE', 'QUADRUPOLE', 'MULLIKEN_CHARGES')
f=open( 'psi4out.xyz', 'w' )
f.write( "15  " )
f.write( str(ee) + "\n" )
f.write( MOL.save_string_xyz() )
f.close()
--------------------------------------------------------------------------

    Molecular point group: c1
  Charge       = 0
  Multiplicity = 1
  Basis Set: CC-PVTZ
  Basis Set:
  @DF-RHF Final Energy:  -232.21895913985398
    Total Energy =                       -232.2189591398540074
    Molecular point group: c1
  Basis Set: CC-PVTZ
  Basis Set:
  Basis Set: CC-PVTZ
  Basis Set:
  @DF-RHF Final Energy:  -232.21973932687419
    Total Energy =                       -232.2197393268742189
  Basis Set: CC-PVTZ
  Basis Set:
  Basis Set: CC-PVTZ
  Basis Set:
  @DF-RHF Final Energy:  -232.22086783271618
    Total Energy =                       -232.2208678327162943
  Basis Set: CC-PVTZ
  Basis Set:
  Basis Set: CC-PVTZ
  Basis Set:
  @DF-RHF Final Energy:  -232.22092271146821
    Total Energy =                       -232.2209227114682335
  Basis Set: CC-PVTZ
  Basis Set:
  Basis Set: CC-PVTZ
  Basis Set:
  @DF-RHF Final Energy:  -232.22092580332227
    Total Energy =                       -232.2209258033224160
  Basis Set: CC-PVTZ
  Basis Set:
  Charge       = 0
  Multiplicity = 1
  Basis Set: CC-PVTZ
  Basis Set:

    Orbital Energies (a.u.)
    -----------------------

    Doubly Occupied:

       1A    -20.548578     2A    -11.265337     3A    -11.262593
       4A    -11.214075     5A    -11.199873     6A     -1.383266
       7A     -1.049871     8A     -0.950211     9A     -0.890989
      10A     -0.794250    11A     -0.674157    12A     -0.659038
      13A     -0.636344    14A     -0.601849    15A     -0.554516
      16A     -0.540965    17A     -0.507208    18A     -0.482680
      19A     -0.474057    20A     -0.461961    21A     -0.411051

  @DF-RHF Final Energy:  -232.22092595947814

   => Energetics <=

    Nuclear Repulsion Energy =            193.3734190352547273
    One-Electron Energy =                -698.0629495215071074
    Two-Electron Energy =                 272.4686045267744134
    DFT Exchange-Correlation Energy =       0.0000000000000000
    Empirical Dispersion Energy =           0.0000000000000000
    PCM Polarization Energy =               0.0000000000000000
    EFP Energy =                            0.0000000000000000
    Total Energy =                       -232.2209259594779382
    Molecular point group: c1
  Basis Set: CC-PVTZ
  Basis Set:

  -Total Gradient:
     Atom            X                  Y                   Z
    ------   -----------------  -----------------  -----------------
       1        0.000002552242     0.000003340862     0.000000441773
       2        0.000021822514     0.000003608633     0.000001314792
       3       -0.000051938192     0.000030365573     0.000017520870
       4        0.000001970935    -0.000001011874    -0.000001830623
       5        0.000000361260    -0.000000410663     0.000000531670
       6       -0.002381173502     0.003329906478    -0.003263110620
       7       -0.002611939431     0.003570947712     0.002686089966
       8        0.002433061341    -0.003388676239     0.002277945807
       9       -0.000001155765     0.000015651828     0.000000827468
      10       -0.000002957470     0.000004941364    -0.000015293850
      11        0.002601486048    -0.003573701559    -0.001715203896
      12       -0.000009573329    -0.000001436103    -0.000002236112
      13       -0.000008979697     0.000002793116    -0.000000090431
      14        0.000002871705    -0.000000280075     0.000008381036
      15        0.000003591341     0.000003960947     0.000004712150

  **** Optimization is complete! (in 6 steps) ****
    Final optimized geometry and variables:
    Molecular point group: c1

    Geometry (in Angstrom), charge = 0, multiplicity = 1:

    H           -2.883360124521    -0.126742665121     0.207188719423
    C           -2.044613220189    -0.803851124519     0.133748808721
    O           -0.883565809764    -0.043827268019     0.116037928586
    H           -2.149171638596    -1.393296060083    -0.774843667457
    H           -2.065621965289    -1.480876930666     0.985265179029
    C            0.286333563542    -0.791950583699     0.017926886560
    C            1.532732353817     0.107363748648     0.030070336044
    H            0.273118327794    -1.406827354099    -0.880889602299
    H            0.338668254004    -1.491340951656     0.851504291639
    C            1.281243806659     1.575298035758    -0.297170114872
    H            2.037079991721     0.013840896200     0.985366215858
    H            2.234056577011    -0.295448916975    -0.694260149957
    H            0.631002222887     2.038000426793     0.431732714832
    H            2.220780551930     2.116143192019    -0.309285202293
    H            0.816280978841     1.687890865093    -1.269049843315

  Mulliken Charges: (a.u.)
   Center  Symbol    Alpha    Beta     Spin     Total
       1     H     0.44768  0.44768  0.00000  0.10464
       2     C     3.03223  3.03223  0.00000 -0.06446
       3     O     4.16937  4.16937  0.00000 -0.33874
       4     H     0.47163  0.47163  0.00000  0.05675
       5     H     0.47169  0.47169  0.00000  0.05661
       6     C     2.96580  2.96580  0.00000  0.06840
       7     C     3.09459  3.09459  0.00000 -0.18919
       8     H     0.47352  0.47352  0.00000  0.05297
       9     H     0.47135  0.47135  0.00000  0.05730
      10     C     3.13894  3.13894  0.00000 -0.27788
      11     H     0.45235  0.45235  0.00000  0.09530
      12     H     0.45519  0.45519  0.00000  0.08962
      13     H     0.44822  0.44822  0.00000  0.10355
      14     H     0.45316  0.45316  0.00000  0.09368
      15     H     0.45428  0.45428  0.00000  0.09144

   Total alpha = 21.00000, Total beta = 21.00000, Total charge =  0.00000

*** Psi4 exiting successfully. Buy a developer a beer!
