                              Psi4 1.0.54 Driver

  ==> Input File <==

--------------------------------------------------------------------------
set {
	reference rhf
	basis cc-pvtz
}

set_num_threads( 4 )
memory 2 gb

molecule MOL {
0 1

H	 -3.436473	 1.252944	 -1.023892
O	 -3.458596	 0.315260	 -0.960865
C	 -3.176635	 -0.080824	 0.355601
C	 -1.763371	 0.265266	 0.799691
H	 -3.321825	 -1.153438	 0.379502
H	 -3.895468	 0.357385	 1.043382
C	 -0.673390	 -0.426948	 -0.013392
H	 -1.631049	 1.344913	 0.747560
H	 -1.664587	 -0.001624	 1.849167
C	 0.737842	 -0.043159	 0.423759
H	 -0.806103	 -0.190518	 -1.063345
H	 -0.797221	 -1.503753	 0.074146
C	 0.751958	 0.993042	 1.545871
H	 1.264489	 -0.938671	 0.739339
H	 1.286540	 0.348431	 -0.430316
C	 2.143824	 1.470171	 1.964088
H	 0.237035	 0.588141	 2.414064
H	 0.173837	 1.856301	 1.227780
C	 3.015512	 0.400699	 2.617948
H	 2.028560	 2.296411	 2.658939
H	 2.659680	 1.874487	 1.097001
H	 2.522330	 -0.026341	 3.485407
H	 3.957610	 0.822433	 2.949361
H	 3.244484	 -0.409221	 1.935888

	symmetry c1
}
set optking {
	frozen_dihedral = ("
		13 10 7 11
	")
}

ee,wfn = optimize('scf', return_wfn=True)
oeprop( wfn, 'DIPOLE', 'QUADRUPOLE', 'MULLIKEN_CHARGES')
f=open( 'psi4out.xyz', 'w' )
f.write( "24  " )
f.write( str(ee) + "\n" )
f.write( MOL.save_string_xyz() )
f.close()
--------------------------------------------------------------------------

    Molecular point group: c1
  Charge       = 0
  Multiplicity = 1
  Basis Set: CC-PVTZ
  Basis Set:
  @DF-RHF Final Energy:  -349.36428360653383
    Total Energy =                       -349.3642836065340589
    Molecular point group: c1
  Basis Set: CC-PVTZ
  Basis Set:
  Basis Set: CC-PVTZ
  Basis Set:
  @DF-RHF Final Energy:  -349.24714541015845
    Total Energy =                       -349.2471454101588506
  Basis Set: CC-PVTZ
  Basis Set:
  Basis Set: CC-PVTZ
  Basis Set:
  @DF-RHF Final Energy:  -349.34155270373236
    Total Energy =                       -349.3415527037325319
  Basis Set: CC-PVTZ
  Basis Set:
  Basis Set: CC-PVTZ
  Basis Set:
  @DF-RHF Final Energy:  -349.36773495632127
    Total Energy =                       -349.3677349563214420
  Basis Set: CC-PVTZ
  Basis Set:
  @DF-RHF Final Energy:  -349.36974136787200
    Total Energy =                       -349.3697413678719954
  Basis Set: CC-PVTZ
  Basis Set:
  @DF-RHF Final Energy:  -349.36980249413847
    Total Energy =                       -349.3698024941382414
  Basis Set: CC-PVTZ
  Basis Set:
  Basis Set: CC-PVTZ
  Basis Set:
  @DF-RHF Final Energy:  -349.36978727202643
    Total Energy =                       -349.3697872720262012
  Basis Set: CC-PVTZ
  Basis Set:
  Basis Set: CC-PVTZ
  Basis Set:
  @DF-RHF Final Energy:  -349.36982149725787
    Total Energy =                       -349.3698214972578171
  Basis Set: CC-PVTZ
  Basis Set:
  Charge       = 0
  Multiplicity = 1
  Basis Set: CC-PVTZ
  Basis Set:

    Orbital Energies (a.u.)
    -----------------------

    Doubly Occupied:

       1A    -20.546040     2A    -11.265116     3A    -11.214529
       4A    -11.213003     5A    -11.211095     6A    -11.210218
       7A    -11.209327     8A    -11.205721     9A     -1.363897
      10A     -1.087137    11A     -1.047243    12A     -0.983582
      13A     -0.917796    14A     -0.856267    15A     -0.811150
      16A     -0.762344    17A     -0.678594    18A     -0.652536
      19A     -0.627544    20A     -0.622389    21A     -0.600844
      22A     -0.580261    23A     -0.559685    24A     -0.543368
      25A     -0.521140    26A     -0.512959    27A     -0.499193
      28A     -0.481034    29A     -0.474192    30A     -0.455722
      31A     -0.442803    32A     -0.438009    33A     -0.426628

  @DF-RHF Final Energy:  -349.36982143444516

   => Energetics <=

    Nuclear Repulsion Energy =            388.9548677830814540
    One-Electron Energy =               -1244.6066632576616939
    Two-Electron Energy =                 506.2819740401353101
    DFT Exchange-Correlation Energy =       0.0000000000000000
    Empirical Dispersion Energy =           0.0000000000000000
    PCM Polarization Energy =               0.0000000000000000
    EFP Energy =                            0.0000000000000000
    Total Energy =                       -349.3698214344449298
    Molecular point group: c1
  Basis Set: CC-PVTZ
  Basis Set:

  -Total Gradient:
     Atom            X                  Y                   Z
    ------   -----------------  -----------------  -----------------
       1        0.000004299737    -0.000005375741     0.000004074978
       2        0.000002140766    -0.000032676083    -0.000003414110
       3        0.000010526294     0.000068795922    -0.000029279248
       4       -0.000031182854    -0.000051515399     0.000055095916
       5        0.000004438504     0.000000825581     0.000000437267
       6       -0.000011174012     0.000001695317     0.000007684969
       7       -0.000257551022     0.000939475850     0.000551448894
       8        0.000012085588     0.000010402661     0.000008182057
       9       -0.000004383878    -0.000001056621    -0.000005302386
      10        0.000452575752     0.000605322991    -0.000714495920
      11        0.000139146697    -0.000975796476    -0.000304215627
      12        0.000009564352    -0.000000782406     0.000008903607
      13       -0.000325002086    -0.000554659955     0.000449640595
      14       -0.000006807009    -0.000004713846    -0.000005451848
      15       -0.000004851180    -0.000003326137    -0.000004763287
      16       -0.000004060596    -0.000009181940    -0.000000635369
      17        0.000012906373     0.000006074014     0.000003448712
      18       -0.000020450312     0.000006996180    -0.000017095767
      19        0.000002347923     0.000015509519    -0.000008140129
      20       -0.000001585169    -0.000002417413     0.000000356539
      21        0.000007944516     0.000002507944     0.000005254596
      22        0.000002034825     0.000005099003    -0.000002361635
      23        0.000009799384    -0.000006695026     0.000005309474
      24       -0.000002762591    -0.000014507939    -0.000004682277

  **** Optimization is complete! (in 9 steps) ****
    Final optimized geometry and variables:
    Molecular point group: c1

    Geometry (in Angstrom), charge = 0, multiplicity = 1:

    H           -2.230491277285     1.807701622294    -2.485227460594
    O           -2.445556123623     0.895148273860    -2.553275476927
    C           -2.686504365381     0.366007446223    -1.276057208785
    C           -1.456789569271     0.364894550863    -0.378640175577
    H           -3.032567792838    -0.647264813407    -1.436298838714
    H           -3.492867863768     0.909213549380    -0.789636578458
    C           -0.330111741489    -0.514570622511    -0.921761420952
    H           -1.118942498587     1.390330926190    -0.254633497736
    H           -1.766291611556     0.024121930495     0.604804090262
    C            0.986665006228    -0.587662055792    -0.101023384048
    H           -0.103232397421    -0.189275124953    -1.928733712296
    H           -0.725098432899    -1.520109589762    -1.029055172647
    C            1.089646974974     0.294701301250     1.145400018139
    H            1.145154419842    -1.617858739534     0.193677687738
    H            1.817128431085    -0.339594532758    -0.754532970822
    C            2.439352912116     0.197254385973     1.861489066574
    H            0.301562691232     0.043024457779     1.849111915873
    H            0.931890610741     1.332044780131     0.869028777553
    C            2.726681423871    -1.153878429879     2.512381708299
    H            2.473139809502     0.964024627621     2.629544537203
    H            3.235326088951     0.436266763806     1.161092574153
    H            1.940587309563    -1.424451453213     3.210275655895
    H            3.659383154878    -1.122567676728     3.064057662158
    H            2.808767888531    -1.949487921694     1.782169956695

  Mulliken Charges: (a.u.)
   Center  Symbol    Alpha    Beta     Spin     Total
       1     H     0.39519  0.39519  0.00000  0.20962
       2     O     4.20409  4.20409  0.00000 -0.40818
       3     C     2.97782  2.97782  0.00000  0.04436
       4     C     3.10633  3.10633  0.00000 -0.21267
       5     H     0.45884  0.45884  0.00000  0.08232
       6     H     0.45944  0.45944  0.00000  0.08112
       7     C     3.09408  3.09408  0.00000 -0.18815
       8     H     0.45674  0.45674  0.00000  0.08651
       9     H     0.45153  0.45153  0.00000  0.09694
      10     C     3.10073  3.10073  0.00000 -0.20147
      11     H     0.44285  0.44285  0.00000  0.11429
      12     H     0.45221  0.45221  0.00000  0.09557
      13     C     3.09880  3.09880  0.00000 -0.19760
      14     H     0.44915  0.44915  0.00000  0.10170
      15     H     0.45040  0.45040  0.00000  0.09920
      16     C     3.09063  3.09063  0.00000 -0.18126
      17     H     0.45203  0.45203  0.00000  0.09595
      18     H     0.44803  0.44803  0.00000  0.10395
      19     C     3.15216  3.15216  0.00000 -0.30432
      20     H     0.44864  0.44864  0.00000  0.10273
      21     H     0.45488  0.45488  0.00000  0.09024
      22     H     0.45549  0.45549  0.00000  0.08901
      23     H     0.44660  0.44660  0.00000  0.10680
      24     H     0.45334  0.45334  0.00000  0.09333

   Total alpha = 33.00000, Total beta = 33.00000, Total charge = -0.00000

*** Psi4 exiting successfully. Buy a developer a beer!
