  ==> Input File <==

--------------------------------------------------------------------------
set {
	reference rhf
	basis 6-31G*
}

set_num_threads( 1 )
memory 2 gb

molecule MOL {
0 1

H	 -2.185381	 -2.829268	 -0.480985
C	 -2.678855	 -1.875436	 -0.705287
C	 -2.582896	 -0.836843	 0.383164
O	 -3.235813	 -1.720779	 -1.743376
C	 -1.138257	 -0.599670	 0.844709
H	 -3.042120	 0.077306	 0.025179
H	 -3.172554	 -1.199563	 1.224231
C	 -0.252658	 0.041456	 -0.226725
H	 -1.158386	 0.036829	 1.724339
H	 -0.701577	 -1.544431	 1.164856
C	 1.180775	 0.282413	 0.250794
H	 -0.695846	 0.985621	 -0.536537
H	 -0.233705	 -0.587533	 -1.114730
C	 2.148627	 -0.814315	 -0.201312
H	 1.516199	 1.249228	 -0.115937
H	 1.192670	 0.346017	 1.338083
C	 3.580890	 -0.659131	 0.322722
H	 2.166869	 -0.852443	 -1.289387
H	 1.762857	 -1.776509	 0.128956
C	 4.324889	 0.564933	 -0.213704
H	 4.142010	 -1.551473	 0.056605
H	 3.564836	 -0.624694	 1.410140
H	 4.342616	 0.565491	 -1.300421
H	 3.866655	 1.493402	 0.110242
H	 5.353900	 0.572371	 0.132816

	symmetry c1
}
set optking {
	frozen_dihedral = ("
		6 3 5 8,
		6 3 2 4,
		3 5 8 12,
		8 11 14 18,
		20 17 14 18
	")
}

ee = energy('scf')
oeprop('DIPOLE', 'QUADRUPOLE', 'MULLIKEN_CHARGES')
f=open( 'psi4out.xyz', 'w' )
f.write( "25  " )
f.write( str(ee) + "\n" )
f.write( MOL.save_string_xyz() )
f.close()
--------------------------------------------------------------------------

    Molecular point group: c1

    Geometry (in Angstrom), charge = 0, multiplicity = 1:

       Center              X                  Y                   Z               Mass
    ------------   -----------------  -----------------  -----------------  -----------------
           H         -2.342136224322    -2.205114575414    -0.325381158063     1.007825032070
           C         -2.835610224322    -1.251282575414    -0.549683158063    12.000000000000
           C         -2.739651224322    -0.212689575414     0.538767841937    12.000000000000
           O         -3.392568224322    -1.096625575414    -1.587772158063    15.994914619560
           C         -1.295012224322     0.024483424586     1.000312841937    12.000000000000
           H         -3.198875224322     0.701459424586     0.180782841937     1.007825032070
           H         -3.329309224322    -0.575409575414     1.379834841937     1.007825032070
           C         -0.409413224322     0.665609424586    -0.071121158063    12.000000000000
           H         -1.315141224322     0.660982424586     1.879942841937     1.007825032070
           H         -0.858332224322    -0.920277575414     1.320459841937     1.007825032070
           C          1.024019775678     0.906566424586     0.406397841937    12.000000000000
           H         -0.852601224322     1.609774424586    -0.380933158063     1.007825032070
           H         -0.390460224322     0.036620424586    -0.959126158063     1.007825032070
           C          1.991871775678    -0.190161575414    -0.045708158063    12.000000000000
           H          1.359443775678     1.873381424586     0.039666841937     1.007825032070
           H          1.035914775678     0.970170424586     1.493686841937     1.007825032070
           C          3.424134775678    -0.034977575414     0.478325841937    12.000000000000
           H          2.010113775678    -0.228289575414    -1.133783158063     1.007825032070
           H          1.606101775678    -1.152355575414     0.284559841937     1.007825032070
           C          4.168133775678     1.189086424586    -0.058100158063    12.000000000000
           H          3.985254775678    -0.927319575414     0.212208841937     1.007825032070
           H          3.408080775678    -0.000540575414     1.565743841937     1.007825032070
           H          4.185860775678     1.189644424586    -1.144817158063     1.007825032070
           H          3.709899775678     2.117555424586     0.265845841937     1.007825032070
           H          5.197144775678     1.196524424586     0.288419841937     1.007825032070

  Charge       = 0
  Multiplicity = 1
  Basis Set: 6-31G*
  Basis Set:

    Orbital Energies (a.u.)
    -----------------------

    Doubly Occupied:

       1A    -20.561876     2A    -11.326048     3A    -11.235466
       4A    -11.234378     5A    -11.222805     6A    -11.218964
       7A    -11.218530     8A    -11.218088     9A    -11.210725
      10A     -1.401866    11A     -1.104903    12A     -1.069272
      13A     -1.013349    14A     -0.941264    15A     -0.878361
      16A     -0.820693    17A     -0.789335    18A     -0.780907
      19A     -0.665628    20A     -0.652905    21A     -0.632337
      22A     -0.625343    23A     -0.609944    24A     -0.592353
      25A     -0.575341    26A     -0.559292    27A     -0.529257
      28A     -0.522950    29A     -0.514236    30A     -0.496695
      31A     -0.490138    32A     -0.480231    33A     -0.464744
      34A     -0.450720    35A     -0.443826    36A     -0.409455

  @DF-RHF Final Energy:  -387.11781726718544

   => Energetics <=

    Nuclear Repulsion Energy =            442.9159465431725380
    One-Electron Energy =               -1402.1431822165111498
    Two-Electron Energy =                 572.1094184061507804
    DFT Exchange-Correlation Energy =       0.0000000000000000
    Empirical Dispersion Energy =           0.0000000000000000
    PCM Polarization Energy =               0.0000000000000000
    EFP Energy =                            0.0000000000000000
    Total Energy =                       -387.1178172671877746

  Mulliken Charges: (a.u.)
   Center  Symbol    Alpha    Beta     Spin     Total
       1     H     0.43272  0.43272  0.00000  0.13455
       2     C     2.83071  2.83071  0.00000  0.33858
       3     C     3.20836  3.20836  0.00000 -0.41671
       4     O     4.23786  4.23786  0.00000 -0.47571
       5     C     3.16817  3.16817  0.00000 -0.33634
       6     H     0.39966  0.39966  0.00000  0.20068
       7     H     0.40686  0.40686  0.00000  0.18627
       8     C     3.15765  3.15765  0.00000 -0.31530
       9     H     0.41223  0.41223  0.00000  0.17554
      10     H     0.41929  0.41929  0.00000  0.16142
      11     C     3.15735  3.15735  0.00000 -0.31470
      12     H     0.41579  0.41579  0.00000  0.16843
      13     H     0.41636  0.41636  0.00000  0.16727
      14     C     3.15466  3.15466  0.00000 -0.30931
      15     H     0.41635  0.41635  0.00000  0.16730
      16     H     0.42239  0.42239  0.00000  0.15521
      17     C     3.15285  3.15285  0.00000 -0.30570
      18     H     0.42146  0.42146  0.00000  0.15708
      19     H     0.42380  0.42380  0.00000  0.15241
      20     C     3.24135  3.24135  0.00000 -0.48269
      21     H     0.42041  0.42041  0.00000  0.15917
      22     H     0.42346  0.42346  0.00000  0.15308
      23     H     0.42147  0.42147  0.00000  0.15706
      24     H     0.42014  0.42014  0.00000  0.15972
      25     H     0.41865  0.41865  0.00000  0.16270

   Total alpha = 36.00000, Total beta = 36.00000, Total charge =  0.00000
