  ==> Input File <==

--------------------------------------------------------------------------
set {
	reference rhf
	basis 6-31G*
}

set_num_threads( 1 )
memory 2 gb

molecule MOL {
0 1

O	 0.376426	 -1.152148	 -1.586878
C	 1.053509	 -1.166779	 -0.609942
C	 1.245376	 -0.013843	 0.345420
O	 1.747512	 -2.230208	 -0.223795
C	 0.455112	 1.231400	 -0.050772
H	 0.973917	 -0.370666	 1.333437
H	 2.311063	 0.196346	 0.388166
C	 -0.998893	 1.219485	 0.433193
H	 0.482531	 1.345121	 -1.130325
H	 0.957290	 2.103070	 0.354729
C	 -1.883438	 0.145884	 -0.207175
H	 -1.431207	 2.195402	 0.224832
H	 -1.019646	 1.105716	 1.516076
C	 -3.347647	 0.245583	 0.225435
H	 -1.822183	 0.231698	 -1.291012
H	 -1.510341	 -0.844814	 0.042401
C	 -4.239992	 -0.825570	 -0.404234
H	 -3.732888	 1.230466	 -0.033079
H	 -3.408585	 0.170602	 1.310038
C	 -5.701275	 -0.716658	 0.029921
H	 -4.179496	 -0.752714	 -1.488058
H	 -3.859041	 -1.810759	 -0.143352
H	 -6.308102	 -1.488908	 -0.432678
H	 -6.122175	 0.245478	 -0.248167
H	 -5.799072	 -0.820114	 1.106957
C	 1.657190	 -3.386181	 -1.036478
H	 0.635740	 -3.734467	 -1.089766
H	 2.281228	 -4.128676	 -0.563948
H	 2.013848	 -3.177758	 -2.034922

	symmetry c1
}
set optking {
	frozen_dihedral = ("
		21 17 14 11,
		17 14 11 15,
		15 11 8 5,
		11 8 5 9,
		2 4 26 27,
		1 2 4 26,
		6 3 2 1
	")
}

ee = energy('scf')
oeprop('DIPOLE', 'QUADRUPOLE', 'MULLIKEN_CHARGES')
f=open( 'psi4out.xyz', 'w' )
f.write( "29  " )
f.write( str(ee) + "\n" )
f.write( MOL.save_string_xyz() )
f.close()
--------------------------------------------------------------------------

    Molecular point group: c1

    Geometry (in Angstrom), charge = 0, multiplicity = 1:

       Center              X                  Y                   Z               Mass
    ------------   -----------------  -----------------  -----------------  -----------------
           O          1.242271496239    -0.509194923074    -1.293115503922    15.994914619560
           C          1.919354496239    -0.523825923074    -0.316179503922    12.000000000000
           C          2.111221496239     0.629110076926     0.639182496078    12.000000000000
           O          2.613357496239    -1.587254923074     0.069967496078    15.994914619560
           C          1.320957496239     1.874353076926     0.242990496078    12.000000000000
           H          1.839762496239     0.272287076926     1.627199496078     1.007825032070
           H          3.176908496239     0.839299076926     0.681928496078     1.007825032070
           C         -0.133047503761     1.862438076926     0.726955496078    12.000000000000
           H          1.348376496239     1.988074076926    -0.836562503922     1.007825032070
           H          1.823135496239     2.746023076926     0.648491496078     1.007825032070
           C         -1.017592503761     0.788837076926     0.086587496078    12.000000000000
           H         -0.565361503761     2.838355076926     0.518594496078     1.007825032070
           H         -0.153800503761     1.748669076926     1.809838496078     1.007825032070
           C         -2.481801503761     0.888536076926     0.519197496078    12.000000000000
           H         -0.956337503761     0.874651076926    -0.997249503922     1.007825032070
           H         -0.644495503761    -0.201860923074     0.336163496078     1.007825032070
           C         -3.374146503761    -0.182616923074    -0.110471503922    12.000000000000
           H         -2.867042503761     1.873419076926     0.260683496078     1.007825032070
           H         -2.542739503761     0.813555076926     1.603800496078     1.007825032070
           C         -4.835429503761    -0.073704923074     0.323683496078    12.000000000000
           H         -3.313650503761    -0.109760923074    -1.194295503922     1.007825032070
           H         -2.993195503761    -1.167805923074     0.150410496078     1.007825032070
           H         -5.442256503761    -0.845954923074    -0.138915503922     1.007825032070
           H         -5.256329503761     0.888431076926     0.045595496078     1.007825032070
           H         -4.933226503761    -0.177160923074     1.400719496078     1.007825032070
           C          2.523035496239    -2.743227923074    -0.742715503922    12.000000000000
           H          1.501585496239    -3.091513923074    -0.796003503922     1.007825032070
           H          3.147073496239    -3.485722923074    -0.270185503922     1.007825032070
           H          2.879693496239    -2.534804923074    -1.741159503922     1.007825032070

  Charge       = 0
  Multiplicity = 1
  Basis Set: 6-31G*
  Basis Set:

    Orbital Energies (a.u.)
    -----------------------

    Doubly Occupied:

       1A    -20.604902     2A    -20.545949     3A    -11.372961
       4A    -11.281779     5A    -11.235442     6A    -11.218627
       7A    -11.211969     8A    -11.208062     9A    -11.205051
      10A    -11.203286    11A    -11.201400    12A     -1.470775
      13A     -1.364602    14A     -1.093111    15A     -1.061982
      16A     -1.014935    17A     -0.974955    18A     -0.924726
      19A     -0.857913    20A     -0.796878    21A     -0.782823
      22A     -0.761013    23A     -0.702457    24A     -0.683582
      25A     -0.673868    26A     -0.643844    27A     -0.619764
      28A     -0.609003    29A     -0.588235    30A     -0.574715
      31A     -0.562648    32A     -0.546468    33A     -0.532896
      34A     -0.527185    35A     -0.516751    36A     -0.502970
      37A     -0.495218    38A     -0.473075    39A     -0.465726
      40A     -0.460570    41A     -0.453746    42A     -0.444802
      43A     -0.439473    44A     -0.427677

  @DF-RHF Final Energy:  -501.03925621870860

   => Energetics <=

    Nuclear Repulsion Energy =            641.6367973239856610
    One-Electron Energy =               -1954.6771795780603043
    Two-Electron Energy =                 812.0011260353654734
    DFT Exchange-Correlation Energy =       0.0000000000000000
    Empirical Dispersion Energy =           0.0000000000000000
    PCM Polarization Energy =               0.0000000000000000
    EFP Energy =                            0.0000000000000000
    Total Energy =                       -501.0392562187092835

  Mulliken Charges: (a.u.)
   Center  Symbol    Alpha    Beta     Spin     Total
       1     O     4.28513  4.28513  0.00000 -0.57026
       2     C     2.60725  2.60725  0.00000  0.78550
       3     C     3.20760  3.20760  0.00000 -0.41521
       4     O     4.30686  4.30686  0.00000 -0.61372
       5     C     3.15913  3.15913  0.00000 -0.31826
       6     H     0.39929  0.39929  0.00000  0.20143
       7     H     0.39758  0.39758  0.00000  0.20484
       8     C     3.15625  3.15625  0.00000 -0.31249
       9     H     0.40512  0.40512  0.00000  0.18976
      10     H     0.41775  0.41775  0.00000  0.16450
      11     C     3.14831  3.14831  0.00000 -0.29662
      12     H     0.42113  0.42113  0.00000  0.15774
      13     H     0.42618  0.42618  0.00000  0.14764
      14     C     3.15075  3.15075  0.00000 -0.30151
      15     H     0.41125  0.41125  0.00000  0.17750
      16     H     0.42683  0.42683  0.00000  0.14634
      17     C     3.15031  3.15031  0.00000 -0.30062
      18     H     0.42601  0.42601  0.00000  0.14798
      19     H     0.42769  0.42769  0.00000  0.14462
      20     C     3.23898  3.23898  0.00000 -0.47796
      21     H     0.42155  0.42155  0.00000  0.15690
      22     H     0.42415  0.42415  0.00000  0.15170
      23     H     0.42038  0.42038  0.00000  0.15924
      24     H     0.42244  0.42244  0.00000  0.15512
      25     H     0.42306  0.42306  0.00000  0.15388
      26     C     3.09254  3.09254  0.00000 -0.18509
      27     H     0.40928  0.40928  0.00000  0.18145
      28     H     0.40824  0.40824  0.00000  0.18352
      29     H     0.40895  0.40895  0.00000  0.18209

   Total alpha = 44.00000, Total beta = 44.00000, Total charge =  0.00000
