  ==> Input File <==

--------------------------------------------------------------------------
set {
	reference rhf
	basis 6-31G*
}

set_num_threads( 4 )
memory 2 gb

molecule MOL {
0 1

H	 -3.420663	 1.227371	 -1.044276
O	 -3.452007	 0.283848	 -0.965577
C	 -3.181085	 -0.079926	 0.364119
C	 -1.765924	 0.277073	 0.805136
H	 -3.327791	 -1.152017	 0.410903
H	 -3.905698	 0.375695	 1.036898
C	 -0.677594	 -0.417312	 -0.014550
H	 -1.637766	 1.358238	 0.744969
H	 -1.659588	 0.017670	 1.857098
C	 0.738335	 -0.034840	 0.421385
H	 -0.814977	 -0.178223	 -1.064632
H	 -0.802730	 -1.495410	 0.071702
C	 1.822265	 -0.738362	 -0.399735
H	 0.853533	 1.043532	 0.342250
H	 0.871597	 -0.279636	 1.474438
C	 3.258060	 -0.455774	 0.057203
H	 1.718003	 -0.459167	 -1.447053
H	 1.651028	 -1.811884	 -0.354513
C	 4.316391	 -1.362166	 -0.574296
H	 3.303735	 -0.567943	 1.137769
H	 3.503193	 0.584084	 -0.149697
H	 4.090300	 -2.409826	 -0.394216
H	 5.297141	 -1.160028	 -0.154645
H	 4.386680	 -1.218579	 -1.647425

	symmetry c1
}
set optking {
	frozen_dihedral = ("
		20 16 13 17
	")
}

ee = optimize('scf')
oeprop('DIPOLE', 'QUADRUPOLE', 'MULLIKEN_CHARGES')
f=open( 'psi4out.xyz', 'w' )
f.write( "24  " )
f.write( str(ee) + "\n" )
f.write( MOL.save_string_xyz() )
f.close()
--------------------------------------------------------------------------

    Molecular point group: c1
  Charge       = 0
  Multiplicity = 1
  Basis Set: 6-31G*
  Basis Set:
  @DF-RHF Final Energy:  -349.24835168495144
    Total Energy =                       -349.2483516849514444
    Molecular point group: c1
  Basis Set: 6-31G*
  Basis Set:
  Basis Set: 6-31G*
  Basis Set:
  @DF-RHF Final Energy:  -349.24885254296890
    Total Energy =                       -349.2488525429685069
  Basis Set: 6-31G*
  Basis Set:
  Basis Set: 6-31G*
  Basis Set:
  @DF-RHF Final Energy:  -349.24889743281551
    Total Energy =                       -349.2488974328152835
  Basis Set: 6-31G*
  Basis Set:
  Charge       = 0
  Multiplicity = 1
  Basis Set: 6-31G*
  Basis Set:

    Orbital Energies (a.u.)
    -----------------------

    Doubly Occupied:

       1A    -20.553607     2A    -11.267727     3A    -11.217492
       4A    -11.213668     5A    -11.212786     6A    -11.211393
       7A    -11.211101     8A    -11.207397     9A     -1.360197
      10A     -1.088539    11A     -1.049069    12A     -0.987974
      13A     -0.913883    14A     -0.842045    15A     -0.797272
      16A     -0.788160    17A     -0.678894    18A     -0.657663
      19A     -0.630611    20A     -0.614065    21A     -0.591118
      22A     -0.585762    23A     -0.548170    24A     -0.542291
      25A     -0.530039    26A     -0.499083    27A     -0.497255
      28A     -0.471715    29A     -0.467122    30A     -0.460310
      31A     -0.456910    32A     -0.455967    33A     -0.418440

  @DF-RHF Final Energy:  -349.24889681313795

   => Energetics <=

    Nuclear Repulsion Energy =            380.5398295768813455
    One-Electron Energy =               -1227.5220039579824061
    Two-Electron Energy =                 497.7332775679632277
    DFT Exchange-Correlation Energy =       0.0000000000000000
    Empirical Dispersion Energy =           0.0000000000000000
    PCM Polarization Energy =               0.0000000000000000
    EFP Energy =                            0.0000000000000000
    Total Energy =                       -349.2488968131377760
    Molecular point group: c1
  Basis Set: 6-31G*
  Basis Set:

  -Total Gradient:
     Atom            X                  Y                   Z
    ------   -----------------  -----------------  -----------------
       1        0.000000040976    -0.000000580921    -0.000001193428
       2       -0.000011105774     0.000010575147    -0.000007249748
       3        0.000008095821     0.000011157380    -0.000008592184
       4       -0.000039385428     0.000041602897    -0.000071783998
       5        0.000005297386    -0.000002576942     0.000004970766
       6       -0.000000276094     0.000000482165     0.000001349314
       7       -0.000104064684     0.000044216417     0.000091562307
       8        0.000013348744     0.000022357095     0.000021442460
       9        0.000001209489    -0.000022956954    -0.000022511149
      10       -0.000102520433    -0.000133233777     0.000109430430
      11        0.000022011120    -0.000044908316     0.000003012328
      12        0.000011950586     0.000001894730     0.000045726857
      13        0.000806502409    -0.001676088474    -0.000653909104
      14        0.000061210021     0.000009496128     0.000029704250
      15       -0.000054883290    -0.000024882076     0.000006546923
      16        0.000365095864    -0.001727439958    -0.000318935500
      17       -0.000537458595     0.001662657805     0.000470278027
      18        0.000000270721     0.000063635634     0.000027872897
      19        0.000136699132    -0.000088892562     0.000203739929
      20       -0.000515206652     0.001817652818     0.000118639364
      21       -0.000052785596     0.000065859546     0.000024415598
      22        0.000003648969    -0.000005471016    -0.000070090484
      23        0.000068133330    -0.000097744516    -0.000012338672
      24       -0.000085828026     0.000073187748     0.000007912817

  **** Optimization is complete! (in 4 steps) ****
    Final optimized geometry and variables:
    Molecular point group: c1

    Geometry (in Angstrom), charge = 0, multiplicity = 1:

    H           -3.433833899356     1.603180654309    -0.999241529759
    O           -3.496970513582     0.660169506527    -0.935320008848
    C           -3.261328139013     0.268644313007     0.393249533993
    C           -1.843169337419     0.572520464332     0.863472141396
    H           -3.443641156438    -0.798533641639     0.421470008400
    H           -3.982315802401     0.738045255481     1.060350288286
    C           -0.763900327898    -0.145463189687     0.052201520296
    H           -1.678594459041     1.649612447928     0.821406813427
    H           -1.763657548770     0.294852380821     1.913122830080
    C            0.656004393741     0.192410634262     0.510161041036
    H           -0.880342833202     0.106330841911    -0.997327945839
    H           -0.920365293486    -1.220396273066     0.127266533148
    C            1.738801138189    -0.523681858415    -0.300850295796
    H            0.810179553069     1.268439810168     0.441242675837
    H            0.767530717388    -0.062973593515     1.562775951193
    C            3.158872576915    -0.141514061182     0.123105228008
    H            1.604536652117    -0.283387139645    -1.353944780835
    H            1.605961390470    -1.599809081662    -0.206837055686
    C            4.236858720690    -0.996845805497    -0.540667574903
    H            3.246078221362    -0.211391877277     1.205383440638
    H            3.330231029092     0.905605953811    -0.118950115389
    H            4.118932784186    -2.045576733125    -0.283216337071
    H            5.231455861535    -0.690041483231    -0.231769502891
    H            4.187067076233    -0.916280655440    -1.623032095232

  Mulliken Charges: (a.u.)
   Center  Symbol    Alpha    Beta     Spin     Total
       1     H     0.28339  0.28339  0.00000  0.43323
       2     O     4.36830  4.36830  0.00000 -0.73660
       3     C     2.99616  2.99616  0.00000  0.00767
       4     C     3.16906  3.16906  0.00000 -0.33812
       5     H     0.41632  0.41632  0.00000  0.16736
       6     H     0.42813  0.42813  0.00000  0.14374
       7     C     3.15213  3.15213  0.00000 -0.30425
       8     H     0.42823  0.42823  0.00000  0.14354
       9     H     0.42234  0.42234  0.00000  0.15532
      10     C     3.15229  3.15229  0.00000 -0.30458
      11     H     0.41203  0.41203  0.00000  0.17594
      12     H     0.42354  0.42354  0.00000  0.15292
      13     C     3.15031  3.15031  0.00000 -0.30063
      14     H     0.42525  0.42525  0.00000  0.14950
      15     H     0.42487  0.42487  0.00000  0.15027
      16     C     3.15173  3.15173  0.00000 -0.30347
      17     H     0.42299  0.42299  0.00000  0.15402
      18     H     0.42368  0.42368  0.00000  0.15263
      19     C     3.23909  3.23909  0.00000 -0.47817
      20     H     0.42360  0.42360  0.00000  0.15281
      21     H     0.42344  0.42344  0.00000  0.15312
      22     H     0.42174  0.42174  0.00000  0.15653
      23     H     0.41977  0.41977  0.00000  0.16046
      24     H     0.42162  0.42162  0.00000  0.15676

   Total alpha = 33.00000, Total beta = 33.00000, Total charge = -0.00000
