  ==> Input File <==

--------------------------------------------------------------------------
set {
	reference rhf
	basis 6-31G*
}

set_num_threads( 4 )
memory 2 gb

molecule MOL {
0 1

H	 -3.261111	 -0.295142	 1.469456
C	 -3.306842	 -0.277400	 0.373456
C	 -2.660244	 0.921717	 -0.272021
O	 -3.838538	 -1.161155	 -0.216482
C	 -1.220012	 1.144545	 0.209990
H	 -2.705793	 0.797307	 -1.347733
H	 -3.263782	 1.790044	 -0.010477
C	 -0.252658	 0.041456	 -0.226725
H	 -0.873521	 2.100229	 -0.171974
H	 -1.211708	 1.231594	 1.295398
C	 1.180775	 0.282413	 0.250794
H	 -0.266029	 -0.034465	 -1.312038
H	 -0.597733	 -0.921000	 0.146291
C	 2.148627	 -0.814315	 -0.201312
H	 1.516199	 1.249228	 -0.115937
H	 1.192670	 0.346017	 1.338083
C	 3.580890	 -0.659131	 0.322722
H	 2.166869	 -0.852443	 -1.289387
H	 1.762857	 -1.776509	 0.128956
C	 4.622957	 -0.356852	 -0.755398
H	 3.861957	 -1.578661	 0.830082
H	 3.605127	 0.123225	 1.078535
H	 4.610150	 -1.115117	 -1.533947
H	 4.452331	 0.604956	 -1.227401
H	 5.621988	 -0.337455	 -0.330478

	symmetry c1
}
set optking {
	frozen_dihedral = ("
		20 17 14 18
	")
}

ee = optimize('scf')
oeprop('DIPOLE', 'QUADRUPOLE', 'MULLIKEN_CHARGES')
f=open( 'psi4out.xyz', 'w' )
f.write( "25  " )
f.write( str(ee) + "\n" )
f.write( MOL.save_string_xyz() )
f.close()
--------------------------------------------------------------------------

    Molecular point group: c1
  Charge       = 0
  Multiplicity = 1
  Basis Set: 6-31G*
  Basis Set:
  @DF-RHF Final Energy:  -387.11762542142952
    Total Energy =                       -387.1176254214293522
    Molecular point group: c1
  Basis Set: 6-31G*
  Basis Set:
  Basis Set: 6-31G*
  Basis Set:
  @DF-RHF Final Energy:  -387.11803044893031
    Total Energy =                       -387.1180304489308810
  Basis Set: 6-31G*
  Basis Set:
  Basis Set: 6-31G*
  Basis Set:
  @DF-RHF Final Energy:  -387.11381520051583
    Total Energy =                       -387.1138152005155462
  Basis Set: 6-31G*
  Basis Set:
  Basis Set: 6-31G*
  Basis Set:
  @DF-RHF Final Energy:  -387.11814858373577
    Total Energy =                       -387.1181485837358878
  Basis Set: 6-31G*
  Basis Set:
  @DF-RHF Final Energy:  -387.11821929022358
    Total Energy =                       -387.1182192902231236
  Basis Set: 6-31G*
  Basis Set:
  @DF-RHF Final Energy:  -387.11826059291229
    Total Energy =                       -387.1182605929119518
  Basis Set: 6-31G*
  Basis Set:
  Basis Set: 6-31G*
  Basis Set:
  @DF-RHF Final Energy:  -387.11826893465059
    Total Energy =                       -387.1182689346502457
  Basis Set: 6-31G*
  Basis Set:
  Basis Set: 6-31G*
  Basis Set:
  @DF-RHF Final Energy:  -387.11828084832450
    Total Energy =                       -387.1182808483250710
  Basis Set: 6-31G*
  Basis Set:
  Charge       = 0
  Multiplicity = 1
  Basis Set: 6-31G*
  Basis Set:

    Orbital Energies (a.u.)
    -----------------------

    Doubly Occupied:

       1A    -20.562029     2A    -11.326192     3A    -11.235420
       4A    -11.234722     5A    -11.223774     6A    -11.220597
       7A    -11.217428     8A    -11.216504     9A    -11.210912
      10A     -1.401951    11A     -1.103549    12A     -1.068357
      13A     -1.014318    14A     -0.943012    15A     -0.869202
      16A     -0.816794    17A     -0.792328    18A     -0.786906
      19A     -0.664311    20A     -0.662084    21A     -0.634076
      22A     -0.619408    23A     -0.606759    24A     -0.591494
      25A     -0.572696    26A     -0.553334    27A     -0.532742
      28A     -0.521757    29A     -0.510775    30A     -0.498125
      31A     -0.484952    32A     -0.481734    33A     -0.467126
      34A     -0.458191    35A     -0.439196    36A     -0.409552

  @DF-RHF Final Energy:  -387.11828104369272

   => Energetics <=

    Nuclear Repulsion Energy =            436.6694014748475183
    One-Electron Energy =               -1389.6707545987292178
    Two-Electron Energy =                 565.8830720801882990
    DFT Exchange-Correlation Energy =       0.0000000000000000
    Empirical Dispersion Energy =           0.0000000000000000
    PCM Polarization Energy =               0.0000000000000000
    EFP Energy =                            0.0000000000000000
    Total Energy =                       -387.1182810436934005
    Molecular point group: c1
  Basis Set: 6-31G*
  Basis Set:

  -Total Gradient:
     Atom            X                  Y                   Z
    ------   -----------------  -----------------  -----------------
       1        0.000048285321    -0.000100125919     0.000010262399
       2       -0.000167138131     0.000183298959    -0.000075415576
       3        0.000094889449    -0.000023947787     0.000019805693
       4        0.000037293861    -0.000116477246     0.000045641206
       5        0.000009552136     0.000016628344    -0.000026614397
       6        0.000003777343     0.000019501004     0.000006838486
       7       -0.000006486199     0.000014150566     0.000017940243
       8       -0.000012574870    -0.000047712386     0.000030571449
       9        0.000010080854    -0.000004213038    -0.000015931935
      10        0.000001371966     0.000014517648    -0.000007745411
      11        0.000044433873     0.000012175499    -0.000042386281
      12       -0.000001732794     0.000023240520     0.000006559513
      13       -0.000007232458    -0.000010942748    -0.000011993418
      14        0.000337018740    -0.002673849567     0.000095656191
      15        0.000035840417     0.000014717442     0.000006201551
      16       -0.000006030463     0.000011585944    -0.000006565023
      17       -0.000368270359     0.002168981457     0.000218062367
      18       -0.000258253179     0.001702353340    -0.000112918263
      19       -0.000048801523    -0.000006004371    -0.000029858155
      20        0.000234097507    -0.001256866884    -0.000136281642
      21        0.000033132902     0.000046515222    -0.000003835049
      22        0.000016864019     0.000010169434     0.000029409965
      23       -0.000005930830     0.000018845065    -0.000041552281
      24       -0.000019671210     0.000007833271     0.000011729527
      25       -0.000004516375    -0.000024373769     0.000012418838

  **** Optimization is complete! (in 9 steps) ****
    Final optimized geometry and variables:
    Molecular point group: c1

    Geometry (in Angstrom), charge = 0, multiplicity = 1:

    H           -3.332869520879    -0.192714319118     1.477978409149
    C           -3.349655700911    -0.146334542192     0.381873261571
    C           -2.666898315029     1.057632416461    -0.215830856513
    O           -3.884017671230    -1.004006119743    -0.243241749767
    C           -1.234289481509     1.240475317429     0.304402017677
    H           -2.689588307296     0.962676657582    -1.295307904570
    H           -3.260448729542     1.929868294939     0.055200844376
    C           -0.277196284398     0.130601128894    -0.138005882101
    H           -0.861166591853     2.198998904625    -0.044487260960
    H           -1.249799126056     1.299503153709     1.391403556026
    C            1.150069606722     0.336465229314     0.370532901297
    H           -0.271435077536     0.078626977146    -1.224811103222
    H           -0.644990262939    -0.834036821195     0.207300958860
    C            2.112424521495    -0.772358192759    -0.065083864176
    H            1.524339273982     1.295869472897     0.015989534933
    H            1.141034769299     0.396840114647     1.457492588993
    C            3.565218128029    -0.539765306451     0.407186049791
    H            2.089157121338    -0.836973467673    -1.150580712219
    H            1.743651452837    -1.724908960213     0.305210144767
    C            4.530550141478    -0.220866441717    -0.735255679147
    H            3.927652094189    -1.419162033105     0.931760943610
    H            3.590129607661     0.269349023196     1.132677869405
    H            4.577017526577    -1.040982692348    -1.445744659402
    H            4.217836167776     0.667377436664    -1.277970348066
    H            5.535854099374    -0.045051302519    -0.364639011421

  Mulliken Charges: (a.u.)
   Center  Symbol    Alpha    Beta     Spin     Total
       1     H     0.43263  0.43263  0.00000  0.13475
       2     C     2.83084  2.83084  0.00000  0.33832
       3     C     3.20811  3.20811  0.00000 -0.41621
       4     O     4.23776  4.23776  0.00000 -0.47553
       5     C     3.16651  3.16651  0.00000 -0.33302
       6     H     0.39973  0.39973  0.00000  0.20055
       7     H     0.40663  0.40663  0.00000  0.18675
       8     C     3.15568  3.15568  0.00000 -0.31136
       9     H     0.41282  0.41282  0.00000  0.17436
      10     H     0.41957  0.41957  0.00000  0.16085
      11     C     3.15443  3.15443  0.00000 -0.30887
      12     H     0.41800  0.41800  0.00000  0.16401
      13     H     0.41841  0.41841  0.00000  0.16319
      14     C     3.15538  3.15538  0.00000 -0.31075
      15     H     0.42293  0.42293  0.00000  0.15414
      16     H     0.42284  0.42284  0.00000  0.15432
      17     C     3.15570  3.15570  0.00000 -0.31140
      18     H     0.42001  0.42001  0.00000  0.15997
      19     H     0.41915  0.41915  0.00000  0.16171
      20     C     3.23982  3.23982  0.00000 -0.47964
      21     H     0.41945  0.41945  0.00000  0.16110
      22     H     0.42044  0.42044  0.00000  0.15913
      23     H     0.42051  0.42051  0.00000  0.15898
      24     H     0.42264  0.42264  0.00000  0.15472
      25     H     0.42003  0.42003  0.00000  0.15994

   Total alpha = 36.00000, Total beta = 36.00000, Total charge =  0.00000
