  ==> Input File <==

--------------------------------------------------------------------------
set {
	reference rhf
	basis 6-31G*
}

set_num_threads( 1 )
memory 2 gb

molecule MOL {
0 1

O	 -2.439739	 -0.935931	 -0.423848
C	 -1.921153	 0.064240	 -0.045697
C	 -2.624470	 1.379923	 0.150949
O	 -0.632575	 0.154573	 0.251549
H	 -2.168117	 2.136577	 -0.476876
H	 -3.669540	 1.273223	 -0.098610
H	 -2.519365	 1.700893	 1.180846
C	 0.160891	 -1.019931	 0.106212
C	 1.589627	 -0.672828	 0.480843
H	 0.089836	 -1.367806	 -0.916050
H	 -0.238459	 -1.792301	 0.749618
C	 1.744951	 0.704655	 1.128002
H	 2.186040	 -0.718551	 -0.428076
H	 1.974499	 -1.440823	 1.146662
C	 3.198368	 1.032245	 1.467506
H	 1.350983	 1.463355	 0.454755
H	 1.142333	 0.747771	 2.029308
H	 3.281882	 2.012638	 1.925641
H	 3.821271	 1.029017	 0.577417
H	 3.611635	 0.306589	 2.162281

	symmetry c1
}
set optking {
	frozen_dihedral = ("
		16 12 9 8,
		2 4 8 10,
		1 2 4 8
	")
}

ee = energy('scf')
oeprop('DIPOLE', 'QUADRUPOLE', 'MULLIKEN_CHARGES')
f=open( 'psi4out.xyz', 'w' )
f.write( "20  " )
f.write( str(ee) + "\n" )
f.write( MOL.save_string_xyz() )
f.close()
--------------------------------------------------------------------------

    Molecular point group: c1

    Geometry (in Angstrom), charge = 0, multiplicity = 1:

       Center              X                  Y                   Z               Mass
    ------------   -----------------  -----------------  -----------------  -----------------
           O         -2.315428031377    -1.028573991514    -0.812100429829    15.994914619560
           C         -1.796842031377    -0.028402991514    -0.433949429829    12.000000000000
           C         -2.500159031377     1.287280008486    -0.237303429829    12.000000000000
           O         -0.508264031377     0.061930008486    -0.136703429829    15.994914619560
           H         -2.043806031377     2.043934008486    -0.865128429829     1.007825032070
           H         -3.545229031377     1.180580008486    -0.486862429829     1.007825032070
           H         -2.395054031377     1.608250008486     0.792593570171     1.007825032070
           C          0.285201968623    -1.112573991514    -0.282040429829    12.000000000000
           C          1.713937968623    -0.765470991514     0.092590570171    12.000000000000
           H          0.214146968623    -1.460448991514    -1.304302429829     1.007825032070
           H         -0.114148031377    -1.884943991514     0.361365570171     1.007825032070
           C          1.869261968623     0.612012008486     0.739749570171    12.000000000000
           H          2.310350968623    -0.811193991514    -0.816328429829     1.007825032070
           H          2.098809968623    -1.533465991514     0.758409570171     1.007825032070
           C          3.322678968623     0.939602008486     1.079253570171    12.000000000000
           H          1.475293968623     1.370712008486     0.066502570171     1.007825032070
           H          1.266643968623     0.655128008486     1.641055570171     1.007825032070
           H          3.406192968623     1.919995008486     1.537388570171     1.007825032070
           H          3.945581968623     0.936374008486     0.189164570171     1.007825032070
           H          3.735945968623     0.213946008486     1.774028570171     1.007825032070

  Charge       = 0
  Multiplicity = 1
  Basis Set: 6-31G*
  Basis Set:

    Orbital Energies (a.u.)
    -----------------------

    Doubly Occupied:

       1A    -20.601181     2A    -20.544096     3A    -11.374337
       4A    -11.281518     5A    -11.233766     6A    -11.223490
       7A    -11.217693     8A    -11.210570     9A     -1.468284
      10A     -1.362605    11A     -1.084578    12A     -1.026930
      13A     -0.981098    14A     -0.878880    15A     -0.820092
      16A     -0.758078    17A     -0.692174    18A     -0.689660
      19A     -0.667625    20A     -0.632835    21A     -0.594543
      22A     -0.592911    23A     -0.573774    24A     -0.547445
      25A     -0.544619    26A     -0.533618    27A     -0.506541
      28A     -0.481492    29A     -0.477389    30A     -0.468497
      31A     -0.442491    32A     -0.438288

  @DF-RHF Final Energy:  -383.93607182987290

   => Energetics <=

    Nuclear Repulsion Energy =            389.2228336326743943
    One-Electron Energy =               -1294.4157012805389968
    Two-Electron Energy =                 521.2567958179904508
    DFT Exchange-Correlation Energy =       0.0000000000000000
    Empirical Dispersion Energy =           0.0000000000000000
    PCM Polarization Energy =               0.0000000000000000
    EFP Energy =                            0.0000000000000000
    Total Energy =                       -383.9360718298742086

  Mulliken Charges: (a.u.)
   Center  Symbol    Alpha    Beta     Spin     Total
       1     O     4.28371  4.28371  0.00000 -0.56743
       2     C     2.61795  2.61795  0.00000  0.76410
       3     C     3.28164  3.28164  0.00000 -0.56329
       4     O     4.31186  4.31186  0.00000 -0.62371
       5     H     0.40086  0.40086  0.00000  0.19827
       6     H     0.39673  0.39673  0.00000  0.20653
       7     H     0.40075  0.40075  0.00000  0.19851
       8     C     2.99562  2.99562  0.00000  0.00876
       9     C     3.17985  3.17985  0.00000 -0.35969
      10     H     0.40760  0.40760  0.00000  0.18481
      11     H     0.40955  0.40955  0.00000  0.18089
      12     C     3.14479  3.14479  0.00000 -0.28957
      13     H     0.41702  0.41702  0.00000  0.16596
      14     H     0.41567  0.41567  0.00000  0.16867
      15     C     3.24059  3.24059  0.00000 -0.48118
      16     H     0.41367  0.41367  0.00000  0.17265
      17     H     0.41899  0.41899  0.00000  0.16203
      18     H     0.41838  0.41838  0.00000  0.16324
      19     H     0.42206  0.42206  0.00000  0.15588
      20     H     0.42271  0.42271  0.00000  0.15458

   Total alpha = 32.00000, Total beta = 32.00000, Total charge = -0.00000
