                              Psi4 1.0.54 Driver

  ==> Input File <==

--------------------------------------------------------------------------
set {
	reference rhf
	basis cc-pvtz
}

set_num_threads( 4 )
memory 2 gb

molecule MOL {
0 1

H	 2.321806	 -0.083504	 0.275399
O	 1.564952	 -0.649559	 0.290245
C	 0.489979	 0.078084	 0.002623
C	 -0.763662	 -0.754014	 0.000816
O	 0.554721	 1.236277	 -0.226088
C	 -2.038001	 0.074705	 -0.000833
H	 -0.712945	 -1.405886	 -0.864342
H	 -0.715137	 -1.405770	 0.866182
H	 -2.087267	 0.710831	 -0.874232
H	 -2.903419	 -0.576199	 -0.001922
H	 -2.089467	 0.710909	 0.872389

	symmetry c1
}
set optking {
	frozen_dihedral = ("
		2 3 4 7
	")
}

ee,wfn = optimize('scf', return_wfn=True)
oeprop( wfn, 'DIPOLE', 'QUADRUPOLE', 'MULLIKEN_CHARGES')
f=open( 'psi4out.xyz', 'w' )
f.write( "11  " )
f.write( str(ee) + "\n" )
f.write( MOL.save_string_xyz() )
f.close()
--------------------------------------------------------------------------

    Molecular point group: c1
  Charge       = 0
  Multiplicity = 1
  Basis Set: CC-PVTZ
  Basis Set:
  @DF-RHF Final Energy:  -266.95306612147499
    Total Energy =                       -266.9530661214751035
    Molecular point group: c1
  Basis Set: CC-PVTZ
  Basis Set:
  Basis Set: CC-PVTZ
  Basis Set:
  @DF-RHF Final Energy:  -266.95312719635274
    Total Energy =                       -266.9531271963526819
  Basis Set: CC-PVTZ
  Basis Set:
  Basis Set: CC-PVTZ
  Basis Set:
  @DF-RHF Final Energy:  -266.95304763772322
    Total Energy =                       -266.9530476377232162
  Basis Set: CC-PVTZ
  Basis Set:
  Basis Set: CC-PVTZ
  Basis Set:
  @DF-RHF Final Energy:  -266.95313953990723
    Total Energy =                       -266.9531395399071130
  Basis Set: CC-PVTZ
  Basis Set:
  Charge       = 0
  Multiplicity = 1
  Basis Set: CC-PVTZ
  Basis Set:

    Orbital Energies (a.u.)
    -----------------------

    Doubly Occupied:

       1A    -20.605397     2A    -20.541390     3A    -11.374450
       4A    -11.242839     5A    -11.219049     6A     -1.478815
       7A     -1.370257     8A     -1.066451     9A     -0.918616
      10A     -0.804259    11A     -0.705995    12A     -0.693539
      13A     -0.664747    14A     -0.598864    15A     -0.596621
      16A     -0.533907    17A     -0.526933    18A     -0.506407
      19A     -0.484959    20A     -0.448751

  @DF-RHF Final Energy:  -266.95313987603544

   => Energetics <=

    Nuclear Repulsion Energy =            180.1607549160419808
    One-Electron Energy =                -721.4632961781248923
    Two-Electron Energy =                 274.3494013860474752
    DFT Exchange-Correlation Energy =       0.0000000000000000
    Empirical Dispersion Energy =           0.0000000000000000
    PCM Polarization Energy =               0.0000000000000000
    EFP Energy =                            0.0000000000000000
    Total Energy =                       -266.9531398760354932
    Molecular point group: c1
  Basis Set: CC-PVTZ
  Basis Set:

  -Total Gradient:
     Atom            X                  Y                   Z
    ------   -----------------  -----------------  -----------------
       1       -0.000011270036     0.000005653793    -0.000003378636
       2       -0.000087044207     0.000135453138     0.000622197372
       3        0.000028608047    -0.000120656242    -0.000902665756
       4        0.000400196790    -0.000584455867     0.000701140628
       5        0.000010283377     0.000032988260    -0.000004123735
       6        0.000007240206     0.000000163063     0.000004284432
       7       -0.000351072233     0.000529926286    -0.000411190579
       8        0.000002805744     0.000002260023    -0.000001594427
       9       -0.000002330783    -0.000000032621    -0.000000049716
      10        0.000001615801     0.000000943763    -0.000001170087
      11        0.000000967298    -0.000002243597    -0.000003449494

  **** Optimization is complete! (in 5 steps) ****
    Final optimized geometry and variables:
    Molecular point group: c1

    Geometry (in Angstrom), charge = 0, multiplicity = 1:

    H            2.327934490781    -0.085404332837     0.223136757643
    O            1.570409791353    -0.649741826224     0.262488309404
    C            0.490652867287     0.076016588846    -0.011019457301
    C           -0.762882949706    -0.757194145217    -0.004937965210
    O            0.550985160278     1.234895622310    -0.237523811429
    C           -2.036453282815     0.073744242138    -0.026445788780
    H           -0.707991111966    -1.400133863576    -0.878045633702
    H           -0.724283362598    -1.412392714649     0.856289948774
    H           -2.068647132092     0.712063612119    -0.898352214323
    H           -2.902823906623    -0.575755590138    -0.042796936722
    H           -2.103169003530     0.707411918889     0.848451151659

  Mulliken Charges: (a.u.)
   Center  Symbol    Alpha    Beta     Spin     Total
       1     H     0.38153  0.38153  0.00000  0.23695
       2     O     4.16029  4.16029  0.00000 -0.32058
       3     C     2.80360  2.80360  0.00000  0.39280
       4     C     3.09994  3.09994  0.00000 -0.19989
       5     O     4.19117  4.19117  0.00000 -0.38235
       6     C     3.13938  3.13938  0.00000 -0.27876
       7     H     0.44133  0.44133  0.00000  0.11734
       8     H     0.43779  0.43779  0.00000  0.12442
       9     H     0.44541  0.44541  0.00000  0.10918
      10     H     0.44961  0.44961  0.00000  0.10078
      11     H     0.44995  0.44995  0.00000  0.10011

   Total alpha = 20.00000, Total beta = 20.00000, Total charge = -0.00000

*** Psi4 exiting successfully. Buy a developer a beer!
