  ==> Input File <==

--------------------------------------------------------------------------
set {
	reference rhf
	basis 6-31G*
}

set_num_threads( 4 )
memory 2 gb

molecule MOL {
0 1

H	 -0.000158	 1.970498	 0.756846
O	 -0.000074	 1.880206	 -0.189275
C	 -0.000015	 0.544847	 -0.545111
C	 -1.278788	 -0.123820	 -0.051541
C	 1.278802	 -0.123718	 -0.051505
H	 -0.000001	 0.490777	 -1.623619
F	 -1.408444	 -1.303668	 -0.619600
F	 -1.279395	 -0.297514	 1.253139
F	 -2.340889	 0.597734	 -0.372321
F	 2.323327	 0.466644	 -0.591854
F	 1.326242	 -1.401483	 -0.363667
F	 1.388946	 -0.015632	 1.262939

	symmetry c1
}
set optking {
	frozen_dihedral = ("
		7 4 3 6
	")
}

ee = optimize('scf')
oeprop('DIPOLE', 'QUADRUPOLE', 'MULLIKEN_CHARGES')
f=open( 'psi4out.xyz', 'w' )
f.write( "12  " )
f.write( str(ee) + "\n" )
f.write( MOL.save_string_xyz() )
f.close()
--------------------------------------------------------------------------

    Molecular point group: c1
  Charge       = 0
  Multiplicity = 1
  Basis Set: 6-31G*
  Basis Set:
  @DF-RHF Final Energy:  -786.27682877515565
    Total Energy =                       -786.2768287751559910
    Molecular point group: c1
  Basis Set: 6-31G*
  Basis Set:
  Basis Set: 6-31G*
  Basis Set:
  @DF-RHF Final Energy:  -786.27737014407853
    Total Energy =                       -786.2773701440784180
  Basis Set: 6-31G*
  Basis Set:
  Basis Set: 6-31G*
  Basis Set:
  @DF-RHF Final Energy:  -786.27758732505151
    Total Energy =                       -786.2775873250513996
  Basis Set: 6-31G*
  Basis Set:
  Basis Set: 6-31G*
  Basis Set:
  @DF-RHF Final Energy:  -786.27761882429024
    Total Energy =                       -786.2776188242896751
  Basis Set: 6-31G*
  Basis Set:
  Basis Set: 6-31G*
  Basis Set:
  @DF-RHF Final Energy:  -786.27762377977569
    Total Energy =                       -786.2776237797755812
  Basis Set: 6-31G*
  Basis Set:
  Charge       = 0
  Multiplicity = 1
  Basis Set: 6-31G*
  Basis Set:

    Orbital Energies (a.u.)
    -----------------------

    Doubly Occupied:

       1A    -26.363395     2A    -26.363087     3A    -26.362428
       4A    -26.360157     5A    -26.358894     6A    -26.356838
       7A    -20.617661     8A    -11.526439     9A    -11.524730
      10A    -11.349271    11A     -1.764723    12A     -1.758356
      13A     -1.662008    14A     -1.658209    15A     -1.656758
      16A     -1.654509    17A     -1.436100    18A     -1.102325
      19A     -0.996476    20A     -0.938217    21A     -0.863888
      22A     -0.862483    23A     -0.851834    24A     -0.844638
      25A     -0.831469    26A     -0.815404    27A     -0.742579
      28A     -0.727254    29A     -0.724586    30A     -0.718323
      31A     -0.689278    32A     -0.686576    33A     -0.683252
      34A     -0.674483    35A     -0.669780    36A     -0.662193
      37A     -0.657150    38A     -0.653974    39A     -0.620026
      40A     -0.551016    41A     -0.505952

  @DF-RHF Final Energy:  -786.27762459545283

   => Energetics <=

    Nuclear Repulsion Energy =            670.7384549168177728
    One-Electron Energy =               -2428.3387182653541458
    Two-Electron Energy =                 971.3226387530825150
    DFT Exchange-Correlation Energy =       0.0000000000000000
    Empirical Dispersion Energy =           0.0000000000000000
    PCM Polarization Energy =               0.0000000000000000
    EFP Energy =                            0.0000000000000000
    Total Energy =                       -786.2776245954538581
    Molecular point group: c1
  Basis Set: 6-31G*
  Basis Set:

  -Total Gradient:
     Atom            X                  Y                   Z
    ------   -----------------  -----------------  -----------------
       1        0.000002005806    -0.000003159562    -0.000002332817
       2       -0.000023032222    -0.000017172946    -0.000010065325
       3       -0.001512848100     0.002441359974    -0.000445706796
       4        0.001278606865    -0.001376989835     0.001526811488
       5       -0.000000382304     0.000011838588    -0.000031399649
       6        0.001048685930    -0.001831938992     0.000074906324
       7       -0.000812685844     0.000776808909    -0.001274683092
       8        0.000084112968    -0.000016560428     0.000126917942
       9        0.000020735758     0.000033009696     0.000019196219
      10       -0.000015530259     0.000013165058     0.000029247137
      11       -0.000043356458    -0.000007882279     0.000023056183
      12       -0.000026312133    -0.000022478191    -0.000035947613

  **** Optimization is complete! (in 6 steps) ****
    Final optimized geometry and variables:
    Molecular point group: c1

    Geometry (in Angstrom), charge = 0, multiplicity = 1:

    H            0.031298665186     1.967901923853     0.810921044406
    O           -0.007504422117     1.898907348544    -0.136093268364
    C           -0.003960086909     0.574397595174    -0.524606433579
    C           -1.274043373438    -0.136220868856    -0.064992723749
    C            1.273941276039    -0.104228222676    -0.039733224259
    H            0.009318095509     0.537592520271    -1.603822561359
    F           -1.399016230606    -1.315628309082    -0.637872788418
    F           -1.288968693857    -0.305358090919     1.246752658424
    F           -2.327554265812     0.582441664589    -0.388907425546
    F            2.315727513197     0.417854302096    -0.651692112287
    F            1.267481332217    -1.399820476217    -0.274562661774
    F            1.439059553262     0.077961183776     1.260428625972

  Mulliken Charges: (a.u.)
   Center  Symbol    Alpha    Beta     Spin     Total
       1     H     0.26594  0.26594  0.00000  0.46812
       2     O     4.36156  4.36156  0.00000 -0.72312
       3     C     3.04583  3.04583  0.00000 -0.09167
       4     C     2.44798  2.44798  0.00000  1.10404
       5     C     2.44545  2.44545  0.00000  1.10911
       6     H     0.37522  0.37522  0.00000  0.24956
       7     F     4.67470  4.67470  0.00000 -0.34940
       8     F     4.67934  4.67934  0.00000 -0.35869
       9     F     4.67427  4.67427  0.00000 -0.34854
      10     F     4.67513  4.67513  0.00000 -0.35025
      11     F     4.67386  4.67386  0.00000 -0.34771
      12     F     4.68072  4.68072  0.00000 -0.36144

   Total alpha = 41.00000, Total beta = 41.00000, Total charge = -0.00000
