  ==> Input File <==

--------------------------------------------------------------------------
set {
	reference rhf
	basis 6-31G*
}

set_num_threads( 1 )
memory 2 gb

molecule MOL {
0 1

O	 -1.276010	 1.052711	 -0.768302
C	 -1.204840	 0.067374	 -0.106123
C	 -2.388195	 -0.672128	 0.458071
O	 -0.067104	 -0.527208	 0.221609
H	 -2.388023	 -1.694060	 0.097175
H	 -3.300579	 -0.174919	 0.164318
H	 -2.315377	 -0.706351	 1.539059
C	 -0.002179	 -1.960257	 0.212405
C	 1.101694	 -2.333850	 1.185791
C	 0.258942	 -2.453625	 -1.202179
H	 -0.952057	 -2.337626	 0.561450
H	 0.884717	 -1.950413	 2.176318
H	 1.195028	 -3.413041	 1.248784
H	 2.052988	 -1.925472	 0.861876
H	 0.332107	 -3.536475	 -1.212132
H	 -0.546550	 -2.163593	 -1.864781
H	 1.190364	 -2.044568	 -1.580507

	symmetry c1
}
set optking {
	frozen_dihedral = ("
		11 8 4 2
	")
}

ee = energy('scf')
oeprop('DIPOLE', 'QUADRUPOLE', 'MULLIKEN_CHARGES')
f=open( 'psi4out.xyz', 'w' )
f.write( "17  " )
f.write( str(ee) + "\n" )
f.write( MOL.save_string_xyz() )
f.close()
--------------------------------------------------------------------------

    Molecular point group: c1

    Geometry (in Angstrom), charge = 0, multiplicity = 1:

       Center              X                  Y                   Z               Mass
    ------------   -----------------  -----------------  -----------------  -----------------
           O         -0.764827484694     2.031734578739    -0.766718901367    15.994914619560
           C         -0.693657484694     1.046397578739    -0.104539901367    12.000000000000
           C         -1.877012484694     0.306895578739     0.459654098633    12.000000000000
           O          0.444078515306     0.451815578739     0.223192098633    15.994914619560
           H         -1.876840484694    -0.715036421261     0.098758098633     1.007825032070
           H         -2.789396484694     0.804104578739     0.165901098633     1.007825032070
           H         -1.804194484694     0.272672578739     1.540642098633     1.007825032070
           C          0.509003515306    -0.981233421261     0.213988098633    12.000000000000
           C          1.612876515306    -1.354826421261     1.187374098633    12.000000000000
           C          0.770124515306    -1.474601421261    -1.200595901367    12.000000000000
           H         -0.440874484694    -1.358602421261     0.563033098633     1.007825032070
           H          1.395899515306    -0.971389421261     2.177901098633     1.007825032070
           H          1.706210515306    -2.434017421261     1.250367098633     1.007825032070
           H          2.564170515306    -0.946448421261     0.863459098633     1.007825032070
           H          0.843289515306    -2.557451421261    -1.210548901367     1.007825032070
           H         -0.035367484694    -1.184569421261    -1.863197901367     1.007825032070
           H          1.701546515306    -1.065544421261    -1.578923901367     1.007825032070

  Charge       = 0
  Multiplicity = 1
  Basis Set: 6-31G*
  Basis Set:

    Orbital Energies (a.u.)
    -----------------------

    Doubly Occupied:

       1A    -20.594352     2A    -20.546123     3A    -11.375767
       4A    -11.304344     5A    -11.236072     6A    -11.229325
       7A    -11.227069     8A     -1.462092     9A     -1.367030
      10A     -1.079910    11A     -1.020069    12A     -0.959102
      13A     -0.860347    14A     -0.775088    15A     -0.700883
      16A     -0.672025    17A     -0.663771    18A     -0.628327
      19A     -0.594761    20A     -0.586583    21A     -0.564674
      22A     -0.556541    23A     -0.547448    24A     -0.525400
      25A     -0.512915    26A     -0.485083    27A     -0.447048
      28A     -0.431878

  @DF-RHF Final Energy:  -344.88612621276491

   => Energetics <=

    Nuclear Repulsion Energy =            325.2960362706954811
    One-Electron Energy =               -1114.4563880832063205
    Two-Electron Energy =                 444.2742255997460461
    DFT Exchange-Correlation Energy =       0.0000000000000000
    Empirical Dispersion Energy =           0.0000000000000000
    PCM Polarization Energy =               0.0000000000000000
    EFP Energy =                            0.0000000000000000
    Total Energy =                       -344.8861262127647933

  Mulliken Charges: (a.u.)
   Center  Symbol    Alpha    Beta     Spin     Total
       1     O     4.26552  4.26552  0.00000 -0.53104
       2     C     2.60995  2.60995  0.00000  0.78009
       3     C     3.31351  3.31351  0.00000 -0.62702
       4     O     4.30786  4.30786  0.00000 -0.61571
       5     H     0.40288  0.40288  0.00000  0.19425
       6     H     0.39212  0.39212  0.00000  0.21576
       7     H     0.39908  0.39908  0.00000  0.20185
       8     C     2.93915  2.93915  0.00000  0.12170
       9     C     3.23942  3.23942  0.00000 -0.47885
      10     C     3.24264  3.24264  0.00000 -0.48529
      11     H     0.41512  0.41512  0.00000  0.16976
      12     H     0.41090  0.41090  0.00000  0.17820
      13     H     0.41860  0.41860  0.00000  0.16279
      14     H     0.40805  0.40805  0.00000  0.18390
      15     H     0.41679  0.41679  0.00000  0.16643
      16     H     0.41339  0.41339  0.00000  0.17321
      17     H     0.40502  0.40502  0.00000  0.18995

   Total alpha = 28.00000, Total beta = 28.00000, Total charge =  0.00000
