  ==> Input File <==

--------------------------------------------------------------------------
set {
	reference rhf
	basis cc-pvtz
}

set_num_threads( 4 )
memory 2 gb

molecule MOL {
0 1

H	 -1.752232	 -2.214755	 -0.011938
C	 -1.343852	 -1.221619	 -0.018179
N	 -0.058800	 -1.097635	 -0.261688
C	 -2.148159	 -0.124236	 0.219734
C	 0.449026	 0.119242	 -0.273393
H	 -3.196988	 -0.237571	 0.417076
N	 -1.655094	 1.094230	 0.209506
C	 -0.370318	 1.215445	 -0.035100
C	 1.924033	 0.265863	 -0.538106
H	 0.033214	 2.210441	 -0.046812
C	 2.226479	 1.277840	 -1.644396
H	 2.402035	 0.583750	 0.380711
H	 2.340001	 -0.699997	 -0.799445
H	 3.296241	 1.380778	 -1.782041
H	 1.820542	 2.249072	 -1.393592
H	 1.794851	 0.964699	 -2.588423

	symmetry c1
}
set optking {
	frozen_dihedral = ("
		12 9 5 3
	")
}

ee = optimize('scf')
oeprop('DIPOLE', 'QUADRUPOLE', 'MULLIKEN_CHARGES')
f=open( 'psi4out.xyz', 'w' )
f.write( "16  " )
f.write( str(ee) + "\n" )
f.write( MOL.save_string_xyz() )
f.close()
--------------------------------------------------------------------------

    Molecular point group: c1
  Charge       = 0
  Multiplicity = 1
  Basis Set: CC-PVTZ
  Basis Set:
  @DF-RHF Final Energy:  -340.86988817071386
    Total Energy =                       -340.8698881707139208
    Molecular point group: c1
  Basis Set: CC-PVTZ
  Basis Set:
  Basis Set: CC-PVTZ
  Basis Set:
  @DF-RHF Final Energy:  -340.87037809546155
    Total Energy =                       -340.8703780954618310
  Basis Set: CC-PVTZ
  Basis Set:
  Basis Set: CC-PVTZ
  Basis Set:
  @DF-RHF Final Energy:  -340.87053164797101
    Total Energy =                       -340.8705316479709495
  Basis Set: CC-PVTZ
  Basis Set:
  Basis Set: CC-PVTZ
  Basis Set:
  @DF-RHF Final Energy:  -340.87055653385522
    Total Energy =                       -340.8705565338549945
  Basis Set: CC-PVTZ
  Basis Set:
  Basis Set: CC-PVTZ
  Basis Set:
  @DF-RHF Final Energy:  -340.87056195910469
    Total Energy =                       -340.8705619591047480
  Basis Set: CC-PVTZ
  Basis Set:
  Basis Set: CC-PVTZ
  Basis Set:
  @DF-RHF Final Energy:  -340.87056435659593
    Total Energy =                       -340.8705643565961623
  Basis Set: CC-PVTZ
  Basis Set:
  Charge       = 0
  Multiplicity = 1
  Basis Set: CC-PVTZ
  Basis Set:

    Orbital Energies (a.u.)
    -----------------------

    Doubly Occupied:

       1A    -15.580315     2A    -15.575479     3A    -11.279287
       4A    -11.270713     5A    -11.269108     6A    -11.266687
       7A    -11.231505     8A    -11.221676     9A     -1.315478
      10A     -1.223416    11A     -1.086529    12A     -1.016569
      13A     -0.906814    14A     -0.896125    15A     -0.831799
      16A     -0.716811    17A     -0.713840    18A     -0.656823
      19A     -0.618628    20A     -0.608111    21A     -0.580808
      22A     -0.565533    23A     -0.524116    24A     -0.511945
      25A     -0.505656    26A     -0.483231    27A     -0.433811
      28A     -0.397546    29A     -0.346377

  @DF-RHF Final Energy:  -340.87056477985959

   => Energetics <=

    Nuclear Repulsion Energy =            350.0325973237125936
    One-Electron Energy =               -1154.5368545659657684
    Two-Electron Energy =                 463.6336924623938103
    DFT Exchange-Correlation Energy =       0.0000000000000000
    Empirical Dispersion Energy =           0.0000000000000000
    PCM Polarization Energy =               0.0000000000000000
    EFP Energy =                            0.0000000000000000
    Total Energy =                       -340.8705647798593645
    Molecular point group: c1
  Basis Set: CC-PVTZ
  Basis Set:

  -Total Gradient:
     Atom            X                  Y                   Z
    ------   -----------------  -----------------  -----------------
       1        0.000001601641     0.000001783986    -0.000012464038
       2        0.000008045916     0.000008334014     0.000060009685
       3        0.000196269009    -0.000072841806     0.001016797610
       4        0.000009700633    -0.000005028706    -0.000013964946
       5       -0.000237336357    -0.000234692647    -0.001406222114
       6       -0.000001285852     0.000002460740    -0.000007573326
       7        0.000021558911     0.000012502774     0.000002260553
       8       -0.000018297240     0.000021525455    -0.000007369987
       9       -0.000121470586     0.001428139664     0.000041534759
      10       -0.000013481251    -0.000003662827    -0.000000051391
      11       -0.000005654865    -0.000008094527     0.000020967709
      12        0.000199171210    -0.001183123729     0.000312525368
      13       -0.000040394373     0.000003615978     0.000020069039
      14       -0.000010570365     0.000010859218    -0.000003378225
      15        0.000001104376     0.000018140107    -0.000015213767
      16        0.000011039194     0.000000082310    -0.000007926929

  **** Optimization is complete! (in 7 steps) ****
    Final optimized geometry and variables:
    Molecular point group: c1

    Geometry (in Angstrom), charge = 0, multiplicity = 1:

    H           -1.658691744217    -2.435501302293     0.279141581263
    C           -1.263912710585    -1.437221785371     0.284175280537
    N            0.023974294946    -1.296060731878     0.036675457151
    C           -2.075319357189    -0.356385950611     0.540497365895
    C            0.519112213853    -0.078555786832     0.036831802961
    H           -3.122041967437    -0.480579339745     0.740941854032
    N           -1.591121805556     0.870763498734     0.551898751126
    C           -0.313440096800     1.008159415151     0.304176145798
    C            1.996668330987     0.086965094083    -0.222923050305
    H            0.079037042494     2.007087647586     0.319460942618
    C            2.338827531229     1.061774502527    -1.349675441788
    H            2.481121951760     0.402828736903     0.696422877134
    H            2.386995048551    -0.893795048763    -0.455075204771
    H            3.411043374904     1.097397620410    -1.499281748219
    H            2.005245526437     2.069136560434    -1.132729352821
    H            1.880542215122     0.752357163859    -2.281635471201

  Mulliken Charges: (a.u.)
   Center  Symbol    Alpha    Beta     Spin     Total
       1     H     0.41381  0.41381  0.00000  0.17237
       2     C     3.04074  3.04074  0.00000 -0.08148
       3     N     3.58962  3.58962  0.00000 -0.17924
       4     C     3.04825  3.04825  0.00000 -0.09650
       5     C     2.94980  2.94980  0.00000  0.10040
       6     H     0.41354  0.41354  0.00000  0.17292
       7     N     3.58761  3.58761  0.00000 -0.17521
       8     C     3.07545  3.07545  0.00000 -0.15091
       9     C     3.08234  3.08234  0.00000 -0.16468
      10     H     0.41466  0.41466  0.00000  0.17068
      11     C     3.14693  3.14693  0.00000 -0.29386
      12     H     0.44660  0.44660  0.00000  0.10681
      13     H     0.44028  0.44028  0.00000  0.11944
      14     H     0.44675  0.44675  0.00000  0.10650
      15     H     0.45499  0.45499  0.00000  0.09002
      16     H     0.44863  0.44863  0.00000  0.10274

   Total alpha = 29.00000, Total beta = 29.00000, Total charge = -0.00000
