  ==> Input File <==

--------------------------------------------------------------------------
set {
	reference rhf
	basis 6-31G*
}

set_num_threads( 4 )
memory 2 gb

molecule MOL {
0 1

H	 -2.698709	 -0.000305	 0.034435
C	 -1.693833	 0.000034	 0.434417
O	 -0.828952	 -0.000968	 -0.659236
H	 -1.574200	 0.882896	 1.055746
H	 -1.574147	 -0.881698	 1.057355
C	 -0.078896	 1.161093	 -0.926693
C	 -0.959330	 2.355439	 -1.289032
C	 0.912333	 1.487719	 0.188537
H	 0.490533	 0.889366	 -1.807571
H	 -1.682753	 2.073441	 -2.046452
H	 -0.348139	 3.160444	 -1.684821
H	 -1.496268	 2.745770	 -0.430251
H	 1.483846	 0.605002	 0.454321
H	 1.605149	 2.254617	 -0.143636
H	 0.419050	 1.858659	 1.081239

	symmetry c1
}
set optking {
	frozen_dihedral = ("
		6 3 2 1
	")
}

ee = optimize('scf')
oeprop('DIPOLE', 'QUADRUPOLE', 'MULLIKEN_CHARGES')
f=open( 'psi4out.xyz', 'w' )
f.write( "15  " )
f.write( str(ee) + "\n" )
f.write( MOL.save_string_xyz() )
f.close()
--------------------------------------------------------------------------

    Molecular point group: c1
  Charge       = 0
  Multiplicity = 1
  Basis Set: 6-31G*
  Basis Set:
  @DF-RHF Final Energy:  -232.13439338939750
    Total Energy =                       -232.1343933893974736
    Molecular point group: c1
  Basis Set: 6-31G*
  Basis Set:
  Basis Set: 6-31G*
  Basis Set:
  @DF-RHF Final Energy:  -232.13526799997669
    Total Energy =                       -232.1352679999765769
  Basis Set: 6-31G*
  Basis Set:
  Basis Set: 6-31G*
  Basis Set:
  @DF-RHF Final Energy:  -232.13539829895325
    Total Energy =                       -232.1353982989531914
  Basis Set: 6-31G*
  Basis Set:
  Basis Set: 6-31G*
  Basis Set:
  @DF-RHF Final Energy:  -232.13556065158599
    Total Energy =                       -232.1355606515859904
  Basis Set: 6-31G*
  Basis Set:
  Basis Set: 6-31G*
  Basis Set:
  @DF-RHF Final Energy:  -232.13556744105779
    Total Energy =                       -232.1355674410579013
  Basis Set: 6-31G*
  Basis Set:
  Basis Set: 6-31G*
  Basis Set:
  @DF-RHF Final Energy:  -232.13557992398538
    Total Energy =                       -232.1355799239852331
  Basis Set: 6-31G*
  Basis Set:
  Charge       = 0
  Multiplicity = 1
  Basis Set: 6-31G*
  Basis Set:

    Orbital Energies (a.u.)
    -----------------------

    Doubly Occupied:

       1A    -20.545984     2A    -11.274939     3A    -11.261450
       4A    -11.210733     5A    -11.210190     6A     -1.368037
       7A     -1.049950     8A     -0.939812     9A     -0.931411
      10A     -0.781563    11A     -0.675766    12A     -0.638137
      13A     -0.631964    14A     -0.569338    15A     -0.563398
      16A     -0.552646    17A     -0.538253    18A     -0.500828
      19A     -0.497756    20A     -0.441911    21A     -0.402876

  @DF-RHF Final Energy:  -232.13558007595441

   => Energetics <=

    Nuclear Repulsion Energy =            198.6200258593709123
    One-Electron Energy =                -708.3373261741372744
    Two-Electron Energy =                 277.5817202388121814
    DFT Exchange-Correlation Energy =       0.0000000000000000
    Empirical Dispersion Energy =           0.0000000000000000
    PCM Polarization Energy =               0.0000000000000000
    EFP Energy =                            0.0000000000000000
    Total Energy =                       -232.1355800759541808
    Molecular point group: c1
  Basis Set: 6-31G*
  Basis Set:

  -Total Gradient:
     Atom            X                  Y                   Z
    ------   -----------------  -----------------  -----------------
       1        0.000015263926    -0.001256956302     0.000046535391
       2        0.000358893732     0.001482002819     0.000277600536
       3       -0.001097812527     0.000080075227    -0.000971118343
       4       -0.000038666560    -0.000036593699     0.000023698437
       5        0.000013876846     0.000000463975    -0.000018668122
       6        0.000696964380    -0.000316550697     0.000699264487
       7        0.000015956461     0.000035195469    -0.000035937267
       8        0.000028299894     0.000000515059    -0.000009476324
       9       -0.000008233527    -0.000000177285     0.000010658740
      10       -0.000001209226     0.000004172484    -0.000002451601
      11       -0.000008306848     0.000011951765    -0.000004313672
      12        0.000013266555    -0.000001207003    -0.000015339927
      13        0.000005991554     0.000000239141     0.000006225959
      14        0.000002175739    -0.000001889564     0.000002088918
      15        0.000003539602    -0.000001241389    -0.000008767210

  **** Optimization is complete! (in 7 steps) ****
    Final optimized geometry and variables:
    Molecular point group: c1

    Geometry (in Angstrom), charge = 0, multiplicity = 1:

    H           -2.197829077489    -1.002943434893     0.485702691874
    C           -1.178958950720    -0.976654328210     0.859574477960
    O           -0.273647368192    -0.995901696478    -0.205964511999
    H           -1.069040029110    -0.108581077589     1.498157025511
    H           -1.017612338508    -1.861717307889     1.464334524579
    C            0.474481724687     0.162073734408    -0.492536808749
    C           -0.412044023690     1.349815849837    -0.860830137364
    C            1.476078955339     0.490897771385     0.612602671564
    H            1.037286807928    -0.117987089460    -1.374940939434
    H           -1.109427046239     1.067680654073    -1.642109125452
    H            0.193714249024     2.173546841579    -1.225686796520
    H           -0.981394259911     1.713159819690    -0.010893630753
    H            2.069566198205    -0.385214928780     0.849585544487
    H            2.146879803660     1.280502673815     0.288023899316
    H            0.989646003970     0.829246316433     1.521980338689

  Mulliken Charges: (a.u.)
   Center  Symbol    Alpha    Beta     Spin     Total
       1     H     0.42276  0.42276  0.00000  0.15447
       2     C     3.07904  3.07904  0.00000 -0.15808
       3     O     4.31518  4.31518  0.00000 -0.63036
       4     H     0.42960  0.42960  0.00000  0.14080
       5     H     0.41819  0.41819  0.00000  0.16362
       6     C     2.91005  2.91005  0.00000  0.17990
       7     C     3.25181  3.25181  0.00000 -0.50363
       8     C     3.25043  3.25043  0.00000 -0.50087
       9     H     0.41550  0.41550  0.00000  0.16900
      10     H     0.41171  0.41171  0.00000  0.17658
      11     H     0.41965  0.41965  0.00000  0.16071
      12     H     0.42202  0.42202  0.00000  0.15595
      13     H     0.41152  0.41152  0.00000  0.17697
      14     H     0.42035  0.42035  0.00000  0.15931
      15     H     0.42219  0.42219  0.00000  0.15563

   Total alpha = 21.00000, Total beta = 21.00000, Total charge =  0.00000
