  ==> Input File <==

--------------------------------------------------------------------------
set {
	reference rhf
	basis 6-31G*
}

set_num_threads( 1 )
memory 2 gb

molecule MOL {
0 1

O	 3.225979	 0.970355	 -0.599647
C	 2.701189	 0.057885	 -0.047330
C	 1.245376	 -0.013843	 0.345420
O	 3.347903	 -1.046386	 0.304773
C	 0.455112	 1.231400	 -0.050772
H	 0.838542	 -0.913825	 -0.103701
H	 1.208210	 -0.175333	 1.419774
C	 -0.998893	 1.219485	 0.433193
H	 0.482531	 1.345121	 -1.130325
H	 0.957290	 2.103070	 0.354729
C	 -1.883438	 0.145884	 -0.207175
H	 -1.431207	 2.195402	 0.224832
H	 -1.019646	 1.105716	 1.516076
C	 -1.844671	 -1.184668	 0.547231
H	 -2.910264	 0.506122	 -0.248122
H	 -1.578523	 -0.025492	 -1.237044
C	 -2.720847	 -2.266611	 -0.086683
H	 -2.161573	 -1.024104	 1.576322
H	 -0.816661	 -1.540100	 0.597849
C	 -2.679517	 -3.591000	 0.674885
H	 -3.748292	 -1.912681	 -0.138956
H	 -2.402790	 -2.431608	 -1.114008
H	 -3.310007	 -4.337303	 0.201470
H	 -3.025368	 -3.466319	 1.697156
H	 -1.669377	 -3.988840	 0.715065
C	 4.728119	 -1.109107	 -0.004993
H	 4.882018	 -1.033965	 -1.071845
H	 5.068212	 -2.067527	 0.355250
H	 5.265056	 -0.311663	 0.488280

	symmetry c1
}
set optking {
	frozen_dihedral = ("
		21 17 14 11,
		17 14 11 15,
		6 3 5 9,
		11 8 5 9,
		2 4 26 27,
		1 2 4 26,
		6 3 2 1
	")
}

ee = energy('scf')
oeprop('DIPOLE', 'QUADRUPOLE', 'MULLIKEN_CHARGES')
f=open( 'psi4out.xyz', 'w' )
f.write( "29  " )
f.write( str(ee) + "\n" )
f.write( MOL.save_string_xyz() )
f.close()
--------------------------------------------------------------------------

    Molecular point group: c1

    Geometry (in Angstrom), charge = 0, multiplicity = 1:

       Center              X                  Y                   Z               Mass
    ------------   -----------------  -----------------  -----------------  -----------------
           O          2.670969956086     1.498028252667    -0.717674280509    15.994914619560
           C          2.146179956086     0.585558252667    -0.165357280509    12.000000000000
           C          0.690366956086     0.513830252667     0.227392719491    12.000000000000
           O          2.792893956086    -0.518712747333     0.186745719491    15.994914619560
           C         -0.099897043914     1.759073252667    -0.168799280509    12.000000000000
           H          0.283532956086    -0.386151747333    -0.221728280509     1.007825032070
           H          0.653200956086     0.352340252667     1.301746719491     1.007825032070
           C         -1.553902043914     1.747158252667     0.315165719491    12.000000000000
           H         -0.072478043914     1.872794252667    -1.248352280509     1.007825032070
           H          0.402280956086     2.630743252667     0.236701719491     1.007825032070
           C         -2.438447043914     0.673557252667    -0.325202280509    12.000000000000
           H         -1.986216043914     2.723075252667     0.106804719491     1.007825032070
           H         -1.574655043914     1.633389252667     1.398048719491     1.007825032070
           C         -2.399680043914    -0.656994747333     0.429203719491    12.000000000000
           H         -3.465273043914     1.033795252667    -0.366149280509     1.007825032070
           H         -2.133532043914     0.502181252667    -1.355071280509     1.007825032070
           C         -3.275856043914    -1.738937747333    -0.204710280509    12.000000000000
           H         -2.716582043914    -0.496430747333     1.458294719491     1.007825032070
           H         -1.371670043914    -1.012426747333     0.479821719491     1.007825032070
           C         -3.234526043914    -3.063326747333     0.556857719491    12.000000000000
           H         -4.303301043914    -1.385007747333    -0.256983280509     1.007825032070
           H         -2.957799043914    -1.903934747333    -1.232035280509     1.007825032070
           H         -3.865016043914    -3.809629747333     0.083442719491     1.007825032070
           H         -3.580377043914    -2.938645747333     1.579128719491     1.007825032070
           H         -2.224386043914    -3.461166747333     0.597037719491     1.007825032070
           C          4.173109956086    -0.581433747333    -0.123020280509    12.000000000000
           H          4.327008956086    -0.506291747333    -1.189872280509     1.007825032070
           H          4.513202956086    -1.539853747333     0.237222719491     1.007825032070
           H          4.710046956086     0.216010252667     0.370252719491     1.007825032070

  Charge       = 0
  Multiplicity = 1
  Basis Set: 6-31G*
  Basis Set:

    Orbital Energies (a.u.)
    -----------------------

    Doubly Occupied:

       1A    -20.603527     2A    -20.545179     3A    -11.371741
       4A    -11.280793     5A    -11.234530     6A    -11.219175
       7A    -11.216953     8A    -11.216047     9A    -11.215373
      10A    -11.214085    11A    -11.209596    12A     -1.469152
      13A     -1.362555    14A     -1.100610    15A     -1.064844
      16A     -1.019864    17A     -0.976405    18A     -0.931936
      19A     -0.862071    20A     -0.803090    21A     -0.786439
      22A     -0.764693    23A     -0.702277    24A     -0.683046
      25A     -0.671754    26A     -0.651165    27A     -0.626309
      28A     -0.607943    29A     -0.595315    30A     -0.574409
      31A     -0.566433    32A     -0.562455    33A     -0.535661
      34A     -0.526003    35A     -0.520031    36A     -0.504150
      37A     -0.499060    38A     -0.479450    39A     -0.472044
      40A     -0.464705    41A     -0.458509    42A     -0.455513
      43A     -0.437183    44A     -0.432521

  @DF-RHF Final Energy:  -501.03733147039907

   => Energetics <=

    Nuclear Repulsion Energy =            630.6514221998147605
    One-Electron Energy =               -1932.3884227815685790
    Two-Electron Energy =                 800.6996691113564566
    DFT Exchange-Correlation Energy =       0.0000000000000000
    Empirical Dispersion Energy =           0.0000000000000000
    PCM Polarization Energy =               0.0000000000000000
    EFP Energy =                            0.0000000000000000
    Total Energy =                       -501.0373314703973620

  Mulliken Charges: (a.u.)
   Center  Symbol    Alpha    Beta     Spin     Total
       1     O     4.28626  4.28626  0.00000 -0.57252
       2     C     2.60251  2.60251  0.00000  0.79498
       3     C     3.21360  3.21360  0.00000 -0.42719
       4     O     4.30758  4.30758  0.00000 -0.61516
       5     C     3.15209  3.15209  0.00000 -0.30417
       6     H     0.39843  0.39843  0.00000  0.20313
       7     H     0.40065  0.40065  0.00000  0.19871
       8     C     3.16002  3.16002  0.00000 -0.32004
       9     H     0.41297  0.41297  0.00000  0.17406
      10     H     0.40913  0.40913  0.00000  0.18174
      11     C     3.15653  3.15653  0.00000 -0.31307
      12     H     0.41634  0.41634  0.00000  0.16732
      13     H     0.42267  0.42267  0.00000  0.15466
      14     C     3.15498  3.15498  0.00000 -0.30995
      15     H     0.41931  0.41931  0.00000  0.16138
      16     H     0.42216  0.42216  0.00000  0.15568
      17     C     3.15116  3.15116  0.00000 -0.30232
      18     H     0.42323  0.42323  0.00000  0.15353
      19     H     0.42295  0.42295  0.00000  0.15409
      20     C     3.23935  3.23935  0.00000 -0.47871
      21     H     0.42260  0.42260  0.00000  0.15480
      22     H     0.42361  0.42361  0.00000  0.15278
      23     H     0.41909  0.41909  0.00000  0.16183
      24     H     0.42171  0.42171  0.00000  0.15659
      25     H     0.42195  0.42195  0.00000  0.15609
      26     C     3.09244  3.09244  0.00000 -0.18489
      27     H     0.40910  0.40910  0.00000  0.18180
      28     H     0.40851  0.40851  0.00000  0.18297
      29     H     0.40906  0.40906  0.00000  0.18188

   Total alpha = 44.00000, Total beta = 44.00000, Total charge =  0.00000
