                              Psi4 1.0.54 Driver

  ==> Input File <==

--------------------------------------------------------------------------
set {
	reference rhf
	basis cc-pvtz
}

set_num_threads( 4 )
memory 2 gb

molecule MOL {
0 1

H	 -2.266619	 1.169943	 0.000098
O	 -1.438073	 1.611259	 0.000041
C	 -0.408657	 0.734701	 0.000005
C	 -0.332919	 -0.139722	 1.068208
C	 0.536503	 0.702194	 -1.018685
H	 -1.081366	 -0.083061	 1.834072
C	 0.691003	 -1.060783	 1.133000
C	 1.554207	 -0.233495	 -0.927618
C	 0.452445	 1.657095	 -2.183717
H	 0.743387	 -1.736444	 1.965298
C	 1.642642	 -1.112916	 0.132953
H	 2.292568	 -0.271364	 -1.706950
H	 0.512212	 2.692802	 -1.861133
H	 1.265724	 1.488495	 -2.874798
H	 -0.473519	 1.535272	 -2.738760
H	 2.441963	 -1.826739	 0.176684

	symmetry c1
}
set optking {
	frozen_dihedral = ("
		4 3 2 1
	")
}

ee,wfn = optimize('scf', return_wfn=True)
oeprop( wfn, 'DIPOLE', 'QUADRUPOLE', 'MULLIKEN_CHARGES')
f=open( 'psi4out.xyz', 'w' )
f.write( "16  " )
f.write( str(ee) + "\n" )
f.write( MOL.save_string_xyz() )
f.close()
--------------------------------------------------------------------------

    Molecular point group: c1
  Charge       = 0
  Multiplicity = 1
  Basis Set: CC-PVTZ
  Basis Set:
  @DF-RHF Final Energy:  -344.71546193196747
    Total Energy =                       -344.7154619319677522
    Molecular point group: c1
  Basis Set: CC-PVTZ
  Basis Set:
  Basis Set: CC-PVTZ
  Basis Set:
  @DF-RHF Final Energy:  -344.71701348386694
    Total Energy =                       -344.7170134838667082
  Basis Set: CC-PVTZ
  Basis Set:
  Basis Set: CC-PVTZ
  Basis Set:
  @DF-RHF Final Energy:  -344.71710718537059
    Total Energy =                       -344.7171071853707645
  Basis Set: CC-PVTZ
  Basis Set:
  Basis Set: CC-PVTZ
  Basis Set:
  @DF-RHF Final Energy:  -344.71711328550509
    Total Energy =                       -344.7171132855052065
  Basis Set: CC-PVTZ
  Basis Set:
  Charge       = 0
  Multiplicity = 1
  Basis Set: CC-PVTZ
  Basis Set:

    Orbital Energies (a.u.)
    -----------------------

    Doubly Occupied:

       1A    -20.573037     2A    -11.284852     3A    -11.231582
       4A    -11.227771     5A    -11.225786     6A    -11.223675
       7A    -11.221225     8A    -11.214719     9A     -1.400314
      10A     -1.153259    11A     -1.047422    12A     -1.006609
      13A     -0.933162    14A     -0.839067    15A     -0.804740
      16A     -0.732230    17A     -0.670981    18A     -0.658174
      19A     -0.622859    20A     -0.594973    21A     -0.574351
      22A     -0.564421    23A     -0.544014    24A     -0.527571
      25A     -0.502394    26A     -0.486865    27A     -0.469820
      28A     -0.333375    29A     -0.318192

  @DF-RHF Final Energy:  -344.71711495975916

   => Energetics <=

    Nuclear Repulsion Energy =            350.5578398645116636
    One-Electron Energy =               -1162.5750295110158277
    Two-Electron Energy =                 467.3000746867446651
    DFT Exchange-Correlation Energy =       0.0000000000000000
    Empirical Dispersion Energy =           0.0000000000000000
    PCM Polarization Energy =               0.0000000000000000
    EFP Energy =                            0.0000000000000000
    Total Energy =                       -344.7171149597595559
    Molecular point group: c1
  Basis Set: CC-PVTZ
  Basis Set:

  -Total Gradient:
     Atom            X                  Y                   Z
    ------   -----------------  -----------------  -----------------
       1        0.000038530868    -0.000071738325    -0.002136270956
       2        0.000355752640     0.000636999503     0.003026451710
       3       -0.001162943721    -0.001618771023    -0.001702235159
       4        0.000847206365     0.001082292772     0.000721727806
       5       -0.000168303262     0.000131105064     0.000047541354
       6        0.000042175748    -0.000015475318    -0.000021064612
       7       -0.000004681545    -0.000045277225     0.000023083363
       8        0.000045000712    -0.000138909319     0.000047162352
       9        0.000039712211     0.000030065133    -0.000063964593
      10        0.000041682381    -0.000025330993    -0.000003467097
      11        0.000017802561     0.000060407560    -0.000050604116
      12       -0.000013861509     0.000007028678     0.000010460827
      13       -0.000009973023     0.000012024149     0.000003704789
      14       -0.000038063022    -0.000021374333     0.000055920692
      15       -0.000017295796     0.000003004468    -0.000011957894
      16       -0.000012741609    -0.000026050790     0.000053511535

  **** Optimization is complete! (in 5 steps) ****
    Final optimized geometry and variables:
    Molecular point group: c1

    Geometry (in Angstrom), charge = 0, multiplicity = 1:

    H           -2.536317126663     0.914738632389     0.205128058202
    O           -1.689079772966     1.322923160830     0.194363857441
    C           -0.698596655557     0.383623733539     0.249192470473
    C           -0.612462729807    -0.478886577592     1.323097825799
    C            0.250526275170     0.366344210780    -0.764603470078
    H           -1.347682910517    -0.418582507774     2.103369002531
    C            0.415234139329    -1.400591192980     1.391270038634
    C            1.277506363265    -0.557591813042    -0.668849886843
    C            0.155995315443     1.328807060339    -1.919674879251
    H            0.475027678055    -2.073088660756     2.225443088615
    C            1.364996518813    -1.440310194369     0.392350586872
    H            2.021674999573    -0.588791815546    -1.442597523801
    H            0.193470659396     2.355320839076    -1.576763398223
    H            0.969741948588     1.170669875308    -2.614390975589
    H           -0.777574007238     1.206966133423    -2.455706646010
    H            2.170806177096    -2.147304174515     0.437689969522

  Mulliken Charges: (a.u.)
   Center  Symbol    Alpha    Beta     Spin     Total
       1     H     0.38542  0.38542  0.00000  0.22916
       2     O     4.18824  4.18824  0.00000 -0.37647
       3     C     2.88319  2.88319  0.00000  0.23363
       4     C     3.11775  3.11775  0.00000 -0.23551
       5     C     2.99240  2.99240  0.00000  0.01521
       6     H     0.42382  0.42382  0.00000  0.15235
       7     C     3.07551  3.07551  0.00000 -0.15102
       8     C     3.09126  3.09126  0.00000 -0.18252
       9     C     3.13918  3.13918  0.00000 -0.27836
      10     H     0.42241  0.42241  0.00000  0.15518
      11     C     3.08207  3.08207  0.00000 -0.16413
      12     H     0.42459  0.42459  0.00000  0.15083
      13     H     0.44451  0.44451  0.00000  0.11098
      14     H     0.45361  0.45361  0.00000  0.09279
      15     H     0.45176  0.45176  0.00000  0.09648
      16     H     0.42430  0.42430  0.00000  0.15140

   Total alpha = 29.00000, Total beta = 29.00000, Total charge =  0.00000

*** Psi4 exiting successfully. Buy a developer a beer!
