                              Psi4 1.0.54 Driver

  ==> Input File <==

--------------------------------------------------------------------------
set {
	reference rhf
	basis cc-pvtz
}

set_num_threads( 4 )
memory 2 gb

molecule MOL {
0 1

H	 -2.123894	 -0.667238	 -0.609809
O	 -2.041679	 -0.058866	 0.103463
C	 -0.959304	 0.780994	 -0.094939
C	 0.354905	 0.037902	 -0.006215
H	 -0.985899	 1.279578	 -1.057596
H	 -0.969809	 1.529522	 0.682889
F	 1.070628	 0.209723	 -1.103489
F	 1.066198	 0.486037	 1.007113
F	 0.191668	 -1.253104	 0.156970

	symmetry c1
}
set optking {
	frozen_dihedral = ("
		7 4 3 5
	")
}

ee,wfn = optimize('scf', return_wfn=True)
oeprop( wfn, 'DIPOLE', 'QUADRUPOLE', 'MULLIKEN_CHARGES')
f=open( 'psi4out.xyz', 'w' )
f.write( "9  " )
f.write( str(ee) + "\n" )
f.write( MOL.save_string_xyz() )
f.close()
--------------------------------------------------------------------------

    Molecular point group: c1
  Charge       = 0
  Multiplicity = 1
  Basis Set: CC-PVTZ
  Basis Set:
  @DF-RHF Final Energy:  -450.83916936120892
    Total Energy =                       -450.8391693612086328
    Molecular point group: c1
  Basis Set: CC-PVTZ
  Basis Set:
  Basis Set: CC-PVTZ
  Basis Set:
  @DF-RHF Final Energy:  -450.83961559265634
    Total Energy =                       -450.8396155926565143
  Basis Set: CC-PVTZ
  Basis Set:
  Basis Set: CC-PVTZ
  Basis Set:
  @DF-RHF Final Energy:  -450.84005667711966
    Total Energy =                       -450.8400566771197759
  Basis Set: CC-PVTZ
  Basis Set:
  Basis Set: CC-PVTZ
  Basis Set:
  @DF-RHF Final Energy:  -450.84007832235488
    Total Energy =                       -450.8400783223547137
  Basis Set: CC-PVTZ
  Basis Set:
  Basis Set: CC-PVTZ
  Basis Set:
  @DF-RHF Final Energy:  -450.84008302142570
    Total Energy =                       -450.8400830214258690
  Basis Set: CC-PVTZ
  Basis Set:
  Charge       = 0
  Multiplicity = 1
  Basis Set: CC-PVTZ
  Basis Set:

    Orbital Energies (a.u.)
    -----------------------

    Doubly Occupied:

       1A    -26.338838     2A    -26.336949     3A    -26.336655
       4A    -20.582798     5A    -11.495735     6A    -11.309923
       7A     -1.747984     8A     -1.644284     9A     -1.641886
      10A     -1.406106    11A     -1.044709    12A     -0.930189
      13A     -0.836627    14A     -0.834903    15A     -0.814030
      16A     -0.729343    17A     -0.719386    18A     -0.704807
      19A     -0.670806    20A     -0.665662    21A     -0.648065
      22A     -0.631161    23A     -0.616189    24A     -0.528972
      25A     -0.483930

  @DF-RHF Final Energy:  -450.84008388055759

   => Energetics <=

    Nuclear Repulsion Energy =            276.5437030317689278
    One-Electron Energy =               -1175.3677039985193460
    Two-Electron Energy =                 447.9839170861928892
    DFT Exchange-Correlation Energy =       0.0000000000000000
    Empirical Dispersion Energy =           0.0000000000000000
    PCM Polarization Energy =               0.0000000000000000
    EFP Energy =                            0.0000000000000000
    Total Energy =                       -450.8400838805575290
    Molecular point group: c1
  Basis Set: CC-PVTZ
  Basis Set:

  -Total Gradient:
     Atom            X                  Y                   Z
    ------   -----------------  -----------------  -----------------
       1       -0.000017623679    -0.000009081518    -0.000000012730
       2        0.000083673950     0.000028154695    -0.000015670253
       3       -0.001263828255    -0.002335026964    -0.001113740941
       4        0.001082452548     0.001940059444     0.001055884982
       5        0.000824118022     0.001567602484     0.000789540702
       6        0.000015040342     0.000018226452    -0.000002075748
       7       -0.000626881324    -0.001233712676    -0.000710619942
       8       -0.000071265165    -0.000022900209    -0.000063301755
       9       -0.000025686430     0.000046678292     0.000059995688

  **** Optimization is complete! (in 6 steps) ****
    Final optimized geometry and variables:
    Molecular point group: c1

    Geometry (in Angstrom), charge = 0, multiplicity = 1:

    H           -2.137919872017    -0.702701214154    -0.568468192504
    O           -2.081754138532    -0.036079863849     0.092786259103
    C           -0.981172497014     0.775598589494    -0.109711100871
    C            0.360601346843     0.033297837659    -0.007245088869
    H           -1.001164429998     1.279880244024    -1.068196651247
    H           -0.995261261531     1.527478732592     0.663436244777
    F            1.088353599749     0.219129215186    -1.093375533799
    F            1.076680599150     0.452471430131     1.013503422908
    F            0.198902913469    -1.263797233019     0.127255573492

  Mulliken Charges: (a.u.)
   Center  Symbol    Alpha    Beta     Spin     Total
       1     H     0.38796  0.38796  0.00000  0.22407
       2     O     4.18439  4.18439  0.00000 -0.36877
       3     C     3.00813  3.00813  0.00000 -0.01626
       4     C     2.67775  2.67775  0.00000  0.64449
       5     H     0.46110  0.46110  0.00000  0.07781
       6     H     0.44830  0.44830  0.00000  0.10341
       7     F     4.61301  4.61301  0.00000 -0.22602
       8     F     4.60959  4.60959  0.00000 -0.21919
       9     F     4.60977  4.60977  0.00000 -0.21954

   Total alpha = 25.00000, Total beta = 25.00000, Total charge =  0.00000

*** Psi4 exiting successfully. Buy a developer a beer!
