  ==> Input File <==

--------------------------------------------------------------------------
set {
	reference rhf
	basis cc-pvtz
}

set_num_threads( 4 )
memory 2 gb

molecule MOL {
0 1

O	 0.749630	 1.305591	 -0.000460
C	 0.576499	 0.134701	 -0.003900
C	 -0.765656	 -0.550508	 -0.002152
O	 1.564816	 -0.744612	 -0.000631
C	 -1.945526	 0.411052	 0.000603
H	 -0.794329	 -1.203792	 -0.868145
H	 -0.791555	 -1.205429	 0.862701
C	 -2.598858	 0.522024	 -1.372629
H	 -1.610375	 1.386910	 0.330402
H	 -2.674156	 0.080395	 0.730769
H	 -1.895767	 0.882439	 -2.116320
H	 -3.434708	 1.210662	 -1.348235
H	 -2.972507	 -0.438840	 -1.710941
C	 2.884339	 -0.237801	 0.002883
H	 3.064150	 0.362814	 -0.876312
H	 3.533055	 -1.098529	 0.004958
H	 3.059365	 0.363432	 0.882614

	symmetry c1
}
set optking {
	frozen_dihedral = ("
		9 5 3 6
	")
}

ee = optimize('scf')
oeprop('DIPOLE', 'QUADRUPOLE', 'MULLIKEN_CHARGES')
f=open( 'psi4out.xyz', 'w' )
f.write( "17  " )
f.write( str(ee) + "\n" )
f.write( MOL.save_string_xyz() )
f.close()
--------------------------------------------------------------------------

    Molecular point group: c1
  Charge       = 0
  Multiplicity = 1
  Basis Set: CC-PVTZ
  Basis Set:
  @DF-RHF Final Energy:  -345.03136079866056
    Total Energy =                       -345.0313607986605575
    Molecular point group: c1
  Basis Set: CC-PVTZ
  Basis Set:
  Basis Set: CC-PVTZ
  Basis Set:
  @DF-RHF Final Energy:  -345.03153087660644
    Total Energy =                       -345.0315308766063822
  Basis Set: CC-PVTZ
  Basis Set:
  Basis Set: CC-PVTZ
  Basis Set:
  @DF-RHF Final Energy:  -345.03172695083077
    Total Energy =                       -345.0317269508304321
  Basis Set: CC-PVTZ
  Basis Set:
  Basis Set: CC-PVTZ
  Basis Set:
  @DF-RHF Final Energy:  -345.03184605921012
    Total Energy =                       -345.0318460592100678
  Basis Set: CC-PVTZ
  Basis Set:
  Basis Set: CC-PVTZ
  Basis Set:
  @DF-RHF Final Energy:  -345.03185092063262
    Total Energy =                       -345.0318509206325643
  Basis Set: CC-PVTZ
  Basis Set:
  Basis Set: CC-PVTZ
  Basis Set:
  @DF-RHF Final Energy:  -345.03185526980201
    Total Energy =                       -345.0318552698021222
  Basis Set: CC-PVTZ
  Basis Set:
  Charge       = 0
  Multiplicity = 1
  Basis Set: CC-PVTZ
  Basis Set:

    Orbital Energies (a.u.)
    -----------------------

    Doubly Occupied:

       1A    -20.597101     2A    -20.535346     3A    -11.365714
       4A    -11.279099     5A    -11.234420     6A    -11.218743
       7A    -11.209200     8A     -1.473315     9A     -1.366846
      10A     -1.079027    11A     -1.001659    12A     -0.938901
      13A     -0.829065    14A     -0.768570    15A     -0.704231
      16A     -0.685281    17A     -0.676368    18A     -0.623970
      19A     -0.609856    20A     -0.571165    21A     -0.569247
      22A     -0.534459    23A     -0.525812    24A     -0.488147
      25A     -0.483457    26A     -0.479967    27A     -0.461469
      28A     -0.442663

  @DF-RHF Final Energy:  -345.03185616017112

   => Energetics <=

    Nuclear Repulsion Energy =            315.8582379541906562
    One-Electron Energy =               -1096.2739894284147795
    Two-Electron Energy =                 435.3838953140528361
    DFT Exchange-Correlation Energy =       0.0000000000000000
    Empirical Dispersion Energy =           0.0000000000000000
    PCM Polarization Energy =               0.0000000000000000
    EFP Energy =                            0.0000000000000000
    Total Energy =                       -345.0318561601713441
    Molecular point group: c1
  Basis Set: CC-PVTZ
  Basis Set:

  -Total Gradient:
     Atom            X                  Y                   Z
    ------   -----------------  -----------------  -----------------
       1        0.000023079201    -0.000099582283     0.000011811612
       2        0.000023044673     0.000156542502    -0.000014405917
       3       -0.002274347413    -0.002795920452     0.001387555841
       4        0.000037060958     0.000003264453    -0.000001829879
       5       -0.000334708610    -0.000537762267     0.003625649302
       6        0.001845863849     0.002353642848    -0.001718510801
       7        0.000000915846     0.000027363746     0.000016416971
       8       -0.000021832058     0.000000172761    -0.000076164383
       9        0.000699855577     0.000883574069    -0.003219697046
      10       -0.000002999219     0.000008086533    -0.000023808848
      11        0.000005403004    -0.000000845181     0.000003194829
      12        0.000001366207     0.000003602392    -0.000000296205
      13       -0.000003037741     0.000005033168     0.000008671260
      14       -0.000018051645    -0.000017549204     0.000006675524
      15        0.000003291723     0.000002887596    -0.000003601766
      16        0.000013781540     0.000005789105    -0.000001571144
      17        0.000001314112     0.000001700215    -0.000000089349

  **** Optimization is complete! (in 7 steps) ****
    Final optimized geometry and variables:
    Molecular point group: c1

    Geometry (in Angstrom), charge = 0, multiplicity = 1:

    O            0.647801056995     1.177102746533     0.106343922034
    C            0.474967667541     0.009121790692     0.190416246810
    C           -0.864760113337    -0.688872258227     0.227112386162
    O            1.466010617706    -0.864867716060     0.252337223403
    C           -2.065211248435     0.263124720336     0.223843129996
    H           -0.871591101833    -1.334666222561    -0.644828606428
    H           -0.858644547762    -1.340405747210     1.091724943304
    C           -2.687336750309     0.428323293571    -1.160931273643
    H           -1.742791681707     1.235755261876     0.567479262260
    H           -2.815140104182    -0.101837586499     0.915139882462
    H           -1.959725906520     0.811849346053    -1.867725403433
    H           -3.517588042731     1.124134244692    -1.132343299209
    H           -3.059320699303    -0.516971477480    -1.542616888870
    C            2.784120958416    -0.356578163083     0.210353740731
    H            2.957510823522     0.177835730897    -0.711918823708
    H            3.435497065173    -1.213171097674     0.272126128557
    H            2.962984382327     0.308515450432     1.042092869235

  Mulliken Charges: (a.u.)
   Center  Symbol    Alpha    Beta     Spin     Total
       1     O     4.19767  4.19767  0.00000 -0.39535
       2     C     2.80355  2.80355  0.00000  0.39290
       3     C     3.10489  3.10489  0.00000 -0.20978
       4     O     4.14708  4.14708  0.00000 -0.29417
       5     C     3.08870  3.08870  0.00000 -0.17741
       6     H     0.44108  0.44108  0.00000  0.11785
       7     H     0.43189  0.43189  0.00000  0.13622
       8     C     3.14875  3.14875  0.00000 -0.29749
       9     H     0.44061  0.44061  0.00000  0.11878
      10     H     0.44838  0.44838  0.00000  0.10323
      11     H     0.45078  0.45078  0.00000  0.09844
      12     H     0.44853  0.44853  0.00000  0.10293
      13     H     0.45761  0.45761  0.00000  0.08478
      14     C     3.03639  3.03639  0.00000 -0.07277
      15     H     0.45447  0.45447  0.00000  0.09105
      16     H     0.44541  0.44541  0.00000  0.10917
      17     H     0.45420  0.45420  0.00000  0.09160

   Total alpha = 28.00000, Total beta = 28.00000, Total charge =  0.00000
