                              Psi4 1.0.54 Driver

  ==> Input File <==

--------------------------------------------------------------------------
set {
	reference rhf
	basis cc-pvtz
}

set_num_threads( 4 )
memory 2 gb

molecule MOL {
0 1

H	 -3.144994	 -1.202467	 -0.018751
O	 -2.321472	 -0.864941	 -0.318626
C	 -2.021813	 0.336996	 0.342658
C	 -0.669613	 0.837286	 -0.127252
H	 -2.780861	 1.084746	 0.127159
H	 -2.006390	 0.184138	 1.420053
C	 0.490865	 -0.082543	 0.241244
H	 -0.708709	 0.967192	 -1.204587
H	 -0.507562	 1.822272	 0.303070
C	 1.276211	 -0.569050	 -0.973313
H	 0.109102	 -0.934793	 0.791683
H	 1.163871	 0.443729	 0.915205
C	 2.440934	 -1.482192	 -0.605377
H	 0.604911	 -1.096340	 -1.645641
H	 1.651777	 0.286886	 -1.528303
H	 2.093463	 -2.365330	 -0.079784
H	 2.976770	 -1.811893	 -1.488260
H	 3.149063	 -0.972754	 0.039968

	symmetry c1
}
set optking {
	frozen_dihedral = ("
		10 7 4 8
	")
}

ee,wfn = optimize('scf', return_wfn=True)
oeprop( wfn, 'DIPOLE', 'QUADRUPOLE', 'MULLIKEN_CHARGES')
f=open( 'psi4out.xyz', 'w' )
f.write( "18  " )
f.write( str(ee) + "\n" )
f.write( MOL.save_string_xyz() )
f.close()
--------------------------------------------------------------------------

    Molecular point group: c1
  Charge       = 0
  Multiplicity = 1
  Basis Set: CC-PVTZ
  Basis Set:
  @DF-RHF Final Energy:  -271.28192002862522
    Total Energy =                       -271.2819200286252794
    Molecular point group: c1
  Basis Set: CC-PVTZ
  Basis Set:
  Basis Set: CC-PVTZ
  Basis Set:
  @DF-RHF Final Energy:  -271.28216150878370
    Total Energy =                       -271.2821615087838154
  Basis Set: CC-PVTZ
  Basis Set:
  Basis Set: CC-PVTZ
  Basis Set:
  @DF-RHF Final Energy:  -271.28223843010369
    Total Energy =                       -271.2822384301035754
  Basis Set: CC-PVTZ
  Basis Set:
  Basis Set: CC-PVTZ
  Basis Set:
  @DF-RHF Final Energy:  -271.28223955660849
    Total Energy =                       -271.2822395566084310
  Basis Set: CC-PVTZ
  Basis Set:
  Charge       = 0
  Multiplicity = 1
  Basis Set: CC-PVTZ
  Basis Set:

    Orbital Energies (a.u.)
    -----------------------

    Doubly Occupied:

       1A    -20.547074     2A    -11.266269     3A    -11.210170
       4A    -11.205789     5A    -11.205165     6A    -11.200379
       7A     -1.364887     8A     -1.073217     9A     -1.008554
      10A     -0.913213    11A     -0.819262    12A     -0.783198
      13A     -0.708682    14A     -0.643009    15A     -0.622536
      16A     -0.582518    17A     -0.570126    18A     -0.559540
      19A     -0.523096    20A     -0.501752    21A     -0.488612
      22A     -0.466710    23A     -0.452872    24A     -0.448338
      25A     -0.432190

  @DF-RHF Final Energy:  -271.28223999608588

   => Energetics <=

    Nuclear Repulsion Energy =            251.9183372086152986
    One-Electron Energy =                -867.2068326628725572
    Two-Electron Energy =                 344.0062554581712675
    DFT Exchange-Correlation Energy =       0.0000000000000000
    Empirical Dispersion Energy =           0.0000000000000000
    PCM Polarization Energy =               0.0000000000000000
    EFP Energy =                            0.0000000000000000
    Total Energy =                       -271.2822399960859912
    Molecular point group: c1
  Basis Set: CC-PVTZ
  Basis Set:

  -Total Gradient:
     Atom            X                  Y                   Z
    ------   -----------------  -----------------  -----------------
       1       -0.000001529169     0.000015154397     0.000001336889
       2        0.000028124324    -0.000004920690     0.000005680524
       3       -0.000025738034     0.000008930437    -0.000009232032
       4       -0.000306229093    -0.000426732623    -0.000039586495
       5       -0.000012174924     0.000011463534     0.000006368312
       6        0.000014406811    -0.000007066699    -0.000008119820
       7        0.000254995709     0.000337002558     0.000034384100
       8        0.000208715107     0.000261263025     0.000024878249
       9       -0.000000100645    -0.000010032652     0.000010756743
      10       -0.000171519508    -0.000192625360    -0.000009657294
      11       -0.000006644065     0.000005981845    -0.000011390634
      12       -0.000003506870     0.000006868632    -0.000005829448
      13        0.000016667846    -0.000000555175    -0.000001489268
      14       -0.000002425515    -0.000001881123     0.000006222433
      15       -0.000004106195     0.000002048687    -0.000001581258
      16       -0.000000821227     0.000004619994    -0.000002515239
      17        0.000011908448    -0.000005353357    -0.000000777649
      18       -0.000000022999    -0.000004165431     0.000000551889

  **** Optimization is complete! (in 5 steps) ****
    Final optimized geometry and variables:
    Molecular point group: c1

    Geometry (in Angstrom), charge = 0, multiplicity = 1:

    H           -2.934893569152    -0.893524622846     0.234647062085
    O           -2.126164178875    -0.534484320386    -0.079960637496
    C           -1.846219139346     0.676856727165     0.572942876856
    C           -0.492795176988     1.178582983314     0.109973115724
    H           -2.609903924573     1.415592544438     0.342836068576
    H           -1.839422444989     0.533690970040     1.651683319926
    C            0.677305903708     0.244306686674     0.475913147448
    H           -0.536901791597     1.317736607943    -0.964920100896
    H           -0.339547177952     2.163019365109     0.540032995323
    C            1.469166488511    -0.245161815926    -0.734125326351
    H            0.296171905905    -0.619458948624     1.009521663833
    H            1.351975601359     0.752138281478     1.158513727815
    C            2.623693932130    -1.167587110244    -0.359712982205
    H            0.793664268172    -0.762211586854    -1.408277328635
    H            1.855032501270     0.611027526352    -1.281714627610
    H            2.265209473256    -2.050524301120     0.159078298759
    H            3.164010763711    -1.498295423837    -1.239516075700
    H            3.331062369222    -0.666497574960     0.293313643237

  Mulliken Charges: (a.u.)
   Center  Symbol    Alpha    Beta     Spin     Total
       1     H     0.39572  0.39572  0.00000  0.20855
       2     O     4.19957  4.19957  0.00000 -0.39914
       3     C     2.97491  2.97491  0.00000  0.05019
       4     C     3.09834  3.09834  0.00000 -0.19669
       5     H     0.46407  0.46407  0.00000  0.07185
       6     H     0.47260  0.47260  0.00000  0.05481
       7     C     3.08793  3.08793  0.00000 -0.17586
       8     H     0.45225  0.45225  0.00000  0.09551
       9     H     0.44836  0.44836  0.00000  0.10329
      10     C     3.08205  3.08205  0.00000 -0.16410
      11     H     0.45413  0.45413  0.00000  0.09174
      12     H     0.45201  0.45201  0.00000  0.09599
      13     C     3.15118  3.15118  0.00000 -0.30237
      14     H     0.44906  0.44906  0.00000  0.10188
      15     H     0.45650  0.45650  0.00000  0.08701
      16     H     0.45473  0.45473  0.00000  0.09055
      17     H     0.44947  0.44947  0.00000  0.10106
      18     H     0.45714  0.45714  0.00000  0.08572

   Total alpha = 25.00000, Total beta = 25.00000, Total charge = -0.00000

*** Psi4 exiting successfully. Buy a developer a beer!
