  ==> Input File <==

--------------------------------------------------------------------------
set {
	reference rhf
	basis cc-pvtz
}

set_num_threads( 4 )
memory 2 gb

molecule MOL {
0 1

H	 -0.000342	 -0.223902	 -3.352295
C	 -0.027146	 0.371068	 -2.446756
C	 0.024493	 -0.518541	 -1.216015
H	 -0.932586	 0.964979	 -2.449855
H	 0.819708	 1.049865	 -2.473332
N	 -0.042516	 0.263377	 -0.000000
H	 -0.822211	 -1.197105	 -1.225584
H	 0.921114	 -1.142847	 -1.255206
C	 0.024493	 -0.518541	 1.216015
H	 0.682568	 0.950412	 -0.000000
C	 -1.221458	 -0.326224	 2.064198
H	 0.114058	 -1.563668	 0.938284
H	 0.910326	 -0.279952	 1.810656
H	 -2.108007	 -0.602085	 1.506979
H	 -1.173341	 -0.933236	 2.960820
H	 -1.327463	 0.709274	 2.372647

	symmetry c1
}
set optking {
	frozen_dihedral = ("
		12 9 6 3
	")
}

ee = optimize('scf')
oeprop('DIPOLE', 'QUADRUPOLE', 'MULLIKEN_CHARGES')
f=open( 'psi4out.xyz', 'w' )
f.write( "16  " )
f.write( str(ee) + "\n" )
f.write( MOL.save_string_xyz() )
f.close()
--------------------------------------------------------------------------

    Molecular point group: c1
  Charge       = 0
  Multiplicity = 1
  Basis Set: CC-PVTZ
  Basis Set:
  @DF-RHF Final Energy:  -212.38951991848685
    Total Energy =                       -212.3895199184868261
    Molecular point group: c1
  Basis Set: CC-PVTZ
  Basis Set:
  Basis Set: CC-PVTZ
  Basis Set:
  @DF-RHF Final Energy:  -212.38999807702817
    Total Energy =                       -212.3899980770280536
  Basis Set: CC-PVTZ
  Basis Set:
  Basis Set: CC-PVTZ
  Basis Set:
  @DF-RHF Final Energy:  -212.39012748249016
    Total Energy =                       -212.3901274824902998
  Basis Set: CC-PVTZ
  Basis Set:
  Basis Set: CC-PVTZ
  Basis Set:
  @DF-RHF Final Energy:  -212.39012928788034
    Total Energy =                       -212.3901292878803702
  Basis Set: CC-PVTZ
  Basis Set:
  Charge       = 0
  Multiplicity = 1
  Basis Set: CC-PVTZ
  Basis Set:

    Orbital Energies (a.u.)
    -----------------------

    Doubly Occupied:

       1A    -15.526507     2A    -11.239995     3A    -11.239391
       4A    -11.206404     5A    -11.199641     6A     -1.202822
       7A     -1.026306     8A     -0.964312     9A     -0.837333
      10A     -0.813308    11A     -0.665040    12A     -0.626179
      13A     -0.610280    14A     -0.567537    15A     -0.556348
      16A     -0.526103    17A     -0.505278    18A     -0.491785
      19A     -0.483258    20A     -0.470064    21A     -0.357246

  @DF-RHF Final Energy:  -212.39012950789515

   => Energetics <=

    Nuclear Repulsion Energy =            189.5859441606912696
    One-Electron Energy =                -661.7218834193122348
    Two-Electron Energy =                 259.7458097507260959
    DFT Exchange-Correlation Energy =       0.0000000000000000
    Empirical Dispersion Energy =           0.0000000000000000
    PCM Polarization Energy =               0.0000000000000000
    EFP Energy =                            0.0000000000000000
    Total Energy =                       -212.3901295078948692
    Molecular point group: c1
  Basis Set: CC-PVTZ
  Basis Set:

  -Total Gradient:
     Atom            X                  Y                   Z
    ------   -----------------  -----------------  -----------------
       1        0.000001928255     0.000001300577    -0.000010000931
       2        0.000001865250    -0.000002227998     0.000005762792
       3        0.000092749921    -0.000027124497    -0.000017831219
       4        0.000004147831    -0.000005918128     0.000005760016
       5       -0.000001792294    -0.000001666564     0.000001232701
       6       -0.000206160673     0.000042751785    -0.000007407054
       7        0.000003727778     0.000001685233     0.000002735427
       8       -0.000006575959     0.000013362377     0.000004355806
       9        0.000212110923    -0.000011273577     0.000034581058
      10        0.000022307982     0.000005089233    -0.000001959262
      11        0.000011198298     0.000004334865    -0.000001793674
      12       -0.000135768150    -0.000015432092    -0.000006885385
      13       -0.000008534332     0.000005441290     0.000005192804
      14        0.000006159008    -0.000003114522    -0.000003505928
      15       -0.000001198469    -0.000001222638    -0.000003582921
      16        0.000003834632    -0.000005985345    -0.000006654231

  **** Optimization is complete! (in 5 steps) ****
    Final optimized geometry and variables:
    Molecular point group: c1

    Geometry (in Angstrom), charge = 0, multiplicity = 1:

    H            0.255004835482    -0.047883070296    -3.287557415856
    C            0.218276758860     0.531386260225    -2.372165112977
    C            0.285164597058    -0.377707489996    -1.156813603524
    H           -0.696598812307     1.110622031222    -2.364906531195
    H            1.054043357648     1.224258783247    -2.386995491863
    N            0.208340914179     0.386716053607     0.070490851492
    H           -0.552320496980    -1.066989959969    -1.178337270384
    H            1.190300348865    -0.987906958143    -1.210459694255
    C            0.254172918896    -0.388868428216     1.303506156584
    H            0.909079200654     1.094142475177     0.074281767066
    C           -0.980726850623    -0.167279344983     2.165720038248
    H            0.341421437256    -1.445321605246     1.068408564196
    H            1.141814410817    -0.135401463291     1.876543085002
    H           -1.877602834838    -0.445598432154     1.624702475397
    H           -0.931797917464    -0.757825156885     3.075357985797
    H           -1.071541948623     0.876864521993     2.441000983679

  Mulliken Charges: (a.u.)
   Center  Symbol    Alpha    Beta     Spin     Total
       1     H     0.45423  0.45423  0.00000  0.09154
       2     C     3.14419  3.14419  0.00000 -0.28838
       3     C     3.02185  3.02185  0.00000 -0.04370
       4     H     0.44966  0.44966  0.00000  0.10067
       5     H     0.45956  0.45956  0.00000  0.08089
       6     N     3.64190  3.64190  0.00000 -0.28381
       7     H     0.45900  0.45900  0.00000  0.08199
       8     H     0.47267  0.47267  0.00000  0.05467
       9     C     3.03749  3.03749  0.00000 -0.07497
      10     H     0.44291  0.44291  0.00000  0.11418
      11     C     3.12629  3.12629  0.00000 -0.25257
      12     H     0.46055  0.46055  0.00000  0.07889
      13     H     0.45700  0.45700  0.00000  0.08600
      14     H     0.45597  0.45597  0.00000  0.08805
      15     H     0.46029  0.46029  0.00000  0.07942
      16     H     0.45644  0.45644  0.00000  0.08712

   Total alpha = 21.00000, Total beta = 21.00000, Total charge =  0.00000
