  ==> Input File <==

--------------------------------------------------------------------------
set {
	reference rhf
	basis cc-pvtz
}

set_num_threads( 4 )
memory 2 gb

molecule MOL {
0 1

H	 -3.089752	 0.258860	 0.252810
O	 -2.346257	 -0.289210	 0.080372
C	 -1.183935	 0.486039	 -0.009831
C	 0.062853	 -0.375310	 0.027457
H	 -1.178881	 1.094526	 -0.908634
H	 -1.184406	 1.155156	 0.838676
O	 1.172093	 0.457955	 -0.054438
H	 0.052476	 -1.081302	 -0.804627
H	 0.076323	 -0.955658	 0.947560
C	 2.395478	 -0.199028	 -0.000366
H	 2.505946	 -0.901710	 -0.823354
H	 3.174616	 0.545641	 -0.071768
H	 2.513730	 -0.742241	 0.934223

	symmetry c1
}
set optking {
	frozen_dihedral = ("
		1 2 3 5
	")
}

ee = optimize('scf')
oeprop('DIPOLE', 'QUADRUPOLE', 'MULLIKEN_CHARGES')
f=open( 'psi4out.xyz', 'w' )
f.write( "13  " )
f.write( str(ee) + "\n" )
f.write( MOL.save_string_xyz() )
f.close()
--------------------------------------------------------------------------

    Molecular point group: c1
  Charge       = 0
  Multiplicity = 1
  Basis Set: CC-PVTZ
  Basis Set:
  @DF-RHF Final Energy:  -268.06115244222457
    Total Energy =                       -268.0611524422246248
    Molecular point group: c1
  Basis Set: CC-PVTZ
  Basis Set:
  Basis Set: CC-PVTZ
  Basis Set:
  @DF-RHF Final Energy:  -268.06247392952628
    Total Energy =                       -268.0624739295262771
  Basis Set: CC-PVTZ
  Basis Set:
  Basis Set: CC-PVTZ
  Basis Set:
  @DF-RHF Final Energy:  -268.06274620273211
    Total Energy =                       -268.0627462027322281
  Basis Set: CC-PVTZ
  Basis Set:
  Basis Set: CC-PVTZ
  Basis Set:
  @DF-RHF Final Energy:  -268.06275289921632
    Total Energy =                       -268.0627528992163207
  Basis Set: CC-PVTZ
  Basis Set:
  Charge       = 0
  Multiplicity = 1
  Basis Set: CC-PVTZ
  Basis Set:

    Orbital Energies (a.u.)
    -----------------------

    Doubly Occupied:

       1A    -20.552500     2A    -20.551962     3A    -11.267372
       4A    -11.265118     5A    -11.264719     6A     -1.388721
       7A     -1.368330     8A     -1.019662     9A     -0.911785
      10A     -0.831740    11A     -0.712143    12A     -0.686323
      13A     -0.644007    14A     -0.634758    15A     -0.621932
      16A     -0.555373    17A     -0.538880    18A     -0.497442
      19A     -0.471289    20A     -0.444966    21A     -0.421072

  @DF-RHF Final Energy:  -268.06275374892891

   => Energetics <=

    Nuclear Repulsion Energy =            190.7232826272967543
    One-Electron Energy =                -744.2718836441731582
    Two-Electron Energy =                 285.4858472679475199
    DFT Exchange-Correlation Energy =       0.0000000000000000
    Empirical Dispersion Energy =           0.0000000000000000
    PCM Polarization Energy =               0.0000000000000000
    EFP Energy =                            0.0000000000000000
    Total Energy =                       -268.0627537489289125
    Molecular point group: c1
  Basis Set: CC-PVTZ
  Basis Set:

  -Total Gradient:
     Atom            X                  Y                   Z
    ------   -----------------  -----------------  -----------------
       1        0.000059134078    -0.000049961516     0.000565241945
       2        0.000018347102    -0.000004289244    -0.000772772094
       3       -0.000350470724     0.000406657623     0.000453131387
       4       -0.000006607850    -0.000005705747     0.000000874418
       5        0.000266243320    -0.000376453607    -0.000221762843
       6        0.000008647331    -0.000005918198    -0.000005650012
       7        0.000024452097     0.000015514529    -0.000014842299
       8        0.000001438503     0.000002508029    -0.000005699353
       9       -0.000024279155     0.000007578368     0.000001045724
      10        0.000006671404     0.000012284690     0.000003037886
      11       -0.000005479458     0.000001457613     0.000001747875
      12        0.000007132638    -0.000002573313    -0.000002129213
      13       -0.000005229287    -0.000001099227    -0.000002223422

  **** Optimization is complete! (in 5 steps) ****
    Final optimized geometry and variables:
    Molecular point group: c1

    Geometry (in Angstrom), charge = 0, multiplicity = 1:

    H           -3.077759550428     0.164406468518     0.169799741971
    O           -2.295432072982    -0.340012258487     0.048264982879
    C           -1.178905716718     0.504329921124    -0.009461065675
    C            0.053346342469    -0.370185901349     0.031060410909
    H           -1.171956875467     1.086513801933    -0.925754818459
    H           -1.157600130905     1.192924488528     0.829293047302
    O            1.171336589751     0.453375586480    -0.051905891055
    H            0.026253364820    -1.074071361027    -0.798041592062
    H            0.061756161455    -0.946123830683     0.953877489548
    C            2.385478198441    -0.221611425623    -0.029777332088
    H            2.472707695696    -0.910200381769    -0.867101009207
    H            3.174319879389     0.513113554148    -0.099444207411
    H            2.510852915303    -0.784261603803     0.892529091658

  Mulliken Charges: (a.u.)
   Center  Symbol    Alpha    Beta     Spin     Total
       1     H     0.39420  0.39420  0.00000  0.21160
       2     O     4.19825  4.19825  0.00000 -0.39651
       3     C     2.96466  2.96466  0.00000  0.07069
       4     C     2.96479  2.96479  0.00000  0.07043
       5     H     0.47051  0.47051  0.00000  0.05898
       6     H     0.47076  0.47076  0.00000  0.05848
       7     O     4.17635  4.17635  0.00000 -0.35270
       8     H     0.47023  0.47023  0.00000  0.05953
       9     H     0.47089  0.47089  0.00000  0.05821
      10     C     3.03126  3.03126  0.00000 -0.06253
      11     H     0.47046  0.47046  0.00000  0.05909
      12     H     0.44699  0.44699  0.00000  0.10601
      13     H     0.47064  0.47064  0.00000  0.05872

   Total alpha = 21.00000, Total beta = 21.00000, Total charge = -0.00000
