  ==> Input File <==

--------------------------------------------------------------------------
set {
	reference rhf
	basis 6-31G*
}

set_num_threads( 4 )
memory 2 gb

molecule MOL {
0 1

H	 0.824499	 1.804596	 1.502454
C	 1.084332	 1.052450	 0.747161
C	 0.065331	 0.871482	 -0.349150
O	 2.107427	 0.453748	 0.828118
C	 -1.339775	 0.583656	 0.198860
H	 0.405450	 0.077987	 -1.004588
H	 0.043636	 1.795880	 -0.924630
C	 -1.808407	 -0.848507	 -0.061364
H	 -2.036183	 1.280685	 -0.256307
H	 -1.360094	 0.788874	 1.267089
H	 -1.828843	 -1.063152	 -1.125336
H	 -2.808409	 -1.004529	 0.329750
H	 -1.153967	 -1.577789	 0.406873

	symmetry c1
}
set optking {
	frozen_dihedral = ("
		6 3 5 9
	")
}

ee = optimize('scf')
oeprop('DIPOLE', 'QUADRUPOLE', 'MULLIKEN_CHARGES')
f=open( 'psi4out.xyz', 'w' )
f.write( "13  " )
f.write( str(ee) + "\n" )
f.write( MOL.save_string_xyz() )
f.close()
--------------------------------------------------------------------------

    Molecular point group: c1
  Charge       = 0
  Multiplicity = 1
  Basis Set: 6-31G*
  Basis Set:
  @DF-RHF Final Energy:  -230.98018752541151
    Total Energy =                       -230.9801875254114520
    Molecular point group: c1
  Basis Set: 6-31G*
  Basis Set:
  Basis Set: 6-31G*
  Basis Set:
  @DF-RHF Final Energy:  -230.98037517727960
    Total Energy =                       -230.9803751772795408
  Basis Set: 6-31G*
  Basis Set:
  Basis Set: 6-31G*
  Basis Set:
  @DF-RHF Final Energy:  -230.97636793299276
    Total Energy =                       -230.9763679329926731
  Basis Set: 6-31G*
  Basis Set:
  Basis Set: 6-31G*
  Basis Set:
  @DF-RHF Final Energy:  -230.98052738041804
    Total Energy =                       -230.9805273804179251
  Basis Set: 6-31G*
  Basis Set:
  Basis Set: 6-31G*
  Basis Set:
  @DF-RHF Final Energy:  -230.98059723747750
    Total Energy =                       -230.9805972374775251
  Basis Set: 6-31G*
  Basis Set:
  Basis Set: 6-31G*
  Basis Set:
  @DF-RHF Final Energy:  -230.98060039282615
    Total Energy =                       -230.9806003928261475
  Basis Set: 6-31G*
  Basis Set:
  Charge       = 0
  Multiplicity = 1
  Basis Set: 6-31G*
  Basis Set:

    Orbital Energies (a.u.)
    -----------------------

    Doubly Occupied:

       1A    -20.563059     2A    -11.327228     3A    -11.238906
       4A    -11.235626     5A    -11.221807     6A     -1.403196
       7A     -1.083943     8A     -0.974831     9A     -0.841705
      10A     -0.794447    11A     -0.668422    12A     -0.646086
      13A     -0.628815    14A     -0.585746    15A     -0.559522
      16A     -0.538417    17A     -0.499071    18A     -0.497717
      19A     -0.479918    20A     -0.410775

  @DF-RHF Final Energy:  -230.98060017082122

   => Energetics <=

    Nuclear Repulsion Energy =            171.7965708475963993
    One-Electron Energy =                -653.1558663595883445
    Two-Electron Energy =                 250.3786953411706691
    DFT Exchange-Correlation Energy =       0.0000000000000000
    Empirical Dispersion Energy =           0.0000000000000000
    PCM Polarization Energy =               0.0000000000000000
    EFP Energy =                            0.0000000000000000
    Total Energy =                       -230.9806001708212762
    Molecular point group: c1
  Basis Set: 6-31G*
  Basis Set:

  -Total Gradient:
     Atom            X                  Y                   Z
    ------   -----------------  -----------------  -----------------
       1        0.000029695168    -0.000013558425     0.000003212438
       2        0.000037557573    -0.000040844302    -0.000007975606
       3       -0.001335643206     0.002101979958    -0.002269236756
       4        0.000045709169     0.000028320840     0.000062655602
       5       -0.000248746231    -0.002535617880    -0.002126615589
       6        0.001096547801    -0.001300725577     0.002232228652
       7       -0.000041355144    -0.000007464175    -0.000031056010
       8       -0.000005342761     0.000001722198     0.000047903415
       9        0.000368508892     0.001832912312     0.002077815428
      10        0.000054945927    -0.000050538277    -0.000011115961
      11        0.000026208045     0.000027798662     0.000033406998
      12       -0.000016205449    -0.000013959857    -0.000021274831
      13       -0.000011879783    -0.000030025477     0.000010052218

  **** Optimization is complete! (in 7 steps) ****
    Final optimized geometry and variables:
    Molecular point group: c1

    Geometry (in Angstrom), charge = 0, multiplicity = 1:

    H            0.800135685028     1.354163704145     1.258525854659
    C            1.057515763348     0.627100802697     0.478757877991
    C            0.044607265235     0.491597617944    -0.632224629376
    O            2.072458489004     0.013440461071     0.546380727224
    C           -1.376196791183     0.199771691350    -0.094606172795
    H            0.396136109885    -0.299952622706    -1.283003746638
    H            0.055622459272     1.422826282163    -1.193584596707
    C           -1.814242697761    -1.246488024395    -0.318971534530
    H           -2.089271755613     0.882810344875    -0.543692356817
    H           -1.412257893441     0.416383278746     0.971483439555
    H           -1.851237828084    -1.482837246151    -1.377804414468
    H           -2.800906729190    -1.423082615075     0.096872363098
    H           -1.124413883573    -1.940699382005     0.151446043441

  Mulliken Charges: (a.u.)
   Center  Symbol    Alpha    Beta     Spin     Total
       1     H     0.43177  0.43177  0.00000  0.13647
       2     C     2.83386  2.83386  0.00000  0.33229
       3     C     3.21019  3.21019  0.00000 -0.42037
       4     O     4.23630  4.23630  0.00000 -0.47259
       5     C     3.16737  3.16737  0.00000 -0.33475
       6     H     0.39721  0.39721  0.00000  0.20558
       7     H     0.40530  0.40530  0.00000  0.18939
       8     C     3.23996  3.23996  0.00000 -0.47992
       9     H     0.41269  0.41269  0.00000  0.17462
      10     H     0.41699  0.41699  0.00000  0.16602
      11     H     0.41737  0.41737  0.00000  0.16526
      12     H     0.41630  0.41630  0.00000  0.16741
      13     H     0.41471  0.41471  0.00000  0.17059

   Total alpha = 20.00000, Total beta = 20.00000, Total charge =  0.00000
