  ==> Input File <==

--------------------------------------------------------------------------
set {
	reference rhf
	basis 6-31G*
}

set_num_threads( 1 )
memory 2 gb

molecule MOL {
0 1

H	 -3.058258	 1.802327	 0.707057
O	 -2.424770	 1.802788	 1.411717
C	 -1.137408	 1.819384	 0.867304
C	 -0.793441	 0.596080	 0.058728
H	 -0.455605	 1.905238	 1.705741
H	 -0.988345	 2.706899	 0.253200
C	 -1.530462	 -0.493172	 -0.025500
H	 0.140972	 0.653253	 -0.478008
H	 -1.092586	 -1.461565	 -0.186463
H	 -2.602122	 -0.450675	 0.050101

	symmetry c1
}
set optking {
	frozen_dihedral = ("
		5 3 2 1,
		5 3 4 7
	")
}

ee = energy('scf')
oeprop('DIPOLE', 'QUADRUPOLE', 'MULLIKEN_CHARGES')
f=open( 'psi4out.xyz', 'w' )
f.write( "10  " )
f.write( str(ee) + "\n" )
f.write( MOL.save_string_xyz() )
f.close()
--------------------------------------------------------------------------

    Molecular point group: c1

    Geometry (in Angstrom), charge = 0, multiplicity = 1:

       Center              X                  Y                   Z               Mass
    ------------   -----------------  -----------------  -----------------  -----------------
           H         -1.534552594794     0.818575649229     0.096215858839     1.007825032070
           O         -0.901064594794     0.819036649229     0.800875858839    15.994914619560
           C          0.386297405206     0.835632649229     0.256462858839    12.000000000000
           C          0.730264405206    -0.387671350771    -0.552113141161    12.000000000000
           H          1.068100405206     0.921486649229     1.094899858839     1.007825032070
           H          0.535360405206     1.723147649229    -0.357641141161     1.007825032070
           C         -0.006756594794    -1.476923350771    -0.636341141161    12.000000000000
           H          1.664677405206    -0.330498350771    -1.088849141161     1.007825032070
           H          0.431119405206    -2.445316350771    -0.797304141161     1.007825032070
           H         -1.078416594794    -1.434426350771    -0.560740141161     1.007825032070

  Charge       = 0
  Multiplicity = 1
  Basis Set: 6-31G*
  Basis Set:

    Orbital Energies (a.u.)
    -----------------------

    Doubly Occupied:

       1A    -20.559952     2A    -11.278947     3A    -11.231423
       4A    -11.220670     5A     -1.368719     6A     -1.058339
       7A     -0.928862     8A     -0.768769     9A     -0.688957
      10A     -0.658310    11A     -0.614038    12A     -0.569976
      13A     -0.551219    14A     -0.491853    15A     -0.450899
      16A     -0.344770

  @DF-RHF Final Energy:  -191.89485368964259

   => Energetics <=

    Nuclear Repulsion Energy =            119.3441277429718355
    One-Electron Energy =                -496.9065770830451925
    Two-Electron Energy =                 185.6675956504307692
    DFT Exchange-Correlation Energy =       0.0000000000000000
    Empirical Dispersion Energy =           0.0000000000000000
    PCM Polarization Energy =               0.0000000000000000
    EFP Energy =                            0.0000000000000000
    Total Energy =                       -191.8948536896426162

  Mulliken Charges: (a.u.)
   Center  Symbol    Alpha    Beta     Spin     Total
       1     H     0.28052  0.28052  0.00000  0.43896
       2     O     4.36603  4.36603  0.00000 -0.73206
       3     C     2.99853  2.99853  0.00000  0.00293
       4     C     3.09633  3.09633  0.00000 -0.19265
       5     H     0.40545  0.40545  0.00000  0.18910
       6     H     0.42895  0.42895  0.00000  0.14210
       7     C     3.19104  3.19104  0.00000 -0.38209
       8     H     0.40955  0.40955  0.00000  0.18089
       9     H     0.40838  0.40838  0.00000  0.18325
      10     H     0.41522  0.41522  0.00000  0.16956

   Total alpha = 16.00000, Total beta = 16.00000, Total charge = -0.00000
