  ==> Input File <==

--------------------------------------------------------------------------
set {
	reference rhf
	basis cc-pvtz
}

set_num_threads( 4 )
memory 2 gb

molecule MOL {
0 1

H	 -1.132282	 -0.599031	 0.584906
N	 -0.712187	 0.000026	 -0.093397
C	 0.734067	 -0.000020	 0.038424
H	 -1.083652	 0.914553	 0.051861
H	 1.140372	 -0.872115	 -0.458226
H	 1.140363	 0.872301	 -0.457869
H	 1.095085	 -0.000244	 1.065614

	symmetry c1
}
set optking {
	frozen_dihedral = ("
		1 2 3 7
	")
}

ee = optimize('scf')
oeprop('DIPOLE', 'QUADRUPOLE', 'MULLIKEN_CHARGES')
f=open( 'psi4out.xyz', 'w' )
f.write( "7  " )
f.write( str(ee) + "\n" )
f.write( MOL.save_string_xyz() )
f.close()
--------------------------------------------------------------------------

    Molecular point group: c1
  Charge       = 0
  Multiplicity = 1
  Basis Set: CC-PVTZ
  Basis Set:
  @DF-RHF Final Energy:   -95.25294089311507
    Total Energy =                        -95.2529408931150812
    Molecular point group: c1
  Basis Set: CC-PVTZ
  Basis Set:
  Basis Set: CC-PVTZ
  Basis Set:
  @DF-RHF Final Energy:   -95.25298805446079
    Total Energy =                        -95.2529880544608005
  Basis Set: CC-PVTZ
  Basis Set:
  Charge       = 0
  Multiplicity = 1
  Basis Set: CC-PVTZ
  Basis Set:

    Orbital Energies (a.u.)
    -----------------------

    Doubly Occupied:

       1A    -15.528895     2A    -11.235676     3A     -1.172330
       4A     -0.897482     5A     -0.664902     6A     -0.603043
       7A     -0.558127     8A     -0.517632     9A     -0.387763

  @DF-RHF Final Energy:   -95.25299274726081

   => Energetics <=

    Nuclear Repulsion Energy =             42.3661078697819562
    One-Electron Energy =                -212.1064983989102473
    Two-Electron Energy =                  74.4873977818674575
    DFT Exchange-Correlation Energy =       0.0000000000000000
    Empirical Dispersion Energy =           0.0000000000000000
    PCM Polarization Energy =               0.0000000000000000
    EFP Energy =                            0.0000000000000000
    Total Energy =                        -95.2529927472608335
    Molecular point group: c1
  Basis Set: CC-PVTZ
  Basis Set:

  -Total Gradient:
     Atom            X                  Y                   Z
    ------   -----------------  -----------------  -----------------
       1       -0.000050970589     0.001949830836     0.001409685187
       2        0.000212339539    -0.002869210213    -0.001753716474
       3       -0.000331003177     0.003337296492     0.000343901017
       4        0.000083571954    -0.000172064365    -0.000022846935
       5        0.000068217200     0.000003215168     0.000025535871
       6       -0.000017482452     0.000002236513     0.000010134352
       7        0.000035327528    -0.002251304431    -0.000012693018

  **** Optimization is complete! (in 3 steps) ****
    Final optimized geometry and variables:
    Molecular point group: c1

    Geometry (in Angstrom), charge = 0, multiplicity = 1:

    H           -1.132948787170    -0.610647120670     0.584055556287
    N           -0.713617738560    -0.010641070266    -0.093953379528
    C            0.734684010330    -0.008929138187     0.040378176842
    H           -1.080327573985     0.901636742265     0.075850469789
    H            1.147645840812    -0.886116140124    -0.443648291624
    H            1.144402839268     0.858191619360    -0.460896484656
    H            1.088725850681    -0.008896624641     1.069283880053

  Mulliken Charges: (a.u.)
   Center  Symbol    Alpha    Beta     Spin     Total
       1     H     0.42978  0.42978  0.00000  0.14043
       2     N     3.68482  3.68482  0.00000 -0.36964
       3     C     3.07108  3.07108  0.00000 -0.14215
       4     H     0.42889  0.42889  0.00000  0.14223
       5     H     0.45727  0.45727  0.00000  0.08546
       6     H     0.45689  0.45689  0.00000  0.08623
       7     H     0.47127  0.47127  0.00000  0.05746

   Total alpha =  9.00000, Total beta =  9.00000, Total charge = -0.00000
