  ==> Input File <==

--------------------------------------------------------------------------
set {
	reference rhf
	basis cc-pvtz
}

set_num_threads( 4 )
memory 2 gb

molecule MOL {
0 1

H	 -3.941973	 0.934228	 -0.390224
C	 -3.240162	 0.342701	 0.161016
C	 -2.105997	 -0.000418	 -0.398703
H	 -3.485368	 0.047206	 1.162193
O	 -1.189946	 -0.765863	 0.237511
H	 -1.846458	 0.297311	 -1.398265
C	 0.026572	 -0.995256	 -0.379403
C	 1.057223	 0.049888	 -0.004615
H	 -0.054361	 -1.010670	 -1.459674
H	 0.397526	 -1.952058	 -0.044198
F	 2.042076	 -0.522827	 0.658065
F	 1.574796	 0.631641	 -1.065364
F	 0.552027	 0.989194	 0.757579

	symmetry c1
}
set optking {
	frozen_dihedral = ("
		11 8 7 9
	")
}

ee = optimize('scf')
oeprop('DIPOLE', 'QUADRUPOLE', 'MULLIKEN_CHARGES')
f=open( 'psi4out.xyz', 'w' )
f.write( "13  " )
f.write( str(ee) + "\n" )
f.write( MOL.save_string_xyz() )
f.close()
--------------------------------------------------------------------------

    Molecular point group: c1
  Charge       = 0
  Multiplicity = 1
  Basis Set: CC-PVTZ
  Basis Set:
  @DF-RHF Final Energy:  -527.73453472643882
    Total Energy =                       -527.7345347264390512
    Molecular point group: c1
  Basis Set: CC-PVTZ
  Basis Set:
  Basis Set: CC-PVTZ
  Basis Set:
  @DF-RHF Final Energy:  -527.73521075595681
    Total Energy =                       -527.7352107559565866
  Basis Set: CC-PVTZ
  Basis Set:
  Basis Set: CC-PVTZ
  Basis Set:
  @DF-RHF Final Energy:  -527.73547223929336
    Total Energy =                       -527.7354722392931308
  Basis Set: CC-PVTZ
  Basis Set:
  Basis Set: CC-PVTZ
  Basis Set:
  @DF-RHF Final Energy:  -527.73549897144881
    Total Energy =                       -527.7354989714490330
  Basis Set: CC-PVTZ
  Basis Set:
  Basis Set: CC-PVTZ
  Basis Set:
  @DF-RHF Final Energy:  -527.73551260469685
    Total Energy =                       -527.7355126046975329
  Basis Set: CC-PVTZ
  Basis Set:
  Basis Set: CC-PVTZ
  Basis Set:
  @DF-RHF Final Energy:  -527.73551788644590
    Total Energy =                       -527.7355178864461323
  Basis Set: CC-PVTZ
  Basis Set:
  Basis Set: CC-PVTZ
  Basis Set:
  @DF-RHF Final Energy:  -527.73551951211914
    Total Energy =                       -527.7355195121192537
  Basis Set: CC-PVTZ
  Basis Set:
  Charge       = 0
  Multiplicity = 1
  Basis Set: CC-PVTZ
  Basis Set:

    Orbital Energies (a.u.)
    -----------------------

    Doubly Occupied:

       1A    -26.340430     2A    -26.339187     3A    -26.338708
       4A    -20.603261     5A    -11.499687     6A    -11.319714
       7A    -11.298426     8A    -11.214580     9A     -1.750595
      10A     -1.646995    11A     -1.643894    12A     -1.444193
      13A     -1.083951    14A     -1.019107    15A     -0.932504
      16A     -0.843564    17A     -0.838085    18A     -0.827851
      19A     -0.796469    20A     -0.731035    21A     -0.723032
      22A     -0.701642    23A     -0.680082    24A     -0.668550
      25A     -0.661812    26A     -0.649769    27A     -0.634453
      28A     -0.587164    29A     -0.565059    30A     -0.528855
      31A     -0.516288    32A     -0.357219

  @DF-RHF Final Energy:  -527.73552010612502

   => Energetics <=

    Nuclear Repulsion Energy =            412.9705497693822167
    One-Electron Energy =               -1549.8398182963449017
    Two-Electron Energy =                 609.1337484208376054
    DFT Exchange-Correlation Energy =       0.0000000000000000
    Empirical Dispersion Energy =           0.0000000000000000
    PCM Polarization Energy =               0.0000000000000000
    EFP Energy =                            0.0000000000000000
    Total Energy =                       -527.7355201061251364
    Molecular point group: c1
  Basis Set: CC-PVTZ
  Basis Set:

  -Total Gradient:
     Atom            X                  Y                   Z
    ------   -----------------  -----------------  -----------------
       1       -0.000007425813    -0.000010944885    -0.000006882418
       2        0.000016273406     0.000009319585     0.000007964329
       3        0.000042699164     0.000045995957     0.000038034681
       4        0.000003647682     0.000002389603     0.000000158954
       5       -0.000075440297    -0.000068671297    -0.000016146212
       6       -0.000004065913    -0.000020594231    -0.000017073270
       7       -0.000588103372     0.000757510332    -0.000196124347
       8       -0.000312294005     0.000008113836     0.000839488832
       9        0.000603374321    -0.000614153494    -0.000032318409
      10       -0.000022739377     0.000006228895    -0.000004650684
      11        0.000440246263    -0.000174676844    -0.000593993344
      12       -0.000039130043    -0.000002760729     0.000007813095
      13       -0.000057042013     0.000062243275    -0.000026271213

  **** Optimization is complete! (in 8 steps) ****
    Final optimized geometry and variables:
    Molecular point group: c1

    Geometry (in Angstrom), charge = 0, multiplicity = 1:

    H           -3.899883617447     0.994283259997    -0.353609162333
    C           -3.242823173394     0.327349416835     0.165811057755
    C           -2.079164087329     0.029547505576    -0.357950148818
    H           -3.555769914499    -0.079043024560     1.107510974666
    O           -1.213077673356    -0.820133067574     0.239249325254
    H           -1.754235247952     0.437212063686    -1.298729342109
    C            0.015898560697    -1.023162122739    -0.359045632098
    C            1.055264585237     0.056928542035    -0.010574768023
    H           -0.061763973467    -1.073501547167    -1.437522088348
    H            0.394663619977    -1.965572437757     0.001803331392
    F            2.058519114187    -0.452578655317     0.673944805415
    F            1.570901104793     0.580750950767    -1.107719264835
    F            0.547742151565     1.036652852521     0.692237522396

  Mulliken Charges: (a.u.)
   Center  Symbol    Alpha    Beta     Spin     Total
       1     H     0.42543  0.42543  0.00000  0.14914
       2     C     3.19580  3.19580  0.00000 -0.39159
       3     C     2.95810  2.95810  0.00000  0.08381
       4     H     0.42495  0.42495  0.00000  0.15009
       5     O     4.13896  4.13896  0.00000 -0.27793
       6     H     0.43452  0.43452  0.00000  0.13097
       7     C     3.03525  3.03525  0.00000 -0.07049
       8     C     2.67200  2.67200  0.00000  0.65601
       9     H     0.45457  0.45457  0.00000  0.09086
      10     H     0.43481  0.43481  0.00000  0.13039
      11     F     4.61012  4.61012  0.00000 -0.22023
      12     F     4.61335  4.61335  0.00000 -0.22670
      13     F     4.60216  4.60216  0.00000 -0.20431

   Total alpha = 32.00000, Total beta = 32.00000, Total charge = -0.00000
