  ==> Input File <==

--------------------------------------------------------------------------
set {
	reference rhf
	basis 6-31G*
}

set_num_threads( 4 )
memory 2 gb

molecule MOL {
0 1

H	 -1.070890	 -1.366565	 0.180696
O	 -1.422729	 -0.573567	 -0.196946
C	 -0.731407	 0.539437	 0.309156
C	 0.680193	 0.672443	 -0.251532
H	 -1.319765	 1.404033	 0.030086
H	 -0.700012	 0.506517	 1.397677
C	 1.252806	 -0.639677	 -0.788337
H	 0.669661	 1.417211	 -1.042010
H	 1.325373	 1.054032	 0.536930
H	 0.672290	 -1.012016	 -1.627122
H	 2.271100	 -0.506359	 -1.138008
H	 1.267113	 -1.408462	 -0.019553

	symmetry c1
}
set optking {
	frozen_dihedral = ("
		8 4 3 2
	")
}

ee = optimize('scf')
oeprop('DIPOLE', 'QUADRUPOLE', 'MULLIKEN_CHARGES')
f=open( 'psi4out.xyz', 'w' )
f.write( "12  " )
f.write( str(ee) + "\n" )
f.write( MOL.save_string_xyz() )
f.close()
--------------------------------------------------------------------------

    Molecular point group: c1
  Charge       = 0
  Multiplicity = 1
  Basis Set: 6-31G*
  Basis Set:
  @DF-RHF Final Energy:  -193.10337838937519
    Total Energy =                       -193.1033783893752513
    Molecular point group: c1
  Basis Set: 6-31G*
  Basis Set:
  Basis Set: 6-31G*
  Basis Set:
  @DF-RHF Final Energy:  -193.10397282977550
    Total Energy =                       -193.1039728297756142
  Basis Set: 6-31G*
  Basis Set:
  Basis Set: 6-31G*
  Basis Set:
  @DF-RHF Final Energy:  -193.10432341660254
    Total Energy =                       -193.1043234166025968
  Basis Set: 6-31G*
  Basis Set:
  Basis Set: 6-31G*
  Basis Set:
  @DF-RHF Final Energy:  -193.10432409423893
    Total Energy =                       -193.1043240942389048
  Basis Set: 6-31G*
  Basis Set:
  Basis Set: 6-31G*
  Basis Set:
  @DF-RHF Final Energy:  -193.10434084161830
    Total Energy =                       -193.1043408416182956
  Basis Set: 6-31G*
  Basis Set:
  Charge       = 0
  Multiplicity = 1
  Basis Set: 6-31G*
  Basis Set:

    Orbital Energies (a.u.)
    -----------------------

    Doubly Occupied:

       1A    -20.552724     2A    -11.268592     3A    -11.219358
       4A    -11.215466     5A     -1.359855     6A     -1.046342
       7A     -0.928366     8A     -0.807409     9A     -0.692603
      10A     -0.631390    11A     -0.615725    12A     -0.582133
      13A     -0.528187    14A     -0.511533    15A     -0.500381
      16A     -0.459240    17A     -0.428418

  @DF-RHF Final Energy:  -193.10434129891436

   => Energetics <=

    Nuclear Repulsion Energy =            133.3802452877035023
    One-Electron Energy =                -526.2737295097948618
    Two-Electron Energy =                 199.7891429231769962
    DFT Exchange-Correlation Energy =       0.0000000000000000
    Empirical Dispersion Energy =           0.0000000000000000
    PCM Polarization Energy =               0.0000000000000000
    EFP Energy =                            0.0000000000000000
    Total Energy =                       -193.1043412989143917
    Molecular point group: c1
  Basis Set: 6-31G*
  Basis Set:

  -Total Gradient:
     Atom            X                  Y                   Z
    ------   -----------------  -----------------  -----------------
       1       -0.000017684687    -0.000043522757    -0.000013878629
       2        0.001605848641    -0.002600035861     0.003310208217
       3       -0.001894166807     0.004543455764    -0.003658878325
       4       -0.000930037911    -0.005799707349    -0.003413372581
       5        0.000012806762     0.000035185582     0.000018218788
       6       -0.000003227556    -0.000024572399    -0.000011785515
       7        0.000013603502     0.000010341780     0.000006729648
       8        0.001197642343     0.003879446108     0.003769742728
       9        0.000023042744     0.000000246382     0.000001760940
      10        0.000002729640     0.000008410825    -0.000005229753
      11       -0.000002727148    -0.000010425050    -0.000005462424
      12       -0.000007829519     0.000001176974     0.000001946906

  **** Optimization is complete! (in 6 steps) ****
    Final optimized geometry and variables:
    Molecular point group: c1

    Geometry (in Angstrom), charge = 0, multiplicity = 1:

    H           -1.016967682220    -1.322156679452     0.366335079121
    O           -1.385515411799    -0.513485493724     0.042181276257
    C           -0.644612154118     0.572009221563     0.538025521251
    C            0.778079778375     0.695552916188    -0.046692201262
    H           -1.222299953649     1.456650220706     0.308858833041
    H           -0.586502406434     0.501571509404     1.622564294845
    C            1.377165189188    -0.612257887211    -0.559179070003
    H            0.792178909818     1.449891052975    -0.828097770453
    H            1.422852301699     1.094966039701     0.733509210127
    H            0.791614502714    -1.022812951209    -1.372786470156
    H            2.387277539652    -0.450013622144    -0.919908184507
    H            1.434135703783    -1.361303604217     0.227905265921

  Mulliken Charges: (a.u.)
   Center  Symbol    Alpha    Beta     Spin     Total
       1     H     0.28006  0.28006  0.00000  0.43988
       2     O     4.36925  4.36925  0.00000 -0.73849
       3     C     2.99689  2.99689  0.00000  0.00621
       4     C     3.17003  3.17003  0.00000 -0.34006
       5     H     0.41345  0.41345  0.00000  0.17310
       6     H     0.43061  0.43061  0.00000  0.13878
       7     C     3.24782  3.24782  0.00000 -0.49563
       8     H     0.41634  0.41634  0.00000  0.16733
       9     H     0.42194  0.42194  0.00000  0.15612
      10     H     0.40865  0.40865  0.00000  0.18269
      11     H     0.41628  0.41628  0.00000  0.16744
      12     H     0.42868  0.42868  0.00000  0.14264

   Total alpha = 17.00000, Total beta = 17.00000, Total charge =  0.00000
