  ==> Input File <==

--------------------------------------------------------------------------
set {
	reference rhf
	basis 6-31G*
}

set_num_threads( 1 )
memory 2 gb

molecule MOL {
0 1

O	 -1.276010	 1.052711	 -0.768302
C	 -1.204840	 0.067374	 -0.106123
C	 -2.388195	 -0.672128	 0.458071
O	 -0.067104	 -0.527208	 0.221609
H	 -2.388023	 -1.694060	 0.097175
H	 -3.300579	 -0.174919	 0.164318
H	 -2.315377	 -0.706351	 1.539059
C	 1.154827	 0.221245	 0.153561
C	 2.258984	 -0.800877	 -0.050622
C	 1.327767	 1.039089	 1.423942
H	 1.093006	 0.880442	 -0.699753
H	 2.089544	 -1.371771	 -0.956502
H	 3.219071	 -0.302289	 -0.134144
H	 2.302193	 -1.490830	 0.785291
H	 2.262143	 1.590187	 1.388617
H	 0.519896	 1.751095	 1.535158
H	 1.346593	 0.389634	 2.293344

	symmetry c1
}
set optking {
	frozen_dihedral = ("
		11 8 4 2
	")
}

ee = energy('scf')
oeprop('DIPOLE', 'QUADRUPOLE', 'MULLIKEN_CHARGES')
f=open( 'psi4out.xyz', 'w' )
f.write( "17  " )
f.write( str(ee) + "\n" )
f.write( MOL.save_string_xyz() )
f.close()
--------------------------------------------------------------------------

    Molecular point group: c1

    Geometry (in Angstrom), charge = 0, multiplicity = 1:

       Center              X                  Y                   Z               Mass
    ------------   -----------------  -----------------  -----------------  -----------------
           O         -1.248241986166     0.998589121154    -0.962890276039    15.994914619560
           C         -1.177071986166     0.013252121154    -0.300711276039    12.000000000000
           C         -2.360426986166    -0.726249878846     0.263482723961    12.000000000000
           O         -0.039335986166    -0.581329878846     0.027020723961    15.994914619560
           H         -2.360254986166    -1.748181878846    -0.097413276039     1.007825032070
           H         -3.272810986166    -0.229040878846    -0.030270276039     1.007825032070
           H         -2.287608986166    -0.760472878846     1.344470723961     1.007825032070
           C          1.182595013834     0.167123121154    -0.041027276039    12.000000000000
           C          2.286752013834    -0.854998878846    -0.245210276039    12.000000000000
           C          1.355535013834     0.984967121154     1.229353723961    12.000000000000
           H          1.120774013834     0.826320121154    -0.894341276039     1.007825032070
           H          2.117312013834    -1.425892878846    -1.151090276039     1.007825032070
           H          3.246839013834    -0.356410878846    -0.328732276039     1.007825032070
           H          2.329961013834    -1.544951878846     0.590702723961     1.007825032070
           H          2.289911013834     1.536065121154     1.194028723961     1.007825032070
           H          0.547664013834     1.696973121154     1.340569723961     1.007825032070
           H          1.374361013834     0.335512121154     2.098755723961     1.007825032070

  Charge       = 0
  Multiplicity = 1
  Basis Set: 6-31G*
  Basis Set:

    Orbital Energies (a.u.)
    -----------------------

    Doubly Occupied:

       1A    -20.596766     2A    -20.543478     3A    -11.374623
       4A    -11.290379     5A    -11.232164     6A    -11.220127
       7A    -11.219324     8A     -1.464609     9A     -1.361434
      10A     -1.078824    11A     -1.005638    12A     -0.950117
      13A     -0.848426    14A     -0.765081    15A     -0.692643
      16A     -0.665829    17A     -0.662522    18A     -0.616565
      19A     -0.586662    20A     -0.578333    21A     -0.563279
      22A     -0.551455    23A     -0.533978    24A     -0.524298
      25A     -0.503277    26A     -0.482896    27A     -0.447304
      28A     -0.434280

  @DF-RHF Final Energy:  -344.91240337067899

   => Energetics <=

    Nuclear Repulsion Energy =            322.9292603499902157
    One-Electron Energy =               -1110.0947313494880291
    Two-Electron Energy =                 442.2530676288185987
    DFT Exchange-Correlation Energy =       0.0000000000000000
    Empirical Dispersion Energy =           0.0000000000000000
    PCM Polarization Energy =               0.0000000000000000
    EFP Energy =                            0.0000000000000000
    Total Energy =                       -344.9124033706791579

  Mulliken Charges: (a.u.)
   Center  Symbol    Alpha    Beta     Spin     Total
       1     O     4.28306  4.28306  0.00000 -0.56611
       2     C     2.61686  2.61686  0.00000  0.76628
       3     C     3.28246  3.28246  0.00000 -0.56493
       4     O     4.31474  4.31474  0.00000 -0.62948
       5     H     0.40004  0.40004  0.00000  0.19991
       6     H     0.39771  0.39771  0.00000  0.20459
       7     H     0.40213  0.40213  0.00000  0.19574
       8     C     2.93046  2.93046  0.00000  0.13908
       9     C     3.24223  3.24223  0.00000 -0.48445
      10     C     3.24977  3.24977  0.00000 -0.49955
      11     H     0.39731  0.39731  0.00000  0.20537
      12     H     0.41042  0.41042  0.00000  0.17917
      13     H     0.41806  0.41806  0.00000  0.16388
      14     H     0.41460  0.41460  0.00000  0.17080
      15     H     0.41622  0.41622  0.00000  0.16756
      16     H     0.40826  0.40826  0.00000  0.18349
      17     H     0.41567  0.41567  0.00000  0.16865

   Total alpha = 28.00000, Total beta = 28.00000, Total charge = -0.00000
