                              Psi4 1.0.54 Driver

  ==> Input File <==

--------------------------------------------------------------------------
set {
	reference rhf
	basis cc-pvtz
}

set_num_threads( 4 )
memory 2 gb

molecule MOL {
0 1

H	 -2.816458	 -0.841657	 -0.064679
N	 -1.878861	 -0.711874	 0.250184
C	 -1.341419	 0.551458	 -0.220231
H	 -1.333674	 -1.468530	 -0.105118
C	 0.082190	 0.731516	 0.254705
H	 -1.357065	 0.652078	 -1.304747
H	 -1.939897	 1.357530	 0.189797
O	 0.881195	 -0.248324	 -0.336237
H	 0.440901	 1.722476	 -0.020063
H	 0.119896	 0.643586	 1.338114
C	 1.078748	 -0.084534	 -1.701289
H	 1.703691	 -0.895532	 -2.046417
H	 0.137194	 -0.113329	 -2.245661
H	 1.574391	 0.858071	 -1.921282

	symmetry c1
}
set optking {
	frozen_dihedral = ("
		11 8 5 3
	")
}

ee,wfn = optimize('scf', return_wfn=True)
oeprop( wfn, 'DIPOLE', 'QUADRUPOLE', 'MULLIKEN_CHARGES')
f=open( 'psi4out.xyz', 'w' )
f.write( "14  " )
f.write( str(ee) + "\n" )
f.write( MOL.save_string_xyz() )
f.close()
--------------------------------------------------------------------------

    Molecular point group: c1
  Charge       = 0
  Multiplicity = 1
  Basis Set: CC-PVTZ
  Basis Set:
  @DF-RHF Final Energy:  -248.21872004660597
    Total Energy =                       -248.2187200466061086
    Molecular point group: c1
  Basis Set: CC-PVTZ
  Basis Set:
  Basis Set: CC-PVTZ
  Basis Set:
  @DF-RHF Final Energy:  -248.12382972096310
    Total Energy =                       -248.1238297209631583
  Basis Set: CC-PVTZ
  Basis Set:
  Basis Set: CC-PVTZ
  Basis Set:
  @DF-RHF Final Energy:  -248.19709665063058
    Total Energy =                       -248.1970966506305558
  Basis Set: CC-PVTZ
  Basis Set:
  Basis Set: CC-PVTZ
  Basis Set:
  @DF-RHF Final Energy:  -248.21934421668269
    Total Energy =                       -248.2193442166825434
  Basis Set: CC-PVTZ
  Basis Set:
  @DF-RHF Final Energy:  -248.22184852893324
    Total Energy =                       -248.2218485289330374
  Basis Set: CC-PVTZ
  Basis Set:
  @DF-RHF Final Energy:  -248.22231499173910
    Total Energy =                       -248.2223149917391538
  Basis Set: CC-PVTZ
  Basis Set:
  Basis Set: CC-PVTZ
  Basis Set:
  @DF-RHF Final Energy:  -248.22237869676158
    Total Energy =                       -248.2223786967615524
  Basis Set: CC-PVTZ
  Basis Set:
  Basis Set: CC-PVTZ
  Basis Set:
  @DF-RHF Final Energy:  -248.22238750225884
    Total Energy =                       -248.2223875022586981
  Basis Set: CC-PVTZ
  Basis Set:
  Charge       = 0
  Multiplicity = 1
  Basis Set: CC-PVTZ
  Basis Set:

    Orbital Energies (a.u.)
    -----------------------

    Doubly Occupied:

       1A    -20.550866     2A    -15.526971     3A    -11.265231
       4A    -11.265208     5A    -11.242465     6A     -1.382532
       7A     -1.178630     8A     -0.999025     9A     -0.921543
      10A     -0.809306    11A     -0.689396    12A     -0.676156
      13A     -0.646866    14A     -0.620604    15A     -0.602039
      16A     -0.547065    17A     -0.530791    18A     -0.516331
      19A     -0.465757    20A     -0.420483    21A     -0.384471

  @DF-RHF Final Energy:  -248.22238821592845

   => Energetics <=

    Nuclear Repulsion Energy =            197.0365212846332383
    One-Electron Energy =                -728.0343484688200988
    Two-Electron Energy =                 282.7754389682585270
    DFT Exchange-Correlation Energy =       0.0000000000000000
    Empirical Dispersion Energy =           0.0000000000000000
    PCM Polarization Energy =               0.0000000000000000
    EFP Energy =                            0.0000000000000000
    Total Energy =                       -248.2223882159283903
    Molecular point group: c1
  Basis Set: CC-PVTZ
  Basis Set:

  -Total Gradient:
     Atom            X                  Y                   Z
    ------   -----------------  -----------------  -----------------
       1        0.000012330732     0.000025935190    -0.000006236115
       2        0.000020827025    -0.000046651198    -0.000019495499
       3        0.000034400015     0.000427115463    -0.001073687825
       4       -0.000009746024     0.000033306251     0.000009197116
       5       -0.000522000684    -0.000736401393     0.001642634584
       6        0.000014983855    -0.000029647762    -0.000010591089
       7       -0.000010074433    -0.000032013169     0.000016271449
       8        0.001603798934     0.000965429160    -0.000836727322
       9       -0.000030651884    -0.000005035364     0.000012297035
      10       -0.000007003913    -0.000006322232    -0.000005839276
      11       -0.001082344038    -0.000566751498     0.000295742483
      12        0.000003612898     0.000000855250    -0.000009918949
      13       -0.000025771224    -0.000014852444    -0.000023110785
      14       -0.000002361251    -0.000014966255     0.000009464192

  **** Optimization is complete! (in 9 steps) ****
    Final optimized geometry and variables:
    Molecular point group: c1

    Geometry (in Angstrom), charge = 0, multiplicity = 1:

    H           -2.522285237627    -0.346066007905     1.071674356948
    N           -1.532304037359    -0.252678354547     1.146640713081
    C           -1.021768504067     0.753099458281     0.234167408001
    H           -1.124302664569    -1.142530686194     0.953430359293
    C            0.495734414764     0.781628444559     0.274366897886
    H           -1.362356149272     0.620066031955    -0.792082356539
    H           -1.375501100515     1.727308882326     0.554583079133
    O            1.096323143973    -0.420237422695    -0.114928947563
    H            0.858161574368     1.596744993077    -0.350055021748
    H            0.819941759192     0.959609452358     1.289820292306
    C            0.999377508946    -0.751642292316    -1.462047655885
    H            1.644736855093    -1.601138847375    -1.633694850745
    H           -0.011097855022    -1.025699388618    -1.750423278665
    H            1.327608947809     0.067913781464    -2.097754373686

  Mulliken Charges: (a.u.)
   Center  Symbol    Alpha    Beta     Spin     Total
       1     H     0.42970  0.42970  0.00000  0.14059
       2     N     3.69199  3.69199  0.00000 -0.38399
       3     C     3.04001  3.04001  0.00000 -0.08001
       4     H     0.42311  0.42311  0.00000  0.15377
       5     C     2.98364  2.98364  0.00000  0.03273
       6     H     0.46721  0.46721  0.00000  0.06558
       7     H     0.45040  0.45040  0.00000  0.09919
       8     O     4.18117  4.18117  0.00000 -0.36234
       9     H     0.46510  0.46510  0.00000  0.06980
      10     H     0.44789  0.44789  0.00000  0.10421
      11     C     3.03831  3.03831  0.00000 -0.07662
      12     H     0.44387  0.44387  0.00000  0.11225
      13     H     0.46889  0.46889  0.00000  0.06221
      14     H     0.46869  0.46869  0.00000  0.06262

   Total alpha = 21.00000, Total beta = 21.00000, Total charge = -0.00000

*** Psi4 exiting successfully. Buy a developer a beer!
