  ==> Input File <==

--------------------------------------------------------------------------
set {
	reference rhf
	basis cc-pvtz
}

set_num_threads( 4 )
memory 2 gb

molecule MOL {
0 1

H	 -3.436473	 1.252944	 -1.023892
O	 -3.458596	 0.315260	 -0.960865
C	 -3.176635	 -0.080824	 0.355601
C	 -1.763371	 0.265266	 0.799691
H	 -3.321825	 -1.153438	 0.379502
H	 -3.895468	 0.357385	 1.043382
C	 -0.673390	 -0.426948	 -0.013392
H	 -1.631049	 1.344913	 0.747560
H	 -1.664587	 -0.001624	 1.849167
C	 0.737842	 -0.043159	 0.423759
H	 -0.806103	 -0.190518	 -1.063345
H	 -0.797221	 -1.503753	 0.074146
C	 1.824000	 -0.743224	 -0.390623
H	 0.850588	 1.033777	 0.343840
H	 0.868587	 -0.286314	 1.476203
C	 3.255957	 -0.453067	 0.062319
H	 1.718250	 -0.470599	 -1.438164
H	 1.658105	 -1.815850	 -0.339904
C	 3.370229	 0.518991	 1.234150
H	 3.806432	 -0.046611	 -0.780620
H	 3.746493	 -1.387917	 0.320874
H	 2.882878	 1.461734	 1.006550
H	 4.409594	 0.731284	 1.457518
H	 2.918820	 0.122799	 2.135742

	symmetry c1
}
set optking {
	frozen_dihedral = ("
		20 16 13 17
	")
}

ee = optimize('scf')
oeprop('DIPOLE', 'QUADRUPOLE', 'MULLIKEN_CHARGES')
f=open( 'psi4out.xyz', 'w' )
f.write( "24  " )
f.write( str(ee) + "\n" )
f.write( MOL.save_string_xyz() )
f.close()
--------------------------------------------------------------------------

    Molecular point group: c1
  Charge       = 0
  Multiplicity = 1
  Basis Set: CC-PVTZ
  Basis Set:
  @DF-RHF Final Energy:  -349.36984820790047
    Total Energy =                       -349.3698482079006453
    Molecular point group: c1
  Basis Set: CC-PVTZ
  Basis Set:
  Basis Set: CC-PVTZ
  Basis Set:
  @DF-RHF Final Energy:  -349.37025415100914
    Total Energy =                       -349.3702541510097035
  Basis Set: CC-PVTZ
  Basis Set:
  Basis Set: CC-PVTZ
  Basis Set:
  @DF-RHF Final Energy:  -349.37181571877380
    Total Energy =                       -349.3718157187735187
  Basis Set: CC-PVTZ
  Basis Set:
  Basis Set: CC-PVTZ
  Basis Set:
  @DF-RHF Final Energy:  -349.37191610160323
    Total Energy =                       -349.3719161016035741
  Basis Set: CC-PVTZ
  Basis Set:
  Basis Set: CC-PVTZ
  Basis Set:
  @DF-RHF Final Energy:  -349.37192105679782
    Total Energy =                       -349.3719210567974187
  Basis Set: CC-PVTZ
  Basis Set:
  Basis Set: CC-PVTZ
  Basis Set:
  @DF-RHF Final Energy:  -349.37192299912789
    Total Energy =                       -349.3719229991286284
  Basis Set: CC-PVTZ
  Basis Set:
  Charge       = 0
  Multiplicity = 1
  Basis Set: CC-PVTZ
  Basis Set:

    Orbital Energies (a.u.)
    -----------------------

    Doubly Occupied:

       1A    -20.546200     2A    -11.265413     3A    -11.215010
       4A    -11.212284     5A    -11.210133     6A    -11.209466
       7A    -11.208653     8A    -11.205297     9A     -1.364044
      10A     -1.087700    11A     -1.046338    12A     -0.986294
      13A     -0.916002    14A     -0.854965    15A     -0.802819
      16A     -0.768673    17A     -0.681723    18A     -0.657616
      19A     -0.629521    20A     -0.618620    21A     -0.591214
      22A     -0.588014    23A     -0.554181    24A     -0.545393
      25A     -0.515772    26A     -0.510436    27A     -0.502913
      28A     -0.472707    29A     -0.469338    30A     -0.459857
      31A     -0.452748    32A     -0.443380    33A     -0.421214

  @DF-RHF Final Energy:  -349.37192340394762

   => Energetics <=

    Nuclear Repulsion Energy =            385.3728090558732333
    One-Electron Energy =               -1237.4615861838706223
    Two-Electron Energy =                 502.7168537240493151
    DFT Exchange-Correlation Energy =       0.0000000000000000
    Empirical Dispersion Energy =           0.0000000000000000
    PCM Polarization Energy =               0.0000000000000000
    EFP Energy =                            0.0000000000000000
    Total Energy =                       -349.3719234039481307
    Molecular point group: c1
  Basis Set: CC-PVTZ
  Basis Set:

  -Total Gradient:
     Atom            X                  Y                   Z
    ------   -----------------  -----------------  -----------------
       1       -0.000000145805    -0.000000076090     0.000000889348
       2       -0.000001854738    -0.000000791692     0.000000484131
       3        0.000006937120    -0.000002936949    -0.000006092089
       4        0.000010678586     0.000003334184     0.000000814831
       5       -0.000000373001    -0.000000296464    -0.000001770143
       6        0.000004119484    -0.000000258564     0.000001633171
       7        0.000000336183     0.000001139935    -0.000003657989
       8        0.000000942531     0.000001749043     0.000000149028
       9        0.000000193803     0.000000475980    -0.000000928828
      10       -0.000002570453     0.000032700130     0.000027260934
      11       -0.000006406555    -0.000000679028    -0.000005856511
      12       -0.000001484725    -0.000002641726     0.000002022283
      13        0.000023265709     0.000009305308    -0.000001215023
      14       -0.000030737254    -0.000020848806    -0.000010038460
      15        0.000025089748     0.000005470612     0.000034419602
      16       -0.000015800467    -0.000024438513    -0.000022068587
      17        0.000039281252    -0.000003761582    -0.000009865363
      18        0.000024781858     0.000000993946    -0.000000162236
      19       -0.000029446930     0.000029367071     0.000012811753
      20       -0.000028230748    -0.000004056260    -0.000019568761
      21       -0.000016417878    -0.000014462630    -0.000017005451
      22        0.000026840169     0.000004390853     0.000005420267
      23       -0.000006343302    -0.000012584217     0.000002107843
      24       -0.000022654586    -0.000001094544     0.000010216249

  **** Optimization is complete! (in 7 steps) ****
    Final optimized geometry and variables:
    Molecular point group: c1

    Geometry (in Angstrom), charge = 0, multiplicity = 1:

    H           -3.397213741192     1.319631834241    -1.226554626284
    O           -3.416707102447     0.380886555288    -1.181249592673
    C           -3.165951267704    -0.037907594513     0.134431423567
    C           -1.765756161706     0.305758207255     0.619990788180
    H           -3.306897859059    -1.111361101413     0.134901010414
    H           -3.903821751906     0.384611998498     0.811807060142
    C           -0.652749880575    -0.366274815058    -0.178808942336
    H           -1.637398881598     1.386773602995     0.591555415172
    H           -1.691947969172     0.019514320528     1.666393071244
    C            0.745229431868     0.015041982755     0.301915825069
    H           -0.760780516669    -0.110629588271    -1.227055782858
    H           -0.774150313656    -1.445075048782    -0.114730164797
    C            1.843176549277    -0.677180704843    -0.506444398338
    H            0.858097017639     1.093022070546     0.236192448963
    H            0.840365070545    -0.238530187349     1.353554649135
    C            3.315736962076    -0.373070544798    -0.119341389896
    H            1.697835550398    -0.424252061455    -1.551700139587
    H            1.680360401077    -1.748258347771    -0.442199806189
    C            3.552089894744     0.595308837140     1.039642741715
    H            3.831295451781     0.016222197120    -0.990462928152
    H            3.812966503152    -1.306972187917     0.118989808512
    H            3.141510897145     1.577785281591     0.839770115437
    H            4.616756977074     0.715790080649     1.205303550541
    H            3.118076410154     0.236520272000     1.965212128159

  Mulliken Charges: (a.u.)
   Center  Symbol    Alpha    Beta     Spin     Total
       1     H     0.39534  0.39534  0.00000  0.20933
       2     O     4.20378  4.20378  0.00000 -0.40755
       3     C     2.97763  2.97763  0.00000  0.04475
       4     C     3.10209  3.10209  0.00000 -0.20418
       5     H     0.45878  0.45878  0.00000  0.08243
       6     H     0.46033  0.46033  0.00000  0.07935
       7     C     3.08805  3.08805  0.00000 -0.17609
       8     H     0.45931  0.45931  0.00000  0.08138
       9     H     0.45352  0.45352  0.00000  0.09296
      10     C     3.08768  3.08768  0.00000 -0.17535
      11     H     0.44662  0.44662  0.00000  0.10677
      12     H     0.45565  0.45565  0.00000  0.08870
      13     C     3.10069  3.10069  0.00000 -0.20139
      14     H     0.45384  0.45384  0.00000  0.09232
      15     H     0.45449  0.45449  0.00000  0.09103
      16     C     3.08747  3.08747  0.00000 -0.17493
      17     H     0.45106  0.45106  0.00000  0.09788
      18     H     0.45151  0.45151  0.00000  0.09699
      19     C     3.15696  3.15696  0.00000 -0.31392
      20     H     0.45168  0.45168  0.00000  0.09665
      21     H     0.45174  0.45174  0.00000  0.09652
      22     H     0.45370  0.45370  0.00000  0.09259
      23     H     0.44455  0.44455  0.00000  0.11089
      24     H     0.45356  0.45356  0.00000  0.09289

   Total alpha = 33.00000, Total beta = 33.00000, Total charge =  0.00000
