                              Psi4 1.0.54 Driver

  ==> Input File <==

--------------------------------------------------------------------------
set {
	reference rhf
	basis cc-pvtz
}

set_num_threads( 4 )
memory 2 gb

molecule MOL {
0 1

O	 1.216069	 1.304886	 0.000821
C	 1.121787	 0.124983	 0.000110
C	 -0.170912	 -0.649867	 -0.000147
O	 2.167739	 -0.685178	 -0.000678
C	 -1.413045	 0.229353	 0.001137
H	 -0.152877	 -1.303435	 -0.866175
H	 -0.152278	 -1.305116	 0.864586
C	 -2.447173	 -0.224100	 -1.025152
H	 -1.125387	 1.255912	 -0.196273
H	 -1.853103	 0.226175	 0.992037
C	 -3.695346	 0.651616	 -1.033936
H	 -1.999448	 -0.222040	 -2.015494
H	 -2.731379	 -1.253338	 -0.822343
H	 -3.448226	 1.681513	 -1.268089
H	 -4.411061	 0.306778	 -1.771171
H	 -4.185544	 0.642649	 -0.066358
C	 3.449556	 -0.089977	 -0.000570
H	 3.585694	 0.522473	 -0.879546
H	 4.155805	 -0.904274	 -0.001389
H	 3.586173	 0.521118	 0.879272

	symmetry c1
}
set optking {
	frozen_dihedral = ("
		9 5 3 6
	")
}

ee,wfn = optimize('scf', return_wfn=True)
oeprop( wfn, 'DIPOLE', 'QUADRUPOLE', 'MULLIKEN_CHARGES')
f=open( 'psi4out.xyz', 'w' )
f.write( "20  " )
f.write( str(ee) + "\n" )
f.write( MOL.save_string_xyz() )
f.close()
--------------------------------------------------------------------------

    Molecular point group: c1
  Charge       = 0
  Multiplicity = 1
  Basis Set: CC-PVTZ
  Basis Set:
  @DF-RHF Final Energy:  -384.07889687471732
    Total Energy =                       -384.0788968747177705
    Molecular point group: c1
  Basis Set: CC-PVTZ
  Basis Set:
  Basis Set: CC-PVTZ
  Basis Set:
  @DF-RHF Final Energy:  -384.07916462918661
    Total Energy =                       -384.0791646291861525
  Basis Set: CC-PVTZ
  Basis Set:
  Basis Set: CC-PVTZ
  Basis Set:
  @DF-RHF Final Energy:  -384.07916523340776
    Total Energy =                       -384.0791652334080482
  Basis Set: CC-PVTZ
  Basis Set:
  Basis Set: CC-PVTZ
  Basis Set:
  @DF-RHF Final Energy:  -384.07924292104133
    Total Energy =                       -384.0792429210414412
  Basis Set: CC-PVTZ
  Basis Set:
  Basis Set: CC-PVTZ
  Basis Set:
  @DF-RHF Final Energy:  -384.07926173116044
    Total Energy =                       -384.0792617311601589
  Basis Set: CC-PVTZ
  Basis Set:
  Charge       = 0
  Multiplicity = 1
  Basis Set: CC-PVTZ
  Basis Set:

    Orbital Energies (a.u.)
    -----------------------

    Doubly Occupied:

       1A    -20.596696     2A    -20.535098     3A    -11.365710
       4A    -11.278788     5A    -11.233784     6A    -11.217922
       7A    -11.215783     8A    -11.207990     9A     -1.472989
      10A     -1.366535    11A     -1.087559    12A     -1.025459
      13A     -0.969228    14A     -0.886788    15A     -0.805436
      16A     -0.769475    17A     -0.702960    18A     -0.684731
      19A     -0.676666    20A     -0.639119    21A     -0.601795
      22A     -0.593047    23A     -0.580349    24A     -0.546632
      25A     -0.531206    26A     -0.521907    27A     -0.505443
      28A     -0.478909    29A     -0.471087    30A     -0.465531
      31A     -0.460827    32A     -0.442593

  @DF-RHF Final Energy:  -384.07926203660020

   => Energetics <=

    Nuclear Repulsion Energy =            382.2482363135078458
    One-Electron Energy =               -1280.7789057670638613
    Two-Electron Energy =                 514.4514074169558171
    DFT Exchange-Correlation Energy =       0.0000000000000000
    Empirical Dispersion Energy =           0.0000000000000000
    PCM Polarization Energy =               0.0000000000000000
    EFP Energy =                            0.0000000000000000
    Total Energy =                       -384.0792620366001984
    Molecular point group: c1
  Basis Set: CC-PVTZ
  Basis Set:

  -Total Gradient:
     Atom            X                  Y                   Z
    ------   -----------------  -----------------  -----------------
       1       -0.000064593520     0.000043700751    -0.000015384172
       2        0.000093059093     0.000045962852     0.000097071416
       3        0.001606107265     0.002118837711    -0.001109324274
       4       -0.000043631067    -0.000100778273    -0.000039594948
       5       -0.000672714264    -0.000806237839    -0.002553884653
       6       -0.001141615631    -0.001667688323     0.001296559347
       7        0.000030306980    -0.000006568508     0.000006297541
       8       -0.000035912157    -0.000001940783    -0.000037506148
       9        0.000255977437     0.000364053744     0.002314541750
      10       -0.000006917330     0.000021463309     0.000001005498
      11        0.000026146021    -0.000015912877     0.000041734144
      12       -0.000004830413     0.000016278842     0.000002218143
      13        0.000000868502     0.000001679437    -0.000013825837
      14        0.000008612441    -0.000013518583    -0.000000509981
      15        0.000016723800    -0.000016731694     0.000009169430
      16       -0.000005778652     0.000006586586     0.000001671571
      17       -0.000017588919     0.000032360067    -0.000010322753
      18       -0.000006353331    -0.000007942841     0.000006096328
      19       -0.000030077184    -0.000011492284     0.000000637756
      20       -0.000007789068    -0.000002111291     0.000003349841

  **** Optimization is complete! (in 6 steps) ****
    Final optimized geometry and variables:
    Molecular point group: c1

    Geometry (in Angstrom), charge = 0, multiplicity = 1:

    O            1.198891411340     1.221559508761     0.238085727936
    C            1.075611869068     0.044519401495     0.250723720597
    C           -0.229650169547    -0.711456307745     0.227612311058
    O            2.102381098734    -0.788990048148     0.286561368926
    C           -1.487347068705     0.164657652063     0.216905941348
    H           -0.198953043498    -1.373087689965    -0.631296934002
    H           -0.215907478174    -1.374912173964     1.084888471564
    C           -2.539227832594    -0.306540195722    -0.783438945371
    H           -1.207316169617     1.189155222317     0.013200532319
    H           -1.922955350057     0.172265500972     1.210981854188
    C           -3.805369544824     0.541486033952    -0.753956623313
    H           -2.114327663309    -0.286455094619    -1.783386092782
    H           -2.795077503255    -1.343526434329    -0.581405208342
    H           -3.585152641971     1.578566440915    -0.982789339463
    H           -4.530526325844     0.188496773490    -1.477987804480
    H           -4.273239424964     0.512133037789     0.224425674878
    C            3.397289630338    -0.223443929782     0.309013027026
    H            3.568946072492     0.371883951090    -0.575466251787
    H            4.083887047139    -1.053880464800     0.337550275479
    H            3.526986205483     0.397771460791     1.182768083517

  Mulliken Charges: (a.u.)
   Center  Symbol    Alpha    Beta     Spin     Total
       1     O     4.19583  4.19583  0.00000 -0.39166
       2     C     2.80039  2.80039  0.00000  0.39921
       3     C     3.10929  3.10929  0.00000 -0.21859
       4     O     4.14726  4.14726  0.00000 -0.29452
       5     C     3.09245  3.09245  0.00000 -0.18489
       6     H     0.43893  0.43893  0.00000  0.12214
       7     H     0.43561  0.43561  0.00000  0.12878
       8     C     3.08655  3.08655  0.00000 -0.17310
       9     H     0.43526  0.43526  0.00000  0.12949
      10     H     0.45332  0.45332  0.00000  0.09335
      11     C     3.14977  3.14977  0.00000 -0.29953
      12     H     0.45385  0.45385  0.00000  0.09230
      13     H     0.45446  0.45446  0.00000  0.09109
      14     H     0.45264  0.45264  0.00000  0.09472
      15     H     0.44849  0.44849  0.00000  0.10302
      16     H     0.45506  0.45506  0.00000  0.08988
      17     C     3.03662  3.03662  0.00000 -0.07323
      18     H     0.45443  0.45443  0.00000  0.09114
      19     H     0.44549  0.44549  0.00000  0.10902
      20     H     0.45431  0.45431  0.00000  0.09139

   Total alpha = 32.00000, Total beta = 32.00000, Total charge =  0.00000

*** Psi4 exiting successfully. Buy a developer a beer!
