  ==> Input File <==

--------------------------------------------------------------------------
set {
	reference rhf
	basis 6-31G*
}

set_num_threads( 1 )
memory 2 gb

molecule MOL {
0 1

H	 -2.625684	 -0.770457	 1.208664
C	 -2.664064	 -0.525534	 0.149098
O	 -1.392607	 -0.295399	 -0.366433
H	 -3.087340	 -1.362726	 -0.388571
H	 -3.312201	 0.340060	 0.018355
C	 -0.719715	 0.768384	 0.229244
C	 0.719720	 0.768376	 -0.229267
H	 -1.185038	 1.714362	 -0.050570
H	 -0.750528	 0.687237	 1.313896
O	 1.392611	 -0.295398	 0.366430
H	 0.750534	 0.687200	 -1.313918
H	 1.185043	 1.714359	 0.050526
C	 2.706965	 -0.449871	 -0.062409
H	 2.756559	 -0.644779	 -1.131878
H	 3.305899	 0.433456	 0.155466
H	 3.125548	 -1.294566	 0.467107

	symmetry c1
}
set optking {
	frozen_dihedral = ("
		3 6 7 11,
		7 10 13 14
	")
}

ee = energy('scf')
oeprop('DIPOLE', 'QUADRUPOLE', 'MULLIKEN_CHARGES')
f=open( 'psi4out.xyz', 'w' )
f.write( "16  " )
f.write( str(ee) + "\n" )
f.write( MOL.save_string_xyz() )
f.close()
--------------------------------------------------------------------------

    Molecular point group: c1

    Geometry (in Angstrom), charge = 0, multiplicity = 1:

       Center              X                  Y                   Z               Mass
    ------------   -----------------  -----------------  -----------------  -----------------
           H         -2.633222762185    -0.757160706933     1.193435563244     1.007825032070
           C         -2.671602762185    -0.512237706933     0.133869563244    12.000000000000
           O         -1.400145762185    -0.282102706933    -0.381661436756    15.994914619560
           H         -3.094878762185    -1.349429706933    -0.403799436756     1.007825032070
           H         -3.319739762185     0.353356293067     0.003126563244     1.007825032070
           C         -0.727253762185     0.781680293067     0.214015563244    12.000000000000
           C          0.712181237815     0.781672293067    -0.244495436756    12.000000000000
           H         -1.192576762185     1.727658293067    -0.065798436756     1.007825032070
           H         -0.758066762185     0.700533293067     1.298667563244     1.007825032070
           O          1.385072237815    -0.282101706933     0.351201563244    15.994914619560
           H          0.742995237815     0.700496293067    -1.329146436756     1.007825032070
           H          1.177504237815     1.727655293067     0.035297563244     1.007825032070
           C          2.699426237815    -0.436574706933    -0.077637436756    12.000000000000
           H          2.749020237815    -0.631482706933    -1.147106436756     1.007825032070
           H          3.298360237815     0.446752293067     0.140237563244     1.007825032070
           H          3.118009237815    -1.281269706933     0.451878563244     1.007825032070

  Charge       = 0
  Multiplicity = 1
  Basis Set: 6-31G*
  Basis Set:

    Orbital Energies (a.u.)
    -----------------------

    Doubly Occupied:

       1A    -20.553677     2A    -20.553430     3A    -11.268984
       4A    -11.268325     5A    -11.263641     6A    -11.263318
       7A     -1.388321     8A     -1.370643     9A     -1.030763
      10A     -0.936147    11A     -0.891727    12A     -0.824087
      13A     -0.683718    14A     -0.680801    15A     -0.656958
      16A     -0.635205    17A     -0.630200    18A     -0.597459
      19A     -0.549336    20A     -0.536190    21A     -0.509210
      22A     -0.477736    23A     -0.462424    24A     -0.419354
      25A     -0.410724

  @DF-RHF Final Energy:  -306.97766139174342

   => Energetics <=

    Nuclear Repulsion Energy =            259.0032564692782557
    One-Electron Energy =                -932.2369926026930216
    Two-Electron Energy =                 366.2560747416716822
    DFT Exchange-Correlation Energy =       0.0000000000000000
    Empirical Dispersion Energy =           0.0000000000000000
    PCM Polarization Energy =               0.0000000000000000
    EFP Energy =                            0.0000000000000000
    Total Energy =                       -306.9776613917431405

  Mulliken Charges: (a.u.)
   Center  Symbol    Alpha    Beta     Spin     Total
       1     H     0.42755  0.42755  0.00000  0.14489
       2     C     3.07962  3.07962  0.00000 -0.15924
       3     O     4.30102  4.30102  0.00000 -0.60204
       4     H     0.41148  0.41148  0.00000  0.17705
       5     H     0.43198  0.43198  0.00000  0.13605
       6     C     2.99349  2.99349  0.00000  0.01302
       7     C     2.99342  2.99342  0.00000  0.01316
       8     H     0.43173  0.43173  0.00000  0.13653
       9     H     0.42304  0.42304  0.00000  0.15392
      10     O     4.30100  4.30100  0.00000 -0.60199
      11     H     0.42262  0.42262  0.00000  0.15476
      12     H     0.43231  0.43231  0.00000  0.13539
      13     C     3.07953  3.07953  0.00000 -0.15905
      14     H     0.42803  0.42803  0.00000  0.14394
      15     H     0.43183  0.43183  0.00000  0.13633
      16     H     0.41136  0.41136  0.00000  0.17729

   Total alpha = 25.00000, Total beta = 25.00000, Total charge =  0.00000
