  ==> Input File <==

--------------------------------------------------------------------------
set {
	reference rhf
	basis cc-pvtz
}

set_num_threads( 4 )
memory 2 gb

molecule MOL {
0 1

H	 1.419524	 0.920703	 0.803879
C	 0.848385	 0.440008	 0.000011
C	 -0.623497	 0.751021	 0.000090
O	 1.394853	 -0.259419	 -0.780641
C	 -1.523725	 -0.474323	 -0.000013
H	 -0.813143	 1.382932	 -0.864897
H	 -0.813071	 1.382716	 0.865253
H	 -1.342980	 -1.087348	 -0.873016
H	 -2.565269	 -0.177464	 0.000070
H	 -1.342898	 -1.087564	 0.872820

	symmetry c1
}
set optking {
	frozen_dihedral = ("
		4 2 3 6
	")
}

ee = optimize('scf')
oeprop('DIPOLE', 'QUADRUPOLE', 'MULLIKEN_CHARGES')
f=open( 'psi4out.xyz', 'w' )
f.write( "10  " )
f.write( str(ee) + "\n" )
f.write( MOL.save_string_xyz() )
f.close()
--------------------------------------------------------------------------

    Molecular point group: c1
  Charge       = 0
  Multiplicity = 1
  Basis Set: CC-PVTZ
  Basis Set:
  @DF-RHF Final Energy:  -192.02098778145734
    Total Energy =                       -192.0209877814573645
    Molecular point group: c1
  Basis Set: CC-PVTZ
  Basis Set:
  Basis Set: CC-PVTZ
  Basis Set:
  @DF-RHF Final Energy:  -192.02149917740212
    Total Energy =                       -192.0214991774022337
  Basis Set: CC-PVTZ
  Basis Set:
  Basis Set: CC-PVTZ
  Basis Set:
  @DF-RHF Final Energy:  -192.02010034639903
    Total Energy =                       -192.0201003463990901
  Basis Set: CC-PVTZ
  Basis Set:
  Basis Set: CC-PVTZ
  Basis Set:
  @DF-RHF Final Energy:  -192.02173974446919
    Total Energy =                       -192.0217397444691869
  Basis Set: CC-PVTZ
  Basis Set:
  Charge       = 0
  Multiplicity = 1
  Basis Set: CC-PVTZ
  Basis Set:

    Orbital Energies (a.u.)
    -----------------------

    Doubly Occupied:

       1A    -20.553474     2A    -11.323652     3A    -11.238073
       4A    -11.223165     5A     -1.409209     6A     -1.060864
       7A     -0.907248     8A     -0.781486     9A     -0.686419
      10A     -0.641553    11A     -0.616788    12A     -0.563527
      13A     -0.537330    14A     -0.513869    15A     -0.494344
      16A     -0.414752

  @DF-RHF Final Energy:  -192.02174338352398

   => Energetics <=

    Nuclear Repulsion Energy =            118.9564169758021421
    One-Electron Energy =                -496.0248163055755981
    Two-Electron Energy =                 185.0466559462493592
    DFT Exchange-Correlation Energy =       0.0000000000000000
    Empirical Dispersion Energy =           0.0000000000000000
    PCM Polarization Energy =               0.0000000000000000
    EFP Energy =                            0.0000000000000000
    Total Energy =                       -192.0217433835240968
    Molecular point group: c1
  Basis Set: CC-PVTZ
  Basis Set:

  -Total Gradient:
     Atom            X                  Y                   Z
    ------   -----------------  -----------------  -----------------
       1       -0.000032004103     0.000021707085     0.000027143298
       2       -0.000307557714    -0.001740106394     0.001115596516
       3        0.000332379772     0.001677039625     0.000490864707
       4        0.000123905226     0.001097053361    -0.000879628600
       5        0.000097564994     0.000095471130    -0.000012583442
       6       -0.000224921997    -0.001120901348    -0.000732223498
       7        0.000047504681    -0.000000916827     0.000005789219
       8       -0.000016953566    -0.000024637650    -0.000023055650
       9       -0.000016277891    -0.000003034966    -0.000000799384
      10       -0.000003639398    -0.000001674016     0.000008896835

  **** Optimization is complete! (in 5 steps) ****
    Final optimized geometry and variables:
    Molecular point group: c1

    Geometry (in Angstrom), charge = 0, multiplicity = 1:

    H            1.466118915512     0.845981741755     0.946619650470
    C            0.839071792314     0.344041103795     0.200550799962
    C           -0.634693061644     0.679744167731     0.224564132303
    O            1.329681918743    -0.393982412378    -0.582089770816
    C           -1.519770933754    -0.565173059374     0.189097512710
    H           -0.826639346141     1.284455485406    -0.657133804330
    H           -0.853325652663     1.290244074554     1.092517093587
    H           -1.291734651145    -1.168006731114    -0.678558904809
    H           -2.564706201087    -0.284328798905     0.149594013989
    H           -1.370580427330    -1.176176023607     1.071826668376

  Mulliken Charges: (a.u.)
   Center  Symbol    Alpha    Beta     Spin     Total
       1     H     0.45576  0.45576  0.00000  0.08847
       2     C     2.91140  2.91140  0.00000  0.17720
       3     C     3.08424  3.08424  0.00000 -0.16848
       4     O     4.16749  4.16749  0.00000 -0.33498
       5     C     3.14305  3.14305  0.00000 -0.28611
       6     H     0.44528  0.44528  0.00000  0.10943
       7     H     0.44894  0.44894  0.00000  0.10212
       8     H     0.44155  0.44155  0.00000  0.11690
       9     H     0.44869  0.44869  0.00000  0.10262
      10     H     0.45359  0.45359  0.00000  0.09283

   Total alpha = 16.00000, Total beta = 16.00000, Total charge = -0.00000
