  ==> Input File <==

--------------------------------------------------------------------------
set {
	reference rhf
	basis cc-pvtz
}

set_num_threads( 4 )
memory 2 gb

molecule MOL {
0 1

H	 1.017681	 -0.759577	 -1.119696
O	 1.675515	 -0.612943	 -0.465627
C	 1.135873	 0.113391	 0.608264
C	 0.027642	 1.012027	 0.090274
H	 1.902972	 0.727968	 1.072615
H	 0.756163	 -0.561896	 1.370018
C	 -1.138737	 0.285728	 -0.581921
H	 0.464661	 1.708096	 -0.618252
H	 -0.340737	 1.603071	 0.925246
C	 -1.933983	 -0.631436	 0.343653
H	 -0.763151	 -0.285569	 -1.422081
H	 -1.808359	 1.035291	 -0.992333
H	 -2.789188	 -1.049673	 -0.174718
H	 -1.335629	 -1.461368	 0.700418
H	 -2.305435	 -0.092167	 1.209725

	symmetry c1
}
set optking {
	frozen_dihedral = ("
		1 2 3 4
	")
}

ee = optimize('scf')
oeprop('DIPOLE', 'QUADRUPOLE', 'MULLIKEN_CHARGES')
f=open( 'psi4out.xyz', 'w' )
f.write( "15  " )
f.write( str(ee) + "\n" )
f.write( MOL.save_string_xyz() )
f.close()
--------------------------------------------------------------------------

    Molecular point group: c1
  Charge       = 0
  Multiplicity = 1
  Basis Set: CC-PVTZ
  Basis Set:
  @DF-RHF Final Energy:  -232.23277296276865
    Total Energy =                       -232.2327729627686494
    Molecular point group: c1
  Basis Set: CC-PVTZ
  Basis Set:
  Basis Set: CC-PVTZ
  Basis Set:
  @DF-RHF Final Energy:  -232.23433389845161
    Total Energy =                       -232.2343338984519505
  Basis Set: CC-PVTZ
  Basis Set:
  Basis Set: CC-PVTZ
  Basis Set:
  @DF-RHF Final Energy:  -232.23513022471127
    Total Energy =                       -232.2351302247108720
  Basis Set: CC-PVTZ
  Basis Set:
  Basis Set: CC-PVTZ
  Basis Set:
  @DF-RHF Final Energy:  -232.23514883990555
    Total Energy =                       -232.2351488399053210
  Basis Set: CC-PVTZ
  Basis Set:
  Basis Set: CC-PVTZ
  Basis Set:
  @DF-RHF Final Energy:  -232.23518730809965
    Total Energy =                       -232.2351873080996256
  Basis Set: CC-PVTZ
  Basis Set:
  Basis Set: CC-PVTZ
  Basis Set:
  @DF-RHF Final Energy:  -232.23518980500299
    Total Energy =                       -232.2351898050029035
  Basis Set: CC-PVTZ
  Basis Set:
  Charge       = 0
  Multiplicity = 1
  Basis Set: CC-PVTZ
  Basis Set:

    Orbital Energies (a.u.)
    -----------------------

    Doubly Occupied:

       1A    -20.543248     2A    -11.264077     3A    -11.226167
       4A    -11.220542     5A    -11.214350     6A     -1.361764
       7A     -1.075352     8A     -0.977979     9A     -0.884112
      10A     -0.792799    11A     -0.683801    12A     -0.647965
      13A     -0.626723    14A     -0.588319    15A     -0.579367
      16A     -0.549092    17A     -0.507522    18A     -0.487562
      19A     -0.481875    20A     -0.460415    21A     -0.431086

  @DF-RHF Final Energy:  -232.23519004300530

   => Energetics <=

    Nuclear Repulsion Energy =            191.6595205150291292
    One-Electron Energy =                -694.5811878545631544
    Two-Electron Energy =                 270.6864772965288353
    DFT Exchange-Correlation Energy =       0.0000000000000000
    Empirical Dispersion Energy =           0.0000000000000000
    PCM Polarization Energy =               0.0000000000000000
    EFP Energy =                            0.0000000000000000
    Total Energy =                       -232.2351900430051614
    Molecular point group: c1
  Basis Set: CC-PVTZ
  Basis Set:

  -Total Gradient:
     Atom            X                  Y                   Z
    ------   -----------------  -----------------  -----------------
       1        0.000472309357     0.001457451005    -0.000768714064
       2       -0.000890735631    -0.002174691970     0.001004196587
       3        0.001135118077     0.001515667229    -0.000371509907
       4       -0.000722875468    -0.000795302456     0.000131389333
       5       -0.000006795918     0.000003650125     0.000004942364
       6        0.000001710484    -0.000006334971    -0.000005052395
       7        0.000000009299    -0.000000110404    -0.000004276434
       8        0.000001574537     0.000003422488    -0.000000868761
       9        0.000000313662    -0.000003410910     0.000001092272
      10        0.000000919710    -0.000003764179     0.000009326221
      11       -0.000008101962     0.000001134669    -0.000004723388
      12        0.000012661580     0.000005698258    -0.000001080954
      13        0.000003494121     0.000001477836    -0.000002116284
      14        0.000004077648    -0.000003271189     0.000006834870
      15       -0.000003679489    -0.000001615530     0.000000560538

  **** Optimization is complete! (in 7 steps) ****
    Final optimized geometry and variables:
    Molecular point group: c1

    Geometry (in Angstrom), charge = 0, multiplicity = 1:

    H            1.198061526416    -0.813393679702    -1.116349640682
    O            1.786524769613    -0.629597315117    -0.408928999186
    C            1.137596384221     0.104613711489     0.596570830682
    C            0.023500430968     1.005848503857     0.082416092207
    H            1.896071025754     0.713090295787     1.071620677529
    H            0.753256479086    -0.573981242037     1.352549225479
    C           -1.164659735954     0.294218777833    -0.572372516436
    H            0.450334610857     1.708063120024    -0.627592834036
    H           -0.338640161961     1.593942843633     0.921359723973
    C           -1.944137218516    -0.633237024253     0.356350210837
    H           -0.837387129105    -0.265705591143    -1.445605383693
    H           -1.836453706461     1.053971480155    -0.957707875050
    H           -2.813490051668    -1.037907421133    -0.148438622855
    H           -1.343559997820    -1.470149086696     0.691578962804
    H           -2.290705252313    -0.101215617530     1.236145351388

  Mulliken Charges: (a.u.)
   Center  Symbol    Alpha    Beta     Spin     Total
       1     H     0.39100  0.39100  0.00000  0.21800
       2     O     4.20833  4.20833  0.00000 -0.41666
       3     C     2.96371  2.96371  0.00000  0.07258
       4     C     3.10950  3.10950  0.00000 -0.21900
       5     H     0.45423  0.45423  0.00000  0.09153
       6     H     0.47337  0.47337  0.00000  0.05326
       7     C     3.09468  3.09468  0.00000 -0.18935
       8     H     0.44425  0.44425  0.00000  0.11150
       9     H     0.45383  0.45383  0.00000  0.09234
      10     C     3.15173  3.15173  0.00000 -0.30345
      11     H     0.46182  0.46182  0.00000  0.07637
      12     H     0.44423  0.44423  0.00000  0.11154
      13     H     0.44520  0.44520  0.00000  0.10960
      14     H     0.45087  0.45087  0.00000  0.09826
      15     H     0.45326  0.45326  0.00000  0.09348

   Total alpha = 21.00000, Total beta = 21.00000, Total charge = -0.00000
