  ==> Input File <==

--------------------------------------------------------------------------
set {
	reference rhf
	basis 6-31G*
}

set_num_threads( 4 )
memory 2 gb

molecule MOL {
0 1

O	 2.793771	 1.463309	 0.317791
C	 2.624645	 0.502964	 1.004734
C	 1.333612	 -0.295395	 0.976532
C	 3.697201	 0.015311	 1.957086
C	 0.291004	 0.242674	 0.000989
H	 1.585678	 -1.328215	 0.739607
H	 0.935465	 -0.321095	 1.990051
C	 -0.994322	 -0.586602	 0.000262
H	 0.716296	 0.265444	 -0.997379
H	 0.065137	 1.273613	 0.254558
C	 -2.259874	 0.272531	 0.000494
H	 -1.004862	 -1.240012	 -0.870939
H	 -1.005220	 -1.241071	 0.870675
C	 -3.549786	 -0.549746	 -0.000374
H	 -2.250389	 0.926680	 -0.869574
H	 -2.250838	 0.925513	 0.871430
C	 -4.809590	 0.315458	 -0.000369
H	 -3.560515	 -1.202009	 -0.871156
H	 -3.561123	 -1.202955	 0.869711
H	 -4.844746	 0.956611	 -0.876632
H	 -5.706986	 -0.295590	 -0.001609
H	 -4.845960	 0.954827	 0.877144
H	 3.981117	 -1.005312	 1.717632
H	 4.564774	 0.656788	 1.888815
H	 3.325820	 0.015358	 2.977728

	symmetry c1
}
set optking {
	frozen_dihedral = ("
		9 5 8 12
	")
}

ee = optimize('scf')
oeprop('DIPOLE', 'QUADRUPOLE', 'MULLIKEN_CHARGES')
f=open( 'psi4out.xyz', 'w' )
f.write( "25  " )
f.write( str(ee) + "\n" )
f.write( MOL.save_string_xyz() )
f.close()
--------------------------------------------------------------------------

    Molecular point group: c1
  Charge       = 0
  Multiplicity = 1
  Basis Set: 6-31G*
  Basis Set:
  @DF-RHF Final Energy:  -387.13175415106991
    Total Energy =                       -387.1317541510701403
    Molecular point group: c1
  Basis Set: 6-31G*
  Basis Set:
  Basis Set: 6-31G*
  Basis Set:
  @DF-RHF Final Energy:  -387.13200119623616
    Total Energy =                       -387.1320011962363878
  Basis Set: 6-31G*
  Basis Set:
  Basis Set: 6-31G*
  Basis Set:
  @DF-RHF Final Energy:  -387.13187765088406
    Total Energy =                       -387.1318776508832116
  Basis Set: 6-31G*
  Basis Set:
  Basis Set: 6-31G*
  Basis Set:
  @DF-RHF Final Energy:  -387.13208644335100
    Total Energy =                       -387.1320864433507722
  Basis Set: 6-31G*
  Basis Set:
  Basis Set: 6-31G*
  Basis Set:
  @DF-RHF Final Energy:  -387.13207166454748
    Total Energy =                       -387.1320716645475386
  Basis Set: 6-31G*
  Basis Set:
  Basis Set: 6-31G*
  Basis Set:
  @DF-RHF Final Energy:  -387.13209156067205
    Total Energy =                       -387.1320915606729614
  Basis Set: 6-31G*
  Basis Set:
  Charge       = 0
  Multiplicity = 1
  Basis Set: 6-31G*
  Basis Set:

    Orbital Energies (a.u.)
    -----------------------

    Doubly Occupied:

       1A    -20.550458     2A    -11.325998     3A    -11.231931
       4A    -11.228257     5A    -11.216896     6A    -11.216339
       7A    -11.215401     8A    -11.213974     9A    -11.208614
      10A     -1.395634    11A     -1.092183    12A     -1.056099
      13A     -1.013707    14A     -0.969113    15A     -0.890229
      16A     -0.815044    17A     -0.790755    18A     -0.730867
      19A     -0.659282    20A     -0.649122    21A     -0.635502
      22A     -0.622221    23A     -0.596798    24A     -0.581056
      25A     -0.567004    26A     -0.563437    27A     -0.539436
      28A     -0.523763    29A     -0.515427    30A     -0.491534
      31A     -0.485364    32A     -0.475403    33A     -0.463786
      34A     -0.460613    35A     -0.447488    36A     -0.399048

  @DF-RHF Final Energy:  -387.13209163697815

   => Energetics <=

    Nuclear Repulsion Energy =            438.8278832232959417
    One-Electron Energy =               -1394.2443801960916971
    Two-Electron Energy =                 568.2844053358176097
    DFT Exchange-Correlation Energy =       0.0000000000000000
    Empirical Dispersion Energy =           0.0000000000000000
    PCM Polarization Energy =               0.0000000000000000
    EFP Energy =                            0.0000000000000000
    Total Energy =                       -387.1320916369782026
    Molecular point group: c1
  Basis Set: 6-31G*
  Basis Set:

  -Total Gradient:
     Atom            X                  Y                   Z
    ------   -----------------  -----------------  -----------------
       1        0.000003943179    -0.000004082594     0.000000480294
       2        0.000000833191     0.000009295175     0.000006227962
       3       -0.000011163998     0.000007792655    -0.000004839152
       4        0.000006111617    -0.000000265307    -0.000003185423
       5       -0.002731820930     0.004146067804    -0.001329102546
       6       -0.000005184919     0.000000355513    -0.000002049051
       7       -0.000000551123     0.000001508568    -0.000002682646
       8        0.002472773096    -0.003734099895     0.002452645338
       9        0.001890323260    -0.002881587308     0.000731255021
      10        0.000000762621    -0.000009017215    -0.000000137945
      11        0.000012869962    -0.000005738639     0.000005338381
      12       -0.001637459541     0.002473248362    -0.001856081419
      13        0.000002655538     0.000006342793    -0.000006065869
      14       -0.000007303076    -0.000001621127     0.000012804239
      15        0.000001487888    -0.000000768132     0.000000647204
      16        0.000008023346    -0.000007225830    -0.000000000358
      17       -0.000004815646    -0.000002957566    -0.000011112343
      18       -0.000000811929    -0.000003614733     0.000004027615
      19        0.000000493562     0.000003532710     0.000001959568
      20       -0.000000361618     0.000004970405     0.000001189530
      21       -0.000002855890     0.000001903858    -0.000004688101
      22       -0.000000140027    -0.000004784630     0.000001522670
      23        0.000000396181     0.000000595661     0.000000393722
      24        0.000002212625    -0.000000966293     0.000001739027
      25       -0.000000417369     0.000001115764    -0.000000285719

  **** Optimization is complete! (in 7 steps) ****
    Final optimized geometry and variables:
    Molecular point group: c1

    Geometry (in Angstrom), charge = 0, multiplicity = 1:

    O            2.910821727084     1.295526848441    -0.179746314179
    C            2.750065988496     0.338713634391     0.514385232753
    C            1.448933925334    -0.443086113015     0.526190194324
    C            3.844103732632    -0.159536749676     1.436406675150
    C            0.382987443421     0.105483195353    -0.421043126923
    H            1.679803518425    -1.480032891739     0.284898433787
    H            1.079775682275    -0.461123384923     1.550788735495
    C           -0.907380691755    -0.738939360321    -0.412822433480
    H            0.806521325390     0.129193704188    -1.418511744683
    H            0.169193038753     1.133326036774    -0.150140044354
    C           -2.179286470195     0.113539158247    -0.450896747372
    H           -0.917108854903    -1.394877770091    -1.279822857675
    H           -0.939156214765    -1.379594925550     0.465616664545
    C           -3.463754002184    -0.714906833051    -0.499667711378
    H           -2.142688281184     0.772683227761    -1.316687061029
    H           -2.202084118343     0.762457609819     0.423193209896
    C           -4.727909884400     0.143495376521    -0.531017314047
    H           -3.443783230837    -1.359025526946    -1.376309286512
    H           -3.498651509718    -1.376739930846     0.363472662604
    H           -4.738680457776     0.793405536084    -1.401414212564
    H           -5.621328268732    -0.472257308813    -0.567137855736
    H           -4.796001487051     0.773610239777     0.351328939534
    H            4.109030240065    -1.183895490014     1.191203267245
    H            4.716748067055     0.471579937578     1.341407946024
    H            3.502689963691    -0.153077269513     2.467450826882

  Mulliken Charges: (a.u.)
   Center  Symbol    Alpha    Beta     Spin     Total
       1     O     4.26125  4.26125  0.00000 -0.52250
       2     C     2.73616  2.73616  0.00000  0.52767
       3     C     3.21263  3.21263  0.00000 -0.42525
       4     C     3.28664  3.28664  0.00000 -0.57328
       5     C     3.15030  3.15030  0.00000 -0.30061
       6     H     0.40968  0.40968  0.00000  0.18065
       7     H     0.41021  0.41021  0.00000  0.17957
       8     C     3.15637  3.15637  0.00000 -0.31274
       9     H     0.40979  0.40979  0.00000  0.18041
      10     H     0.40999  0.40999  0.00000  0.18003
      11     C     3.15258  3.15258  0.00000 -0.30516
      12     H     0.42042  0.42042  0.00000  0.15916
      13     H     0.42379  0.42379  0.00000  0.15242
      14     C     3.15209  3.15209  0.00000 -0.30418
      15     H     0.42137  0.42137  0.00000  0.15726
      16     H     0.42408  0.42408  0.00000  0.15183
      17     C     3.23919  3.23919  0.00000 -0.47837
      18     H     0.42307  0.42307  0.00000  0.15386
      19     H     0.42394  0.42394  0.00000  0.15211
      20     H     0.42113  0.42113  0.00000  0.15775
      21     H     0.41949  0.41949  0.00000  0.16103
      22     H     0.42180  0.42180  0.00000  0.15640
      23     H     0.40877  0.40877  0.00000  0.18246
      24     H     0.39650  0.39650  0.00000  0.20700
      25     H     0.40875  0.40875  0.00000  0.18250

   Total alpha = 36.00000, Total beta = 36.00000, Total charge =  0.00000
