                              Psi4 1.0.54 Driver

  ==> Input File <==

--------------------------------------------------------------------------
set {
	reference rhf
	basis cc-pvtz
}

set_num_threads( 4 )
memory 2 gb

molecule MOL {
0 1

O	 2.868453	 1.353349	 -0.000734
C	 2.841259	 0.166180	 -0.000295
C	 1.542794	 -0.614730	 -0.000853
C	 4.113372	 -0.651103	 0.000743
C	 0.288398	 0.247429	 0.000314
H	 1.557171	 -1.273139	 -0.866508
H	 1.557484	 -1.274998	 0.863344
C	 -0.993089	 -0.581367	 -0.000217
H	 0.305153	 0.900562	 -0.864701
H	 0.305567	 0.898805	 0.866656
C	 -2.258482	 0.271340	 0.000669
H	 -1.002280	 -1.233920	 -0.870484
H	 -1.002061	 -1.235367	 0.868958
C	 -3.202989	 -0.042365	 -1.156151
H	 -1.982419	 1.322278	 -0.037161
H	 -2.785018	 0.130285	 0.941408
C	 -4.465057	 0.813740	 -1.148546
H	 -2.677875	 0.099505	 -2.096931
H	 -3.480477	 -1.092362	 -1.118389
H	 -4.222542	 1.868769	 -1.220252
H	 -5.112992	 0.566314	 -1.981602
H	 -5.031198	 0.667905	 -0.234620
H	 4.145311	 -1.294584	 -0.871587
H	 4.970080	 0.004978	 -0.000091
H	 4.145223	 -1.291980	 0.874988

	symmetry c1
}
set optking {
	frozen_dihedral = ("
		15 11 8 12
	")
}

ee,wfn = optimize('scf', return_wfn=True)
oeprop( wfn, 'DIPOLE', 'QUADRUPOLE', 'MULLIKEN_CHARGES')
f=open( 'psi4out.xyz', 'w' )
f.write( "25  " )
f.write( str(ee) + "\n" )
f.write( MOL.save_string_xyz() )
f.close()
--------------------------------------------------------------------------

    Molecular point group: c1
  Charge       = 0
  Multiplicity = 1
  Basis Set: CC-PVTZ
  Basis Set:
  @DF-RHF Final Energy:  -387.26916137060363
    Total Energy =                       -387.2691613706035696
    Molecular point group: c1
  Basis Set: CC-PVTZ
  Basis Set:
  Basis Set: CC-PVTZ
  Basis Set:
  @DF-RHF Final Energy:  -387.26937735247128
    Total Energy =                       -387.2693773524712242
  Basis Set: CC-PVTZ
  Basis Set:
  Basis Set: CC-PVTZ
  Basis Set:
  @DF-RHF Final Energy:  -387.26943392369310
    Total Energy =                       -387.2694339236934411
  Basis Set: CC-PVTZ
  Basis Set:
  Basis Set: CC-PVTZ
  Basis Set:
  @DF-RHF Final Energy:  -387.26942065694692
    Total Energy =                       -387.2694206569470907
  Basis Set: CC-PVTZ
  Basis Set:
  Charge       = 0
  Multiplicity = 1
  Basis Set: CC-PVTZ
  Basis Set:

    Orbital Energies (a.u.)
    -----------------------

    Doubly Occupied:

       1A    -20.538928     2A    -11.320607     3A    -11.230005
       4A    -11.226617     5A    -11.215545     6A    -11.214568
       7A    -11.213843     8A    -11.211224     9A    -11.206051
      10A     -1.398984    11A     -1.093663    12A     -1.057119
      13A     -1.015228    14A     -0.968890    15A     -0.891733
      16A     -0.817907    17A     -0.790329    18A     -0.731487
      19A     -0.656062    20A     -0.654320    21A     -0.635788
      22A     -0.623144    23A     -0.601892    24A     -0.582848
      25A     -0.566411    26A     -0.563577    27A     -0.540640
      28A     -0.529756    29A     -0.509853    30A     -0.493059
      31A     -0.486945    32A     -0.480445    33A     -0.464784
      34A     -0.455248    35A     -0.450166    36A     -0.401478

  @DF-RHF Final Energy:  -387.26943434451272

   => Energetics <=

    Nuclear Repulsion Energy =            440.4014475733834502
    One-Electron Energy =               -1397.6634854303615612
    Two-Electron Energy =                 569.9926035124653936
    DFT Exchange-Correlation Energy =       0.0000000000000000
    Empirical Dispersion Energy =           0.0000000000000000
    PCM Polarization Energy =               0.0000000000000000
    EFP Energy =                            0.0000000000000000
    Total Energy =                       -387.2694343445127743
    Molecular point group: c1
  Basis Set: CC-PVTZ
  Basis Set:

  -Total Gradient:
     Atom            X                  Y                   Z
    ------   -----------------  -----------------  -----------------
       1        0.000007247730    -0.000003627711    -0.000003531113
       2       -0.000002844721    -0.000020271513     0.000008404602
       3       -0.000004258913    -0.000004703313    -0.000003395376
       4        0.000012619531     0.000013070190     0.000002661880
       5       -0.000001425641     0.000004698099     0.000001953081
       6        0.000003338310     0.000000737411     0.000004355468
       7        0.000005388387     0.000001789267    -0.000001788848
       8        0.000594836273     0.000971456394    -0.000458569906
       9       -0.000011626215    -0.000004446959     0.000003293041
      10       -0.000008780832    -0.000000297783    -0.000005226909
      11       -0.000107339891    -0.000252634436    -0.001200383218
      12       -0.000509681770    -0.000751249634     0.000576989259
      13        0.000006246411     0.000007969437     0.000001628802
      14       -0.000000047487    -0.000000361417     0.000002095337
      15        0.000028985125     0.000031630400     0.001075995937
      16       -0.000004456741    -0.000005642478    -0.000007711084
      17       -0.000015120875     0.000007315657     0.000000491930
      18        0.000005977725     0.000000617278     0.000009738253
      19        0.000006560978     0.000001905929     0.000001806302
      20       -0.000002767235    -0.000004984700     0.000001753473
      21       -0.000009313489     0.000003294990    -0.000002415588
      22        0.000001929449     0.000003447577    -0.000004429529
      23       -0.000001007850     0.000003171513    -0.000000989948
      24        0.000006388588    -0.000003960611    -0.000000435712
      25       -0.000000846848     0.000001076410    -0.000002290135

  **** Optimization is complete! (in 5 steps) ****
    Final optimized geometry and variables:
    Molecular point group: c1

    Geometry (in Angstrom), charge = 0, multiplicity = 1:

    O            2.808179594936     1.222835690228     0.247996800384
    C            2.774058510251     0.035903988578     0.253136109290
    C            1.470947007885    -0.737499811442     0.256733389292
    C            4.041382442992    -0.788870294288     0.256211677236
    C            0.221933371772     0.131772671061     0.256748795505
    H            1.480301889582    -1.398660711744    -0.606938385785
    H            1.482705320471    -1.395276328885     1.122905409185
    C           -1.065837443110    -0.688208715651     0.257214299758
    H            0.240640973399     0.783903845028    -0.609280983070
    H            0.241773011995     0.784616899693     1.122037882849
    C           -2.343433895413     0.174693324502     0.261918340733
    H           -1.074068368419    -1.344508178820    -0.608825370557
    H           -1.066474786961    -1.347092183288     1.120609440061
    C           -3.302880467742    -0.139053626446    -0.883354907951
    H           -2.073200720361     1.225715746490     0.220547913540
    H           -2.868645090006     0.046315081410     1.203429265088
    C           -4.563131350280     0.718563461808    -0.862891019616
    H           -2.786245060550     0.000310184978    -1.829412579707
    H           -3.579930335044    -1.189091445890    -0.840554334606
    H           -4.319680790997     1.773159816131    -0.937796330909
    H           -5.220360411618     0.471527060692    -1.688795036188
    H           -5.119711642401     0.574127561897     0.057222888032
    H            4.068211967144    -1.436369252562    -0.613298543932
    H            4.902134214146    -0.138057032535     0.251315587442
    H            4.070442220712    -1.425965301563     1.133310433240

  Mulliken Charges: (a.u.)
   Center  Symbol    Alpha    Beta     Spin     Total
       1     O     4.17060  4.17060  0.00000 -0.34120
       2     C     2.86214  2.86214  0.00000  0.27573
       3     C     3.11499  3.11499  0.00000 -0.22997
       4     C     3.15135  3.15135  0.00000 -0.30270
       5     C     3.08247  3.08247  0.00000 -0.16493
       6     H     0.44510  0.44510  0.00000  0.10979
       7     H     0.44565  0.44565  0.00000  0.10871
       8     C     3.09804  3.09804  0.00000 -0.19607
       9     H     0.44578  0.44578  0.00000  0.10845
      10     H     0.44481  0.44481  0.00000  0.11037
      11     C     3.09388  3.09388  0.00000 -0.18775
      12     H     0.45525  0.45525  0.00000  0.08951
      13     H     0.45108  0.45108  0.00000  0.09784
      14     C     3.08263  3.08263  0.00000 -0.16526
      15     H     0.45176  0.45176  0.00000  0.09648
      16     H     0.45061  0.45061  0.00000  0.09877
      17     C     3.15066  3.15066  0.00000 -0.30132
      18     H     0.45467  0.45467  0.00000  0.09066
      19     H     0.45431  0.45431  0.00000  0.09138
      20     H     0.45406  0.45406  0.00000  0.09187
      21     H     0.44881  0.44881  0.00000  0.10238
      22     H     0.45527  0.45527  0.00000  0.08947
      23     H     0.45042  0.45042  0.00000  0.09917
      24     H     0.43534  0.43534  0.00000  0.12932
      25     H     0.45034  0.45034  0.00000  0.09931

   Total alpha = 36.00000, Total beta = 36.00000, Total charge = -0.00000

*** Psi4 exiting successfully. Buy a developer a beer!
