  ==> Input File <==

--------------------------------------------------------------------------
set {
	reference rhf
	basis cc-pvtz
}

set_num_threads( 4 )
memory 2 gb

molecule MOL {
0 1

H	 1.243329	 -2.262632	 -0.354208
C	 0.281054	 -1.784486	 -0.426566
O	 0.462329	 -0.453336	 -0.000137
H	 -0.423506	 -2.305156	 0.209608
H	 -0.058318	 -1.821958	 -1.454020
C	 -0.590565	 0.341382	 0.000062
O	 -1.693898	 -0.053880	 0.000252
H	 -0.340426	 1.403822	 0.000200

	symmetry c1
}
set optking {
	frozen_dihedral = ("
		2 3 6 7
	")
}

ee = optimize('scf')
oeprop('DIPOLE', 'QUADRUPOLE', 'MULLIKEN_CHARGES')
f=open( 'psi4out.xyz', 'w' )
f.write( "8  " )
f.write( str(ee) + "\n" )
f.write( MOL.save_string_xyz() )
f.close()
--------------------------------------------------------------------------

    Molecular point group: c1
  Charge       = 0
  Multiplicity = 1
  Basis Set: CC-PVTZ
  Basis Set:
  @DF-RHF Final Energy:  -227.87519576870881
    Total Energy =                       -227.8751957687086929
    Molecular point group: c1
  Basis Set: CC-PVTZ
  Basis Set:
  Basis Set: CC-PVTZ
  Basis Set:
  @DF-RHF Final Energy:  -227.87263589354319
    Total Energy =                       -227.8726358935431051
  Basis Set: CC-PVTZ
  Basis Set:
  Basis Set: CC-PVTZ
  Basis Set:
  @DF-RHF Final Energy:  -227.87522067034570
    Total Energy =                       -227.8752206703458398
  Basis Set: CC-PVTZ
  Basis Set:
  Basis Set: CC-PVTZ
  Basis Set:
  @DF-RHF Final Energy:  -227.87646628108871
    Total Energy =                       -227.8764662810886819
  Basis Set: CC-PVTZ
  Basis Set:
  Basis Set: CC-PVTZ
  Basis Set:
  @DF-RHF Final Energy:  -227.87647550883543
    Total Energy =                       -227.8764755088355685
  Basis Set: CC-PVTZ
  Basis Set:
  Basis Set: CC-PVTZ
  Basis Set:
  @DF-RHF Final Energy:  -227.87647682280831
    Total Energy =                       -227.8764768228083994
  Basis Set: CC-PVTZ
  Basis Set:
  Charge       = 0
  Multiplicity = 1
  Basis Set: CC-PVTZ
  Basis Set:

    Orbital Energies (a.u.)
    -----------------------

    Doubly Occupied:

       1A    -20.607815     2A    -20.549688     3A    -11.372777
       4A    -11.288034     5A     -1.481343     6A     -1.380337
       7A     -0.998218     8A     -0.820530     9A     -0.747441
      10A     -0.685731    11A     -0.682559    12A     -0.604702
      13A     -0.560366    14A     -0.534332    15A     -0.470145
      16A     -0.461466

  @DF-RHF Final Energy:  -227.87647686819417

   => Energetics <=

    Nuclear Repulsion Energy =            123.8281545332425253
    One-Electron Energy =                -556.9182956961776654
    Two-Electron Energy =                 205.2136642947408518
    DFT Exchange-Correlation Energy =       0.0000000000000000
    Empirical Dispersion Energy =           0.0000000000000000
    PCM Polarization Energy =               0.0000000000000000
    EFP Energy =                            0.0000000000000000
    Total Energy =                       -227.8764768681942883
    Molecular point group: c1
  Basis Set: CC-PVTZ
  Basis Set:

  -Total Gradient:
     Atom            X                  Y                   Z
    ------   -----------------  -----------------  -----------------
       1       -0.000000208041     0.000012641056     0.000003695905
       2        0.001324952792     0.001458726581    -0.004958160211
       3       -0.002146271987    -0.002182830486     0.011083681650
       4       -0.000001359314     0.000000376043     0.000003875089
       5       -0.000000793930    -0.000002907417    -0.000002838220
       6        0.001145107107     0.000685975588    -0.013154742140
       7       -0.000321613914     0.000024967689     0.007021282267
       8        0.000000187287     0.000003050947     0.000003205662

  **** Optimization is complete! (in 7 steps) ****
    Final optimized geometry and variables:
    Molecular point group: c1

    Geometry (in Angstrom), charge = 0, multiplicity = 1:

    H            1.662513348716    -1.731317859046    -0.265114305475
    C            0.680148832604    -1.289574880668    -0.283316900946
    O            0.844990035194     0.048623737616     0.153678840466
    H            0.015865560111    -1.829339005732     0.374450273465
    H            0.280954203247    -1.308019954287    -1.286917718469
    C           -0.207465461045     0.834997831050     0.100819177856
    O           -1.329135448249     0.481075989326     0.046472577725
    H            0.096246002001     1.874528812214     0.174002621470

  Mulliken Charges: (a.u.)
   Center  Symbol    Alpha    Beta     Spin     Total
       1     H     0.44427  0.44427  0.00000  0.11147
       2     C     3.02749  3.02749  0.00000 -0.05497
       3     O     4.14181  4.14181  0.00000 -0.28361
       4     H     0.45058  0.45058  0.00000  0.09883
       5     H     0.45681  0.45681  0.00000  0.08638
       6     C     2.83699  2.83699  0.00000  0.32602
       7     O     4.19186  4.19186  0.00000 -0.38371
       8     H     0.45020  0.45020  0.00000  0.09959

   Total alpha = 16.00000, Total beta = 16.00000, Total charge = -0.00000
