  ==> Input File <==

--------------------------------------------------------------------------
set {
	reference rhf
	basis 6-31G*
}

set_num_threads( 1 )
memory 2 gb

molecule MOL {
0 1

H	 -3.261111	 -0.295142	 1.469456
C	 -3.306842	 -0.277400	 0.373456
C	 -2.660244	 0.921717	 -0.272021
O	 -3.838538	 -1.161155	 -0.216482
C	 -1.220012	 1.144545	 0.209990
H	 -2.705793	 0.797307	 -1.347733
H	 -3.263782	 1.790044	 -0.010477
C	 -0.252658	 0.041456	 -0.226725
H	 -0.873521	 2.100229	 -0.171974
H	 -1.211708	 1.231594	 1.295398
C	 1.180775	 0.282413	 0.250794
H	 -0.266029	 -0.034465	 -1.312038
H	 -0.597733	 -0.921000	 0.146291
C	 2.148627	 -0.814315	 -0.201312
H	 1.516199	 1.249228	 -0.115937
H	 1.192670	 0.346017	 1.338083
C	 3.580890	 -0.659131	 0.322722
H	 2.166869	 -0.852443	 -1.289387
H	 1.762857	 -1.776509	 0.128956
C	 4.456678	 0.293019	 -0.493382
H	 4.050073	 -1.639788	 0.334034
H	 3.551503	 -0.325638	 1.358019
H	 4.491364	 -0.006964	 -1.537449
H	 4.092668	 1.314270	 -0.454439
H	 5.475316	 0.296725	 -0.117406

	symmetry c1
}
set optking {
	frozen_dihedral = ("
		6 3 5 8,
		6 3 2 4,
		3 5 8 12,
		12 8 11 14,
		8 11 14 18
	")
}

ee = energy('scf')
oeprop('DIPOLE', 'QUADRUPOLE', 'MULLIKEN_CHARGES')
f=open( 'psi4out.xyz', 'w' )
f.write( "25  " )
f.write( str(ee) + "\n" )
f.write( MOL.save_string_xyz() )
f.close()
--------------------------------------------------------------------------

    Molecular point group: c1

    Geometry (in Angstrom), charge = 0, multiplicity = 1:

       Center              X                  Y                   Z               Mass
    ------------   -----------------  -----------------  -----------------  -----------------
           H         -3.276529817760    -0.263251245670     1.502153385418     1.007825032070
           C         -3.322260817760    -0.245509245670     0.406153385418    12.000000000000
           C         -2.675662817760     0.953607754330    -0.239323614582    12.000000000000
           O         -3.853956817760    -1.129264245670    -0.183784614582    15.994914619560
           C         -1.235430817760     1.176435754330     0.242687385418    12.000000000000
           H         -2.721211817760     0.829197754330    -1.315035614582     1.007825032070
           H         -3.279200817760     1.821934754330     0.022220385418     1.007825032070
           C         -0.268076817760     0.073346754330    -0.194027614582    12.000000000000
           H         -0.888939817760     2.132119754330    -0.139276614582     1.007825032070
           H         -1.227126817760     1.263484754330     1.328095385418     1.007825032070
           C          1.165356182240     0.314303754330     0.283491385418    12.000000000000
           H         -0.281447817760    -0.002574245670    -1.279340614582     1.007825032070
           H         -0.613151817760    -0.889109245670     0.178988385418     1.007825032070
           C          2.133208182240    -0.782424245670    -0.168614614582    12.000000000000
           H          1.500780182240     1.281118754330    -0.083239614582     1.007825032070
           H          1.177251182240     0.377907754330     1.370780385418     1.007825032070
           C          3.565471182240    -0.627240245670     0.355419385418    12.000000000000
           H          2.151450182240    -0.820552245670    -1.256689614582     1.007825032070
           H          1.747438182240    -1.744618245670     0.161653385418     1.007825032070
           C          4.441259182240     0.324909754330    -0.460684614582    12.000000000000
           H          4.034654182240    -1.607897245670     0.366731385418     1.007825032070
           H          3.536084182240    -0.293747245670     1.390716385418     1.007825032070
           H          4.475945182240     0.024926754330    -1.504751614582     1.007825032070
           H          4.077249182240     1.346160754330    -0.421741614582     1.007825032070
           H          5.459897182240     0.328615754330    -0.084708614582     1.007825032070

  Charge       = 0
  Multiplicity = 1
  Basis Set: 6-31G*
  Basis Set:

    Orbital Energies (a.u.)
    -----------------------

    Doubly Occupied:

       1A    -20.562042     2A    -11.326170     3A    -11.235378
       4A    -11.234651     5A    -11.223926     6A    -11.220210
       7A    -11.217545     8A    -11.216544     9A    -11.210731
      10A     -1.402014    11A     -1.103905    12A     -1.069449
      13A     -1.013989    14A     -0.942865    15A     -0.873372
      16A     -0.819259    17A     -0.788604    18A     -0.784353
      19A     -0.664502    20A     -0.661619    21A     -0.631619
      22A     -0.625468    23A     -0.603013    24A     -0.594117
      25A     -0.575154    26A     -0.550096    27A     -0.534192
      28A     -0.525488    29A     -0.508174    30A     -0.496628
      31A     -0.489828    32A     -0.480037    33A     -0.466703
      34A     -0.457564    35A     -0.440471    36A     -0.409577

  @DF-RHF Final Energy:  -387.12096166509212

   => Energetics <=

    Nuclear Repulsion Energy =            438.0474402711915332
    One-Electron Energy =               -1392.4185314212538742
    Two-Electron Energy =                 567.2501294849703299
    DFT Exchange-Correlation Energy =       0.0000000000000000
    Empirical Dispersion Energy =           0.0000000000000000
    PCM Polarization Energy =               0.0000000000000000
    EFP Energy =                            0.0000000000000000
    Total Energy =                       -387.1209616650919543

  Mulliken Charges: (a.u.)
   Center  Symbol    Alpha    Beta     Spin     Total
       1     H     0.43260  0.43260  0.00000  0.13480
       2     C     2.83086  2.83086  0.00000  0.33828
       3     C     3.20812  3.20812  0.00000 -0.41623
       4     O     4.23775  4.23775  0.00000 -0.47549
       5     C     3.16659  3.16659  0.00000 -0.33317
       6     H     0.39969  0.39969  0.00000  0.20063
       7     H     0.40670  0.40670  0.00000  0.18661
       8     C     3.15520  3.15520  0.00000 -0.31040
       9     H     0.41284  0.41284  0.00000  0.17432
      10     H     0.41961  0.41961  0.00000  0.16077
      11     C     3.15323  3.15323  0.00000 -0.30645
      12     H     0.41795  0.41795  0.00000  0.16411
      13     H     0.41831  0.41831  0.00000  0.16338
      14     C     3.15392  3.15392  0.00000 -0.30784
      15     H     0.42189  0.42189  0.00000  0.15623
      16     H     0.42334  0.42334  0.00000  0.15333
      17     C     3.15402  3.15402  0.00000 -0.30805
      18     H     0.42228  0.42228  0.00000  0.15543
      19     H     0.42047  0.42047  0.00000  0.15907
      20     C     3.24001  3.24001  0.00000 -0.48002
      21     H     0.41986  0.41986  0.00000  0.16028
      22     H     0.42279  0.42279  0.00000  0.15442
      23     H     0.42141  0.42141  0.00000  0.15717
      24     H     0.42152  0.42152  0.00000  0.15696
      25     H     0.41906  0.41906  0.00000  0.16189

   Total alpha = 36.00000, Total beta = 36.00000, Total charge =  0.00000
