  ==> Input File <==

--------------------------------------------------------------------------
set {
	reference rhf
	basis 6-31G*
}

set_num_threads( 1 )
memory 2 gb

molecule MOL {
0 1

H	 1.216160	 -0.987353	 -0.618767
O	 1.029738	 -0.327089	 -1.272336
C	 0.524085	 0.811613	 -0.638587
C	 -0.793441	 0.596080	 0.058728
H	 0.408079	 1.561955	 -1.412365
H	 1.244855	 1.209633	 0.074922
C	 -1.530462	 -0.493172	 -0.025500
H	 -1.128864	 1.424162	 0.663918
H	 -1.092586	 -1.461565	 -0.186463
H	 -2.602122	 -0.450675	 0.050101

	symmetry c1
}
set optking {
	frozen_dihedral = ("
		5 3 2 1,
		5 3 4 7
	")
}

ee = energy('scf')
oeprop('DIPOLE', 'QUADRUPOLE', 'MULLIKEN_CHARGES')
f=open( 'psi4out.xyz', 'w' )
f.write( "10  " )
f.write( str(ee) + "\n" )
f.write( MOL.save_string_xyz() )
f.close()
--------------------------------------------------------------------------

    Molecular point group: c1

    Geometry (in Angstrom), charge = 0, multiplicity = 1:

       Center              X                  Y                   Z               Mass
    ------------   -----------------  -----------------  -----------------  -----------------
           H          1.338434094492    -1.108796218010    -0.118179242441     1.007825032070
           O          1.152012094492    -0.448532218010    -0.771748242441    15.994914619560
           C          0.646359094492     0.690169781990    -0.137999242441    12.000000000000
           C         -0.671166905508     0.474636781990     0.559315757559    12.000000000000
           H          0.530353094492     1.440511781990    -0.911777242441     1.007825032070
           H          1.367129094492     1.088189781990     0.575509757559     1.007825032070
           C         -1.408187905508    -0.614615218010     0.475087757559    12.000000000000
           H         -1.006589905508     1.302718781990     1.164505757559     1.007825032070
           H         -0.970311905508    -1.583008218010     0.314124757559     1.007825032070
           H         -2.479847905508    -0.572118218010     0.550688757559     1.007825032070

  Charge       = 0
  Multiplicity = 1
  Basis Set: 6-31G*
  Basis Set:

    Orbital Energies (a.u.)
    -----------------------

    Doubly Occupied:

       1A    -20.559947     2A    -11.278907     3A    -11.231433
       4A    -11.220606     5A     -1.368707     6A     -1.058319
       7A     -0.928832     8A     -0.768807     9A     -0.688919
      10A     -0.658158    11A     -0.614181    12A     -0.569700
      13A     -0.551378    14A     -0.491848    15A     -0.450928
      16A     -0.344746

  @DF-RHF Final Energy:  -191.89489868380954

   => Energetics <=

    Nuclear Repulsion Energy =            119.3441294671372646
    One-Electron Energy =                -496.9072444473137580
    Two-Electron Energy =                 185.6682162963671772
    DFT Exchange-Correlation Energy =       0.0000000000000000
    Empirical Dispersion Energy =           0.0000000000000000
    PCM Polarization Energy =               0.0000000000000000
    EFP Energy =                            0.0000000000000000
    Total Energy =                       -191.8948986838092878

  Mulliken Charges: (a.u.)
   Center  Symbol    Alpha    Beta     Spin     Total
       1     H     0.28050  0.28050  0.00000  0.43899
       2     O     4.36606  4.36606  0.00000 -0.73212
       3     C     2.99860  2.99860  0.00000  0.00281
       4     C     3.09619  3.09619  0.00000 -0.19239
       5     H     0.40548  0.40548  0.00000  0.18904
       6     H     0.42898  0.42898  0.00000  0.14204
       7     C     3.19144  3.19144  0.00000 -0.38289
       8     H     0.40951  0.40951  0.00000  0.18099
       9     H     0.41482  0.41482  0.00000  0.17037
      10     H     0.40842  0.40842  0.00000  0.18316

   Total alpha = 16.00000, Total beta = 16.00000, Total charge =  0.00000
