                              Psi4 1.0.54 Driver

  ==> Input File <==

--------------------------------------------------------------------------
set {
	reference rhf
	basis cc-pvtz
}

set_num_threads( 4 )
memory 2 gb

molecule MOL {
0 1

H	 -2.285297	 -0.172161	 3.288042
C	 -2.323600	 -0.387642	 2.239991
C	 -1.206582	 -0.517280	 1.567080
H	 -3.280362	 -0.493781	 1.767613
O	 -1.189946	 -0.765863	 0.237511
H	 -0.242381	 -0.421310	 2.032091
C	 0.026572	 -0.995256	 -0.379403
C	 1.057223	 0.049888	 -0.004615
H	 -0.054361	 -1.010670	 -1.459674
H	 0.397526	 -1.952058	 -0.044198
F	 2.203233	 -0.234060	 -0.590375
F	 0.698147	 1.254887	 -0.392621
F	 1.266440	 0.094219	 1.288722

	symmetry c1
}
set optking {
	frozen_dihedral = ("
		3 5 7 9
	")
}

ee,wfn = optimize('scf', return_wfn=True)
oeprop( wfn, 'DIPOLE', 'QUADRUPOLE', 'MULLIKEN_CHARGES')
f=open( 'psi4out.xyz', 'w' )
f.write( "13  " )
f.write( str(ee) + "\n" )
f.write( MOL.save_string_xyz() )
f.close()
--------------------------------------------------------------------------

    Molecular point group: c1
  Charge       = 0
  Multiplicity = 1
  Basis Set: CC-PVTZ
  Basis Set:
  @DF-RHF Final Energy:  -527.72374244449566
    Total Energy =                       -527.7237424444956559
    Molecular point group: c1
  Basis Set: CC-PVTZ
  Basis Set:
  Basis Set: CC-PVTZ
  Basis Set:
  @DF-RHF Final Energy:  -527.23793801836098
    Total Energy =                       -527.2379380183609783
  Basis Set: CC-PVTZ
  Basis Set:
  Basis Set: CC-PVTZ
  Basis Set:
  @DF-RHF Final Energy:  -527.42550697284935
    Total Energy =                       -527.4255069728492344
  Basis Set: CC-PVTZ
  Basis Set:
  Basis Set: CC-PVTZ
  Basis Set:
  @DF-RHF Final Energy:  -527.65072918785063
    Total Energy =                       -527.6507291878508568
  Basis Set: CC-PVTZ
  Basis Set:
  @DF-RHF Final Energy:  -527.70861508237022
    Total Energy =                       -527.7086150823702155
  @DF-RHF Final Energy:  -527.72430068231358
    Total Energy =                       -527.7243006823134692
  @DF-RHF Final Energy:  -527.73057941010222
    Total Energy =                       -527.7305794101023366
  @DF-RHF Final Energy:  -527.73445734138431
    Total Energy =                       -527.7344573413844273
  @DF-RHF Final Energy:  -527.73703338708128
    Total Energy =                       -527.7370333870812829
  @DF-RHF Final Energy:  -527.73770000246520
    Total Energy =                       -527.7377000024646350
  @DF-RHF Final Energy:  -527.73803607415323
    Total Energy =                       -527.7380360741533423
  @DF-RHF Final Energy:  -527.73817248023681
    Total Energy =                       -527.7381724802364715
  @DF-RHF Final Energy:  -527.73824405116113
    Total Energy =                       -527.7382440511609047
  Basis Set: CC-PVTZ
  Basis Set:
  @DF-RHF Final Energy:  -527.73827383247374
    Total Energy =                       -527.7382738324740785
  Basis Set: CC-PVTZ
  Basis Set:
  Basis Set: CC-PVTZ
  Basis Set:
  @DF-RHF Final Energy:  -527.73828086255344
    Total Energy =                       -527.7382808625529833
  Basis Set: CC-PVTZ
  Basis Set:
  Basis Set: CC-PVTZ
  Basis Set:
  @DF-RHF Final Energy:  -527.73828289852577
    Total Energy =                       -527.7382828985257675
  Basis Set: CC-PVTZ
  Basis Set:
  Charge       = 0
  Multiplicity = 1
  Basis Set: CC-PVTZ
  Basis Set:

    Orbital Energies (a.u.)
    -----------------------

    Doubly Occupied:

       1A    -26.342321     2A    -26.342243     3A    -26.339877
       4A    -20.600536     5A    -11.500111     6A    -11.319465
       7A    -11.294885     8A    -11.215025     9A     -1.752188
      10A     -1.647780    11A     -1.647379    12A     -1.439326
      13A     -1.085561    14A     -1.022115    15A     -0.933451
      16A     -0.844147    17A     -0.840279    18A     -0.835747
      19A     -0.783580    20A     -0.726928    21A     -0.720074
      22A     -0.700377    23A     -0.683368    24A     -0.669543
      25A     -0.663000    26A     -0.652348    27A     -0.644285
      28A     -0.595852    29A     -0.565227    30A     -0.524998
      31A     -0.502739    32A     -0.360022

  @DF-RHF Final Energy:  -527.73828345934339

   => Energetics <=

    Nuclear Repulsion Energy =            417.6904967083276006
    One-Electron Energy =               -1559.2680040177251612
    Two-Electron Energy =                 613.8392238500541680
    DFT Exchange-Correlation Energy =       0.0000000000000000
    Empirical Dispersion Energy =           0.0000000000000000
    PCM Polarization Energy =               0.0000000000000000
    EFP Energy =                            0.0000000000000000
    Total Energy =                       -527.7382834593433927
    Molecular point group: c1
  Basis Set: CC-PVTZ
  Basis Set:

  -Total Gradient:
     Atom            X                  Y                   Z
    ------   -----------------  -----------------  -----------------
       1        0.000011687786    -0.000033288915     0.000011955561
       2       -0.000027164549    -0.000006741518    -0.000017546381
       3       -0.002983303706     0.003762957433    -0.001318324740
       4        0.000060252455    -0.000000443414    -0.000001212697
       5        0.003742988149    -0.004263739335     0.001830666067
       6       -0.000043415475    -0.000059542252    -0.000000407462
       7        0.001954610278    -0.004132229947     0.000507510497
       8        0.000064442091     0.000076894240     0.000208760330
       9       -0.002658010227     0.004695186675    -0.001032755706
      10       -0.000005615133     0.000025243452    -0.000066549948
      11       -0.000047886375     0.000011829942     0.000035472683
      12        0.000034259842     0.000013055576    -0.000037302456
      13       -0.000102845138    -0.000089181941    -0.000120265742

  **** Optimization is complete! (in 17 steps) ****
    Final optimized geometry and variables:
    Molecular point group: c1

    Geometry (in Angstrom), charge = 0, multiplicity = 1:

    H           -0.762499788147     0.178516102903     3.700623752231
    C           -1.084294671374    -0.309253636428     2.803182399340
    C           -0.207290687332    -0.602704358167     1.875587035907
    H           -2.122308923062    -0.553383212722     2.690224055745
    O           -0.552698337672    -1.282114818184     0.754259397674
    H            0.835368819185    -0.362763318499     1.972209925056
    C            0.175769636770    -1.104459597795    -0.410912839403
    C            0.300867446346     0.336921471946    -0.877580952369
    H           -0.379394998951    -1.594424834501    -1.195633404489
    H            1.174645804673    -1.520427755406    -0.342667709695
    F            0.827017862276     0.341507454416    -2.086183668629
    F           -0.863682375350     0.935285434033    -0.941052731333
    F            1.083265374747     1.067819908260    -0.111226461561

  Mulliken Charges: (a.u.)
   Center  Symbol    Alpha    Beta     Spin     Total
       1     H     0.42534  0.42534  0.00000  0.14933
       2     C     3.18901  3.18901  0.00000 -0.37801
       3     C     2.96717  2.96717  0.00000  0.06565
       4     H     0.42404  0.42404  0.00000  0.15193
       5     O     4.14685  4.14685  0.00000 -0.29369
       6     H     0.43037  0.43037  0.00000  0.13927
       7     C     3.01707  3.01707  0.00000 -0.03415
       8     C     2.68096  2.68096  0.00000  0.63808
       9     H     0.43849  0.43849  0.00000  0.12303
      10     H     0.45107  0.45107  0.00000  0.09786
      11     F     4.61057  4.61057  0.00000 -0.22113
      12     F     4.60702  4.60702  0.00000 -0.21404
      13     F     4.61206  4.61206  0.00000 -0.22413

   Total alpha = 32.00000, Total beta = 32.00000, Total charge =  0.00000

*** Psi4 exiting successfully. Buy a developer a beer!
