                              Psi4 1.0.54 Driver

  ==> Input File <==

--------------------------------------------------------------------------
set {
	reference rhf
	basis cc-pvtz
}

set_num_threads( 4 )
memory 2 gb

molecule MOL {
0 1

O	 3.010325	 1.117943	 -0.689986
C	 2.841259	 0.166180	 -0.000295
C	 1.542794	 -0.614730	 -0.000853
C	 3.921675	 -0.333024	 0.932293
C	 0.288398	 0.247429	 0.000314
H	 1.557171	 -1.273139	 -0.866508
H	 1.557484	 -1.274998	 0.863344
C	 -0.993089	 -0.581367	 -0.000217
H	 0.305153	 0.900562	 -0.864701
H	 0.305567	 0.898805	 0.866656
C	 -2.258482	 0.271340	 0.000669
H	 -1.002280	 -1.233920	 -0.870484
H	 -1.002061	 -1.235367	 0.868958
C	 -3.544441	 -0.550271	 -0.000253
H	 -2.250545	 0.925250	 -0.867923
H	 -2.250598	 0.923423	 0.870642
C	 -4.804551	 0.308747	 0.000556
H	 -3.553737	 -1.201524	 -0.870151
H	 -3.553831	 -1.203282	 0.868313
H	 -4.842050	 0.949078	 -0.874436
H	 -5.698404	 -0.304480	 -0.000254
H	 -4.842277	 0.947103	 0.876982
H	 4.182262	 -1.357140	 0.688719
H	 4.795857	 0.294062	 0.848856
H	 3.564112	 -0.326505	 1.956084

	symmetry c1
}
set optking {
	frozen_dihedral = ("
		1 2 3 6
	")
}

ee,wfn = optimize('scf', return_wfn=True)
oeprop( wfn, 'DIPOLE', 'QUADRUPOLE', 'MULLIKEN_CHARGES')
f=open( 'psi4out.xyz', 'w' )
f.write( "25  " )
f.write( str(ee) + "\n" )
f.write( MOL.save_string_xyz() )
f.close()
--------------------------------------------------------------------------

    Molecular point group: c1
  Charge       = 0
  Multiplicity = 1
  Basis Set: CC-PVTZ
  Basis Set:
  @DF-RHF Final Energy:  -387.27276143637619
    Total Energy =                       -387.2727614363757311
    Molecular point group: c1
  Basis Set: CC-PVTZ
  Basis Set:
  Basis Set: CC-PVTZ
  Basis Set:
  @DF-RHF Final Energy:  -387.27280595410099
    Total Energy =                       -387.2728059541007042
  Basis Set: CC-PVTZ
  Basis Set:
  Basis Set: CC-PVTZ
  Basis Set:
  @DF-RHF Final Energy:  -387.27324746631240
    Total Energy =                       -387.2732474663123412
  Basis Set: CC-PVTZ
  Basis Set:
  Basis Set: CC-PVTZ
  Basis Set:
  @DF-RHF Final Energy:  -387.27339307462131
    Total Energy =                       -387.2733930746215947
  Basis Set: CC-PVTZ
  Basis Set:
  Basis Set: CC-PVTZ
  Basis Set:
  @DF-RHF Final Energy:  -387.27339903250783
    Total Energy =                       -387.2733990325073137
  Basis Set: CC-PVTZ
  Basis Set:
  Basis Set: CC-PVTZ
  Basis Set:
  @DF-RHF Final Energy:  -387.27340118713857
    Total Energy =                       -387.2734011871383473
  Basis Set: CC-PVTZ
  Basis Set:
  Charge       = 0
  Multiplicity = 1
  Basis Set: CC-PVTZ
  Basis Set:

    Orbital Energies (a.u.)
    -----------------------

    Doubly Occupied:

       1A    -20.537352     2A    -11.320557     3A    -11.229154
       4A    -11.227258     5A    -11.218508     6A    -11.215995
       7A    -11.214227     8A    -11.212564     9A    -11.207029
      10A     -1.398048    11A     -1.096080    12A     -1.057706
      13A     -1.015488    14A     -0.970845    15A     -0.892015
      16A     -0.815256    17A     -0.792431    18A     -0.731779
      19A     -0.665370    20A     -0.651640    21A     -0.636534
      22A     -0.619427    23A     -0.599716    24A     -0.585943
      25A     -0.569177    26A     -0.561042    27A     -0.541319
      28A     -0.532120    29A     -0.512747    30A     -0.493200
      31A     -0.489403    32A     -0.474152    33A     -0.464785
      34A     -0.464183    35A     -0.452853    36A     -0.399207

  @DF-RHF Final Energy:  -387.27340127972843

   => Energetics <=

    Nuclear Repulsion Energy =            439.1416707446051078
    One-Electron Energy =               -1395.0999185103910349
    Two-Electron Energy =                 568.6848464860572676
    DFT Exchange-Correlation Energy =       0.0000000000000000
    Empirical Dispersion Energy =           0.0000000000000000
    PCM Polarization Energy =               0.0000000000000000
    EFP Energy =                            0.0000000000000000
    Total Energy =                       -387.2734012797286596
    Molecular point group: c1
  Basis Set: CC-PVTZ
  Basis Set:

  -Total Gradient:
     Atom            X                  Y                   Z
    ------   -----------------  -----------------  -----------------
       1        0.000428795673    -0.000749988836    -0.000979840272
       2       -0.000711274828     0.001237180887     0.001250083793
       3        0.000849654430    -0.001401460227     0.000401146183
       4        0.000004973829     0.000008113709    -0.000009559834
       5       -0.000011318656     0.000010758115    -0.000009144707
       6       -0.000557379309     0.000907597727    -0.000677142261
       7        0.000005979062     0.000006663535    -0.000000345456
       8       -0.000004741582     0.000000715088     0.000005764252
       9        0.000003767847     0.000001282748     0.000002746029
      10       -0.000001800640    -0.000003448388    -0.000001809819
      11       -0.000001126788     0.000001659058     0.000006225412
      12       -0.000000614160    -0.000001088728     0.000000240449
      13       -0.000004337627     0.000000452657     0.000001468412
      14        0.000002670138    -0.000005512149    -0.000000346660
      15        0.000001952210     0.000001614126     0.000001724320
      16        0.000002167708    -0.000001047735     0.000001904323
      17        0.000000786661     0.000002882557    -0.000005189075
      18       -0.000001500727    -0.000003274090     0.000000102702
      19        0.000000289372     0.000001301386     0.000000538829
      20       -0.000000927881     0.000001837497     0.000000039892
      21        0.000003214142    -0.000001099283    -0.000000915750
      22        0.000001145589    -0.000000757543     0.000000093529
      23       -0.000000808297    -0.000001175383     0.000007173407
      24       -0.000011760319    -0.000005540687     0.000000668400
      25        0.000002194150    -0.000007666040     0.000004373902

  **** Optimization is complete! (in 7 steps) ****
    Final optimized geometry and variables:
    Molecular point group: c1

    Geometry (in Angstrom), charge = 0, multiplicity = 1:

    O            2.976941007243     1.081622738107    -0.626241596494
    C            2.841522695020     0.125299495355     0.064889957747
    C            1.543166018448    -0.662022540414     0.083209985449
    C            3.963888722156    -0.387523416036     0.934006919400
    C            0.298933232633     0.221675707424     0.030572133484
    H            1.569313862079    -1.302486374924    -0.795811503457
    H            1.516328844493    -1.316375564040     0.947363372533
    C           -0.994233021102    -0.585090260763    -0.038739631155
    H            0.373666989838     0.878717966184    -0.826246909822
    H            0.279191098108     0.862974584855     0.907553715525
    C           -2.244303280565     0.288818937675    -0.082596330760
    H           -0.971714912618    -1.222879500901    -0.919308132519
    H           -1.053559958714    -1.252316935199     0.818206238940
    C           -3.541455569150    -0.511268195696    -0.160023852814
    H           -2.183909586532     0.957436384361    -0.937702795301
    H           -2.268569428708     0.925314296229     0.798769329074
    C           -4.786406775979     0.368436725400    -0.203855745994
    H           -3.518908435450    -1.146680285589    -1.041220999682
    H           -3.602922055599    -1.179300533750     0.694921592676
    H           -4.771450961388     1.024656109732    -1.067655808645
    H           -5.688630126562    -0.229842709155    -0.259003602793
    H           -4.856565087448     0.991685393664     0.681460137807
    H            4.147340574286    -1.436648192645     0.727673322063
    H            4.861548139239     0.185773289411     0.760769243026
    H            3.677326054538    -0.312454358795     1.978041759186

  Mulliken Charges: (a.u.)
   Center  Symbol    Alpha    Beta     Spin     Total
       1     O     4.17449  4.17449  0.00000 -0.34897
       2     C     2.85936  2.85936  0.00000  0.28127
       3     C     3.10828  3.10828  0.00000 -0.21656
       4     C     3.15293  3.15293  0.00000 -0.30585
       5     C     3.09052  3.09052  0.00000 -0.18103
       6     H     0.44413  0.44413  0.00000  0.11173
       7     H     0.44573  0.44573  0.00000  0.10854
       8     C     3.09021  3.09021  0.00000 -0.18042
       9     H     0.43814  0.43814  0.00000  0.12372
      10     H     0.45318  0.45318  0.00000  0.09364
      11     C     3.08643  3.08643  0.00000 -0.17286
      12     H     0.45426  0.45426  0.00000  0.09148
      13     H     0.45578  0.45578  0.00000  0.08844
      14     C     3.08437  3.08437  0.00000 -0.16874
      15     H     0.45292  0.45292  0.00000  0.09415
      16     H     0.45474  0.45474  0.00000  0.09053
      17     C     3.15037  3.15037  0.00000 -0.30074
      18     H     0.45464  0.45464  0.00000  0.09072
      19     H     0.45527  0.45527  0.00000  0.08946
      20     H     0.45449  0.45449  0.00000  0.09103
      21     H     0.44852  0.44852  0.00000  0.10296
      22     H     0.45512  0.45512  0.00000  0.08977
      23     H     0.44994  0.44994  0.00000  0.10013
      24     H     0.43628  0.43628  0.00000  0.12743
      25     H     0.44990  0.44990  0.00000  0.10020

   Total alpha = 36.00000, Total beta = 36.00000, Total charge = -0.00000

*** Psi4 exiting successfully. Buy a developer a beer!
