  ==> Input File <==

--------------------------------------------------------------------------
set {
	reference rhf
	basis 6-31G*
}

set_num_threads( 4 )
memory 2 gb

molecule MOL {
0 1

O	 -2.042549	 -1.228399	 -0.269030
C	 -1.653912	 -0.146171	 0.050137
C	 -0.332303	 0.024011	 0.778412
C	 -2.438579	 1.106236	 -0.272369
C	 0.850493	 -0.304933	 -0.146066
H	 -0.234163	 1.037175	 1.158216
H	 -0.332320	 -0.655831	 1.623242
C	 2.201961	 -0.175629	 0.558098
H	 0.833803	 0.352952	 -1.013242
H	 0.726172	 -1.316576	 -0.520582
C	 3.379486	 -0.510848	 -0.356379
H	 2.315993	 0.837074	 0.938697
H	 2.218127	 -0.832533	 1.424576
H	 3.410257	 0.152309	 -1.216221
H	 3.309938	 -1.529347	 -0.726875
H	 4.323719	 -0.413663	 0.169934
H	 -3.277823	 0.863061	 -0.908988
H	 -1.806773	 1.843019	 -0.759671
H	 -2.802853	 1.554979	 0.648059

	symmetry c1
}
set optking {
	frozen_dihedral = ("
		5 3 2 4
	")
}

ee = optimize('scf')
oeprop('DIPOLE', 'QUADRUPOLE', 'MULLIKEN_CHARGES')
f=open( 'psi4out.xyz', 'w' )
f.write( "19  " )
f.write( str(ee) + "\n" )
f.write( MOL.save_string_xyz() )
f.close()
--------------------------------------------------------------------------

    Molecular point group: c1
  Charge       = 0
  Multiplicity = 1
  Basis Set: 6-31G*
  Basis Set:
  @DF-RHF Final Energy:  -309.06509089688467
    Total Energy =                       -309.0650908968847261
    Molecular point group: c1
  Basis Set: 6-31G*
  Basis Set:
  Basis Set: 6-31G*
  Basis Set:
  @DF-RHF Final Energy:  -309.06469475989758
    Total Energy =                       -309.0646947598978613
  Basis Set: 6-31G*
  Basis Set:
  Basis Set: 6-31G*
  Basis Set:
  @DF-RHF Final Energy:  -309.06510025467713
    Total Energy =                       -309.0651002546771906
  Basis Set: 6-31G*
  Basis Set:
  Basis Set: 6-31G*
  Basis Set:
  @DF-RHF Final Energy:  -309.06478698774328
    Total Energy =                       -309.0647869877436733
  Basis Set: 6-31G*
  Basis Set:
  Basis Set: 6-31G*
  Basis Set:
  @DF-RHF Final Energy:  -309.06513263938592
    Total Energy =                       -309.0651326393860359
  Basis Set: 6-31G*
  Basis Set:
  Basis Set: 6-31G*
  Basis Set:
  @DF-RHF Final Energy:  -309.06514121573559
    Total Energy =                       -309.0651412157355367
  Basis Set: 6-31G*
  Basis Set:
  Charge       = 0
  Multiplicity = 1
  Basis Set: 6-31G*
  Basis Set:

    Orbital Energies (a.u.)
    -----------------------

    Doubly Occupied:

       1A    -20.547655     2A    -11.325129     3A    -11.229741
       4A    -11.228633     5A    -11.227902     6A    -11.223515
       7A    -11.213766     8A     -1.393633     9A     -1.089667
      10A     -1.028973    11A     -0.984311    12A     -0.888678
      13A     -0.805309    14A     -0.732942    15A     -0.662582
      16A     -0.645628    17A     -0.622232    18A     -0.612505
      19A     -0.582443    20A     -0.572796    21A     -0.552823
      22A     -0.536400    23A     -0.514470    24A     -0.496027
      25A     -0.480494    26A     -0.474638    27A     -0.466493
      28A     -0.397179

  @DF-RHF Final Energy:  -309.06514124394141

   => Energetics <=

    Nuclear Repulsion Energy =            301.0970935425945072
    One-Electron Energy =               -1015.2513388896859396
    Two-Electron Energy =                 405.0891041031500777
    DFT Exchange-Correlation Energy =       0.0000000000000000
    Empirical Dispersion Energy =           0.0000000000000000
    PCM Polarization Energy =               0.0000000000000000
    EFP Energy =                            0.0000000000000000
    Total Energy =                       -309.0651412439413548
    Molecular point group: c1
  Basis Set: 6-31G*
  Basis Set:

  -Total Gradient:
     Atom            X                  Y                   Z
    ------   -----------------  -----------------  -----------------
       1       -0.000008680896    -0.000008696042     0.000000910291
       2       -0.000047285925     0.000023436660     0.000032015115
       3        0.000046724760     0.000038596828    -0.000088872063
       4        0.000033088488    -0.000010060346    -0.000097960372
       5        0.000015162962    -0.000065616337     0.000030244522
       6        0.000000336575    -0.000027712884     0.000029360620
       7        0.000013068660    -0.000007867429     0.000020300763
       8       -0.000001644385     0.000039468530    -0.000011857916
       9       -0.000033773596     0.000021179130     0.000022054586
      10       -0.000006392169     0.000024376084    -0.000013471902
      11        0.000001154748    -0.000030792127     0.000017470487
      12        0.000016554126     0.000010788944    -0.000007449573
      13       -0.000000959858     0.000012542129     0.000008081273
      14       -0.000001635977     0.000005645634     0.000010876109
      15       -0.000000751708    -0.000000955196    -0.000012325069
      16        0.000002576051    -0.000011662313     0.000001670442
      17       -0.000017575512     0.000000123915     0.000016145952
      18       -0.000006284888     0.000004972090     0.000018192844
      19       -0.000003681448    -0.000017767269     0.000024613892

  **** Optimization is complete! (in 7 steps) ****
    Final optimized geometry and variables:
    Molecular point group: c1

    Geometry (in Angstrom), charge = 0, multiplicity = 1:

    O           -2.041410301502    -1.052839492425    -0.306707444430
    C           -1.657087515841     0.032261588690     0.008056146690
    C           -0.333164815883     0.205275889396     0.734879684715
    C           -2.448660724690     1.279723097284    -0.312520781214
    C            0.851863134994    -0.117063080124    -0.186833680318
    H           -0.239321911881     1.213660547079     1.127027423030
    H           -0.332378632646    -0.479686664064     1.577106379912
    C            2.200858058347    -0.001990836482     0.524112680648
    H            0.839362703959     0.553334393841    -1.044664556854
    H            0.722595478888    -1.121856632691    -0.575622000593
    C            3.380252157976    -0.333248390477    -0.389456503653
    H            2.319431505930     1.005652959332     0.916804153839
    H            2.210675751489    -0.668749086224     1.383338382062
    H            3.418644900128     0.340420300688    -1.240777116111
    H            3.305574498196    -1.346483607961    -0.773122235737
    H            4.322983878659    -0.248728662847     0.141802081007
    H           -3.324076099340     1.024577022213    -0.893237169501
    H           -1.834371512555     1.986998718963    -0.862898052244
    H           -2.753391977394     1.769911827478     0.608302754090

  Mulliken Charges: (a.u.)
   Center  Symbol    Alpha    Beta     Spin     Total
       1     O     4.26293  4.26293  0.00000 -0.52586
       2     C     2.73653  2.73653  0.00000  0.52693
       3     C     3.20119  3.20119  0.00000 -0.40237
       4     C     3.28943  3.28943  0.00000 -0.57885
       5     C     3.15890  3.15890  0.00000 -0.31781
       6     H     0.41678  0.41678  0.00000  0.16644
       7     H     0.40175  0.40175  0.00000  0.19650
       8     C     3.15217  3.15217  0.00000 -0.30434
       9     H     0.42133  0.42133  0.00000  0.15734
      10     H     0.40450  0.40450  0.00000  0.19099
      11     C     3.24019  3.24019  0.00000 -0.48037
      12     H     0.42285  0.42285  0.00000  0.15431
      13     H     0.41994  0.41994  0.00000  0.16012
      14     H     0.42116  0.42116  0.00000  0.15767
      15     H     0.41877  0.41877  0.00000  0.16246
      16     H     0.41782  0.41782  0.00000  0.16435
      17     H     0.39714  0.39714  0.00000  0.20573
      18     H     0.40928  0.40928  0.00000  0.18143
      19     H     0.40734  0.40734  0.00000  0.18533

   Total alpha = 28.00000, Total beta = 28.00000, Total charge = -0.00000
