  ==> Input File <==

--------------------------------------------------------------------------
set {
	reference rhf
	basis 6-31G*
}

set_num_threads( 4 )
memory 2 gb

molecule MOL {
0 1

O	 -1.433945	 -0.347632	 -0.916188
C	 -1.083277	 0.139568	 0.115197
C	 0.323299	 -0.082943	 0.642902
C	 -2.020192	 0.976503	 0.957550
C	 1.355627	 -0.005344	 -0.493127
H	 0.396251	 -1.044647	 1.143147
H	 0.528637	 0.693580	 1.371677
C	 2.786168	 -0.195604	 0.007473
H	 1.132807	 -0.760304	 -1.243899
H	 1.259610	 0.958506	 -0.981915
H	 3.495561	 -0.130713	 -0.811210
H	 2.912696	 -1.165395	 0.480041
H	 3.049284	 0.565503	 0.735850
H	 -2.035649	 0.622192	 1.984143
H	 -3.018119	 0.945119	 0.542951
H	 -1.670803	 2.005420	 0.979018

	symmetry c1
}
set optking {
	frozen_dihedral = ("
		4 2 3 5
	")
}

ee = optimize('scf')
oeprop('DIPOLE', 'QUADRUPOLE', 'MULLIKEN_CHARGES')
f=open( 'psi4out.xyz', 'w' )
f.write( "16  " )
f.write( str(ee) + "\n" )
f.write( MOL.save_string_xyz() )
f.close()
--------------------------------------------------------------------------

    Molecular point group: c1
  Charge       = 0
  Multiplicity = 1
  Basis Set: 6-31G*
  Basis Set:
  @DF-RHF Final Energy:  -270.03012235508209
    Total Energy =                       -270.0301223550820851
    Molecular point group: c1
  Basis Set: 6-31G*
  Basis Set:
  Basis Set: 6-31G*
  Basis Set:
  @DF-RHF Final Energy:  -270.02967038977704
    Total Energy =                       -270.0296703897770954
  Basis Set: 6-31G*
  Basis Set:
  Basis Set: 6-31G*
  Basis Set:
  @DF-RHF Final Energy:  -270.03038363062501
    Total Energy =                       -270.0303836306250673
  Basis Set: 6-31G*
  Basis Set:
  Basis Set: 6-31G*
  Basis Set:
  @DF-RHF Final Energy:  -270.03106745537013
    Total Energy =                       -270.0310674553701347
  Basis Set: 6-31G*
  Basis Set:
  @DF-RHF Final Energy:  -270.03106873810532
    Total Energy =                       -270.0310687381053185
  @DF-RHF Final Energy:  -270.03107393054432
    Total Energy =                       -270.0310739305442667
  Basis Set: 6-31G*
  Basis Set:
  @DF-RHF Final Energy:  -270.03107612717247
    Total Energy =                       -270.0310761271722413
  Basis Set: 6-31G*
  Basis Set:
  Basis Set: 6-31G*
  Basis Set:
  @DF-RHF Final Energy:  -270.03107316058822
    Total Energy =                       -270.0310731605881642
  Basis Set: 6-31G*
  Basis Set:
  Basis Set: 6-31G*
  Basis Set:
  @DF-RHF Final Energy:  -270.03107642744544
    Total Energy =                       -270.0310764274453277
  Basis Set: 6-31G*
  Basis Set:
  Charge       = 0
  Multiplicity = 1
  Basis Set: 6-31G*
  Basis Set:

    Orbital Energies (a.u.)
    -----------------------

    Doubly Occupied:

       1A    -20.549158     2A    -11.326512     3A    -11.231492
       4A    -11.229075     5A    -11.223701     6A    -11.215130
       7A     -1.395102     8A     -1.077744     9A     -1.015313
      10A     -0.947545    11A     -0.825229    12A     -0.733052
      13A     -0.656947    14A     -0.648488    15A     -0.619278
      16A     -0.601043    17A     -0.570253    18A     -0.559957
      19A     -0.545577    20A     -0.506043    21A     -0.494906
      22A     -0.481230    23A     -0.473490    24A     -0.399484

  @DF-RHF Final Energy:  -270.03107646998615

   => Energetics <=

    Nuclear Repulsion Energy =            236.7407918750109843
    One-Electron Energy =                -834.8922394500575592
    Two-Electron Energy =                 328.1203711050605420
    DFT Exchange-Correlation Energy =       0.0000000000000000
    Empirical Dispersion Energy =           0.0000000000000000
    PCM Polarization Energy =               0.0000000000000000
    EFP Energy =                            0.0000000000000000
    Total Energy =                       -270.0310764699860897
    Molecular point group: c1
  Basis Set: 6-31G*
  Basis Set:

  -Total Gradient:
     Atom            X                  Y                   Z
    ------   -----------------  -----------------  -----------------
       1        0.000002044617    -0.000000920253    -0.000002847050
       2       -0.000395984445    -0.000870559047     0.000843817708
       3        0.000031393720    -0.001019556844    -0.000417469076
       4        0.000290348215     0.000865326892    -0.000541346703
       5        0.000074114806     0.001018843306     0.000121313134
       6       -0.000000516938     0.000002420091     0.000000648521
       7       -0.000002305271     0.000000870977     0.000003339221
       8       -0.000001741647    -0.000008009968    -0.000002966060
       9        0.000005064471     0.000001494712    -0.000004407194
      10       -0.000002677523     0.000002149701     0.000001771127
      11       -0.000000411935    -0.000003563387    -0.000000379613
      12       -0.000000522687     0.000001214213     0.000004243529
      13        0.000000474187     0.000002887698    -0.000003162637
      14       -0.000000092897     0.000003264733    -0.000000635582
      15        0.000001055090     0.000001036042    -0.000000661890
      16       -0.000000241761     0.000003101134    -0.000001257434

  **** Optimization is complete! (in 10 steps) ****
    Final optimized geometry and variables:
    Molecular point group: c1

    Geometry (in Angstrom), charge = 0, multiplicity = 1:

    O           -1.448795090412    -0.470615421916    -0.945365823039
    C           -1.086424180541     0.044548427951     0.068038327723
    C            0.340479522294    -0.116663539019     0.569652465628
    C           -2.021750138694     0.885353082438     0.907448165616
    C            1.379857658197    -0.058385725743    -0.552157139292
    H            0.389911382460    -1.081982463654     1.071758950555
    H            0.554582915376     0.633089185865     1.326437699135
    C            2.800955662878    -0.288678197621    -0.041368368871
    H            1.127321534101    -0.798311688020    -1.301803602280
    H            1.321701922584     0.909855500260    -1.042841047205
    H            3.518138511522    -0.237984236375    -0.854275369970
    H            2.897584188497    -1.265598873838     0.423932460213
    H            3.083993228454     0.457798576375     0.695626605421
    H           -2.021277020110     0.546015186993     1.939379881389
    H           -3.024190131915     0.838365643741     0.505433806293
    H           -1.680097258048     1.917106905259     0.909293931339

  Mulliken Charges: (a.u.)
   Center  Symbol    Alpha    Beta     Spin     Total
       1     O     4.26295  4.26295  0.00000 -0.52590
       2     C     2.73456  2.73456  0.00000  0.53089
       3     C     3.20640  3.20640  0.00000 -0.41280
       4     C     3.28850  3.28850  0.00000 -0.57700
       5     C     3.15360  3.15360  0.00000 -0.30721
       6     H     0.40377  0.40377  0.00000  0.19246
       7     H     0.41547  0.41547  0.00000  0.16906
       8     C     3.24129  3.24129  0.00000 -0.48258
       9     H     0.40237  0.40237  0.00000  0.19527
      10     H     0.41911  0.41911  0.00000  0.16178
      11     H     0.41565  0.41565  0.00000  0.16870
      12     H     0.42046  0.42046  0.00000  0.15908
      13     H     0.42239  0.42239  0.00000  0.15522
      14     H     0.40926  0.40926  0.00000  0.18148
      15     H     0.39710  0.39710  0.00000  0.20580
      16     H     0.40712  0.40712  0.00000  0.18575

   Total alpha = 24.00000, Total beta = 24.00000, Total charge =  0.00000
