  ==> Input File <==

--------------------------------------------------------------------------
set {
	reference rhf
	basis cc-pvtz
}

set_num_threads( 4 )
memory 2 gb

molecule MOL {
0 1

H	 3.290544	 -0.447647	 0.039969
C	 2.233400	 -0.262387	 0.030485
C	 1.565297	 -0.145304	 -1.179168
C	 1.546935	 -0.142086	 1.222043
H	 2.105693	 -0.240007	 -2.101012
C	 0.209182	 0.092350	 -1.195775
H	 2.066336	 -0.233109	 2.156073
C	 0.184998	 0.096588	 1.203750
H	 -0.324751	 0.185920	 -2.120338
C	 -0.486398	 0.214248	 0.000000
H	 -0.355500	 0.191309	 2.127365
C	 -1.946525	 0.470130	 0.000000
O	 -2.779618	 -0.371226	 0.000000
H	 -2.227127	 1.528393	 0.000000

	symmetry c1
}
set optking {
	frozen_dihedral = ("
		8 10 12 14
	")
}

ee = optimize('scf')
oeprop('DIPOLE', 'QUADRUPOLE', 'MULLIKEN_CHARGES')
f=open( 'psi4out.xyz', 'w' )
f.write( "14  " )
f.write( str(ee) + "\n" )
f.write( MOL.save_string_xyz() )
f.close()
--------------------------------------------------------------------------

    Molecular point group: c1
  Charge       = 0
  Multiplicity = 1
  Basis Set: CC-PVTZ
  Basis Set:
  @DF-RHF Final Energy:  -343.53662870196808
    Total Energy =                       -343.5366287019678566
    Molecular point group: c1
  Basis Set: CC-PVTZ
  Basis Set:
  Basis Set: CC-PVTZ
  Basis Set:
  @DF-RHF Final Energy:  -343.53701495295769
    Total Energy =                       -343.5370149529575770
  Basis Set: CC-PVTZ
  Basis Set:
  Basis Set: CC-PVTZ
  Basis Set:
  @DF-RHF Final Energy:  -343.53703044050707
    Total Energy =                       -343.5370304405074648
  Basis Set: CC-PVTZ
  Basis Set:
  Basis Set: CC-PVTZ
  Basis Set:
  @DF-RHF Final Energy:  -343.53699807417132
    Total Energy =                       -343.5369980741714926
  Basis Set: CC-PVTZ
  Basis Set:
  Charge       = 0
  Multiplicity = 1
  Basis Set: CC-PVTZ
  Basis Set:

    Orbital Energies (a.u.)
    -----------------------

    Doubly Occupied:

       1A    -20.564390     2A    -11.333192     3A    -11.251461
       4A    -11.245333     5A    -11.245191     6A    -11.242662
       7A    -11.242254     8A    -11.240314     9A     -1.418567
      10A     -1.174636    11A     -1.048997    12A     -1.033162
      13A     -0.890159    14A     -0.844820    15A     -0.798497
      16A     -0.725541    17A     -0.681286    18A     -0.656819
      19A     -0.647021    20A     -0.620619    21A     -0.603907
      22A     -0.539594    23A     -0.532410    24A     -0.518745
      25A     -0.505777    26A     -0.426171    27A     -0.352113
      28A     -0.351203

  @DF-RHF Final Energy:  -343.53703441011874

   => Energetics <=

    Nuclear Repulsion Energy =            323.0502160473121194
    One-Electron Energy =               -1105.7048240976732814
    Two-Electron Energy =                 439.1175736402426537
    DFT Exchange-Correlation Energy =       0.0000000000000000
    Empirical Dispersion Energy =           0.0000000000000000
    PCM Polarization Energy =               0.0000000000000000
    EFP Energy =                            0.0000000000000000
    Total Energy =                       -343.5370344101185083
    Molecular point group: c1
  Basis Set: CC-PVTZ
  Basis Set:

  -Total Gradient:
     Atom            X                  Y                   Z
    ------   -----------------  -----------------  -----------------
       1       -0.000011138902    -0.000004283883    -0.000013870126
       2        0.000022683533    -0.000051091001     0.000254930565
       3       -0.000167900874     0.000093971174    -0.000126905735
       4        0.000224014478    -0.000009557520    -0.000138183218
       5        0.000004762209    -0.000015793229    -0.000006630021
       6        0.000070847693    -0.000035434106    -0.000067549810
       7       -0.000017015435    -0.000001236639     0.000029787384
       8       -0.000232979676     0.000163645674    -0.000109521183
       9        0.000022354460    -0.000004195759     0.000003465494
      10        0.000113101522    -0.000156072450     0.000217935861
      11        0.000028046278    -0.000013749917    -0.000001333874
      12       -0.000141785782     0.000067363581    -0.000163673099
      13        0.000030943391     0.000003333253    -0.000008632820
      14        0.000054067103    -0.000036899179     0.000130180581

  **** Optimization is complete! (in 5 steps) ****
    Final optimized geometry and variables:
    Molecular point group: c1

    Geometry (in Angstrom), charge = 0, multiplicity = 1:

    H            3.300442169522    -0.439492044184     0.023848062916
    C            2.243707542522    -0.253710274876     0.015955848072
    C            1.570716243928    -0.135390645657    -1.185610280291
    C            1.552963552156    -0.133590408197     1.206477363219
    H            2.103211600113    -0.231257261962    -2.112239189881
    C            0.209933209484     0.102920382673    -1.197604927011
    H            2.071042841112    -0.227636452567     2.141441126819
    C            0.191511207913     0.104478404178     1.197538180227
    H           -0.310543544514     0.189310985488    -2.132796342018
    C           -0.482832156410     0.218189763263    -0.005039642965
    H           -0.343052510739     0.191535859726     2.124648950145
    C           -1.958935120562     0.487172822891    -0.016445901616
    O           -2.784146165796    -0.357260170687    -0.012553588413
    H           -2.249467270628     1.543019887791    -0.027492939984

  Mulliken Charges: (a.u.)
   Center  Symbol    Alpha    Beta     Spin     Total
       1     H     0.42090  0.42090  0.00000  0.15820
       2     C     3.08474  3.08474  0.00000 -0.16949
       3     C     3.06320  3.06320  0.00000 -0.12640
       4     C     3.06317  3.06317  0.00000 -0.12634
       5     H     0.42101  0.42101  0.00000  0.15799
       6     C     3.09887  3.09887  0.00000 -0.19774
       7     H     0.42101  0.42101  0.00000  0.15797
       8     C     3.09891  3.09891  0.00000 -0.19782
       9     H     0.42289  0.42289  0.00000  0.15423
      10     C     2.93626  2.93626  0.00000  0.12748
      11     H     0.42274  0.42274  0.00000  0.15451
      12     C     2.93323  2.93323  0.00000  0.13354
      13     O     4.15480  4.15480  0.00000 -0.30961
      14     H     0.45826  0.45826  0.00000  0.08348

   Total alpha = 28.00000, Total beta = 28.00000, Total charge =  0.00000
