  ==> Input File <==

--------------------------------------------------------------------------
set {
	reference rhf
	basis 6-31G*
}

set_num_threads( 1 )
memory 2 gb

molecule MOL {
0 1

H	 -3.407059	 -1.043082	 0.000000
O	 -3.119761	 -0.140267	 0.000000
C	 -1.777559	 -0.059267	 0.000000
C	 -1.013181	 -0.416706	 -1.106781
C	 -1.165708	 0.400439	 1.159472
H	 -1.495305	 -0.772059	 -2.001538
C	 0.360782	 -0.312919	 -1.049546
H	 -1.776859	 0.669961	 1.999783
C	 0.209440	 0.498688	 1.201326
H	 0.962871	 -0.585219	 -1.895974
C	 0.988573	 0.145621	 0.104093
H	 0.684084	 0.854874	 2.099606
C	 2.459372	 0.256115	 0.163697
O	 3.198267	 -0.024611	 -0.728483
H	 2.856484	 0.626783	 1.114526

	symmetry c1
}
set optking {
	frozen_dihedral = ("
		7 11 13 14
	")
}

ee = energy('scf')
oeprop('DIPOLE', 'QUADRUPOLE', 'MULLIKEN_CHARGES')
f=open( 'psi4out.xyz', 'w' )
f.write( "15  " )
f.write( str(ee) + "\n" )
f.write( MOL.save_string_xyz() )
f.close()
--------------------------------------------------------------------------

    Molecular point group: c1

    Geometry (in Angstrom), charge = 0, multiplicity = 1:

       Center              X                  Y                   Z               Mass
    ------------   -----------------  -----------------  -----------------  -----------------
           H         -3.405448954132    -1.069760465856     0.038170357435     1.007825032070
           O         -3.118150954132    -0.166945465856     0.038170357435    15.994914619560
           C         -1.775948954132    -0.085945465856     0.038170357435    12.000000000000
           C         -1.011570954132    -0.443384465856    -1.068610642565    12.000000000000
           C         -1.164097954132     0.373760534144     1.197642357435    12.000000000000
           H         -1.493694954132    -0.798737465856    -1.963367642565     1.007825032070
           C          0.362392045868    -0.339597465856    -1.011375642565    12.000000000000
           H         -1.775248954132     0.643282534144     2.037953357435     1.007825032070
           C          0.211050045868     0.472009534144     1.239496357435    12.000000000000
           H          0.964481045868    -0.611897465856    -1.857803642565     1.007825032070
           C          0.990183045868     0.118942534144     0.142263357435    12.000000000000
           H          0.685694045868     0.828195534144     2.137776357435     1.007825032070
           C          2.460982045868     0.229436534144     0.201867357435    12.000000000000
           O          3.199877045868    -0.051289465856    -0.690312642565    15.994914619560
           H          2.858094045868     0.600104534144     1.152696357435     1.007825032070

  Charge       = 0
  Multiplicity = 1
  Basis Set: 6-31G*
  Basis Set:

    Orbital Energies (a.u.)
    -----------------------

    Doubly Occupied:

       1A    -20.596036     2A    -20.559434     3A    -11.330357
       4A    -11.314283     5A    -11.258908     6A    -11.253629
       7A    -11.243197     8A    -11.242624     9A    -11.240209
      10A     -1.421670    11A     -1.400034    12A     -1.169628
      13A     -1.040348    14A     -1.036686    15A     -0.888233
      16A     -0.858959    17A     -0.796588    18A     -0.754969
      19A     -0.708775    20A     -0.668871    21A     -0.648785
      22A     -0.630098    23A     -0.618941    24A     -0.606310
      25A     -0.560624    26A     -0.552749    27A     -0.538985
      28A     -0.495758    29A     -0.481205    30A     -0.421287
      31A     -0.355291    32A     -0.337300

  @DF-RHF Final Energy:  -418.28411364735757

   => Energetics <=

    Nuclear Repulsion Energy =            401.2938036750203992
    One-Electron Energy =               -1365.0943822484596240
    Two-Electron Energy =                 545.5164649260816532
    DFT Exchange-Correlation Energy =       0.0000000000000000
    Empirical Dispersion Energy =           0.0000000000000000
    PCM Polarization Energy =               0.0000000000000000
    EFP Energy =                            0.0000000000000000
    Total Energy =                       -418.2841136473575716

  Mulliken Charges: (a.u.)
   Center  Symbol    Alpha    Beta     Spin     Total
       1     H     0.26744  0.26744  0.00000  0.46513
       2     O     4.38145  4.38145  0.00000 -0.76290
       3     C     2.80545  2.80545  0.00000  0.38910
       4     C     3.12827  3.12827  0.00000 -0.25655
       5     C     3.12257  3.12257  0.00000 -0.24514
       6     H     0.39100  0.39100  0.00000  0.21801
       7     C     3.08364  3.08364  0.00000 -0.16728
       8     H     0.38804  0.38804  0.00000  0.22393
       9     C     3.09743  3.09743  0.00000 -0.19487
      10     H     0.37521  0.37521  0.00000  0.24958
      11     C     3.06182  3.06182  0.00000 -0.12364
      12     H     0.39087  0.39087  0.00000  0.21827
      13     C     2.83073  2.83073  0.00000  0.33853
      14     O     4.25225  4.25225  0.00000 -0.50449
      15     H     0.42384  0.42384  0.00000  0.15233

   Total alpha = 32.00000, Total beta = 32.00000, Total charge = -0.00000
