                              Psi4 1.0.54 Driver

  ==> Input File <==

--------------------------------------------------------------------------
set {
	reference rhf
	basis cc-pvtz
}

set_num_threads( 4 )
memory 2 gb

molecule MOL {
0 1

O	 -0.694481	 1.313155	 -0.204815
C	 -0.862519	 0.151932	 -0.046791
C	 -2.171428	 -0.477048	 0.339095
O	 0.085519	 -0.757083	 -0.192238
H	 -2.467997	 -1.191667	 -0.417688
H	 -2.923379	 0.287970	 0.444097
H	 -2.053854	 -1.015120	 1.270901
C	 0.580045	 -1.421733	 0.964553
C	 -0.278216	 -2.613195	 1.335639
H	 0.641642	 -0.717881	 1.779792
H	 1.577296	 -1.735318	 0.694543
H	 0.165336	 -3.131988	 2.177997
H	 -1.274392	 -2.299588	 1.616114
H	 -0.348227	 -3.307295	 0.506835

	symmetry c1
}
set optking {
	frozen_dihedral = ("
		8 4 2 1
	")
}

ee,wfn = optimize('scf', return_wfn=True)
oeprop( wfn, 'DIPOLE', 'QUADRUPOLE', 'MULLIKEN_CHARGES')
f=open( 'psi4out.xyz', 'w' )
f.write( "14  " )
f.write( str(ee) + "\n" )
f.write( MOL.save_string_xyz() )
f.close()
--------------------------------------------------------------------------

    Molecular point group: c1
  Charge       = 0
  Multiplicity = 1
  Basis Set: CC-PVTZ
  Basis Set:
  @DF-RHF Final Energy:  -305.95598338168975
    Total Energy =                       -305.9559833816896344
    Molecular point group: c1
  Basis Set: CC-PVTZ
  Basis Set:
  Basis Set: CC-PVTZ
  Basis Set:
  @DF-RHF Final Energy:  -305.96627677080403
    Total Energy =                       -305.9662767708042566
  Basis Set: CC-PVTZ
  Basis Set:
  Basis Set: CC-PVTZ
  Basis Set:
  @DF-RHF Final Energy:  -305.96799067733230
    Total Energy =                       -305.9679906773322955
  Basis Set: CC-PVTZ
  Basis Set:
  Basis Set: CC-PVTZ
  Basis Set:
  @DF-RHF Final Energy:  -305.95564003392587
    Total Energy =                       -305.9556400339259881
  Basis Set: CC-PVTZ
  Basis Set:
  @DF-RHF Final Energy:  -305.96893885559740
    Total Energy =                       -305.9689388555970027
  @DF-RHF Final Energy:  -305.96926930123755
    Total Energy =                       -305.9692693012374320
  @DF-RHF Final Energy:  -305.96987632202911
    Total Energy =                       -305.9698763220288242
  @DF-RHF Final Energy:  -305.97018662955651
    Total Energy =                       -305.9701866295565651
  @DF-RHF Final Energy:  -305.97045689210734
    Total Energy =                       -305.9704568921073360
  @DF-RHF Final Energy:  -305.97061037347510
    Total Energy =                       -305.9706103734752105
  @DF-RHF Final Energy:  -305.97101622005175
    Total Energy =                       -305.9710162200515242
  @DF-RHF Final Energy:  -305.97118814216236
    Total Energy =                       -305.9711881421621342
  @DF-RHF Final Energy:  -305.97124518393605
    Total Energy =                       -305.9712451839359346
  @DF-RHF Final Energy:  -305.97138743971709
    Total Energy =                       -305.9713874397172049
  @DF-RHF Final Energy:  -305.97156884046933
    Total Energy =                       -305.9715688404695584
  @DF-RHF Final Energy:  -305.97063671329227
    Total Energy =                       -305.9706367132922651
  @DF-RHF Final Energy:  -305.96681076379218
    Total Energy =                       -305.9668107637923526
  @DF-RHF Final Energy:  -305.97199819408172
    Total Energy =                       -305.9719981940816069
  @DF-RHF Final Energy:  -305.96762515261310
    Total Energy =                       -305.9676251526130955
  @DF-RHF Final Energy:  -305.97204603232046
    Total Energy =                       -305.9720460323203497
  @DF-RHF Final Energy:  -305.97222236238122
    Total Energy =                       -305.9722223623811033
  @DF-RHF Final Energy:  -305.97232801163841
    Total Energy =                       -305.9723280116384103
  @DF-RHF Final Energy:  -305.97241458102167
    Total Energy =                       -305.9724145810216669
  @DF-RHF Final Energy:  -305.97248363080399
    Total Energy =                       -305.9724836308040494
  @DF-RHF Final Energy:  -305.97253451659941
    Total Energy =                       -305.9725345165995236
  @DF-RHF Final Energy:  -305.97256976569133
    Total Energy =                       -305.9725697656913894
  @DF-RHF Final Energy:  -305.97259197026364
    Total Energy =                       -305.9725919702632950
  Basis Set: CC-PVTZ
  Basis Set:
  @DF-RHF Final Energy:  -305.97259712969901
    Total Energy =                       -305.9725971296990110
  Basis Set: CC-PVTZ
  Basis Set:
  Basis Set: CC-PVTZ
  Basis Set:
  @DF-RHF Final Energy:  -305.97260051577143
    Total Energy =                       -305.9726005157714326
  Basis Set: CC-PVTZ
  Basis Set:
  Basis Set: CC-PVTZ
  Basis Set:
  @DF-RHF Final Energy:  -305.97260248669966
    Total Energy =                       -305.9726024866996568
  Basis Set: CC-PVTZ
  Basis Set:
  Charge       = 0
  Multiplicity = 1
  Basis Set: CC-PVTZ
  Basis Set:

    Orbital Energies (a.u.)
    -----------------------

    Doubly Occupied:

       1A    -20.578372     2A    -20.543105     3A    -11.370026
       4A    -11.296061     5A    -11.237448     6A    -11.223984
       7A     -1.461449     8A     -1.370297     9A     -1.050388
      10A     -1.011255    11A     -0.876815    12A     -0.783762
      13A     -0.699477    14A     -0.691351    15A     -0.653684
      16A     -0.631995    17A     -0.586977    18A     -0.573281
      19A     -0.556210    20A     -0.540682    21A     -0.522098
      22A     -0.491689    23A     -0.458034    24A     -0.440791

  @DF-RHF Final Energy:  -305.97260293038551

   => Energetics <=

    Nuclear Repulsion Energy =            245.2032277563137939
    One-Electron Energy =                -903.0531993720891251
    Two-Electron Energy =                 351.8773686853900244
    DFT Exchange-Correlation Energy =       0.0000000000000000
    Empirical Dispersion Energy =           0.0000000000000000
    PCM Polarization Energy =               0.0000000000000000
    EFP Energy =                            0.0000000000000000
    Total Energy =                       -305.9726029303852783
    Molecular point group: c1
  Basis Set: CC-PVTZ
  Basis Set:

  -Total Gradient:
     Atom            X                  Y                   Z
    ------   -----------------  -----------------  -----------------
       1        0.000786203482     0.000024194004     0.000982134788
       2       -0.000644536703    -0.000001479556    -0.001579221857
       3        0.000032833333    -0.000027009666    -0.000016628358
       4       -0.001119532190    -0.000054759295     0.000919158614
       5       -0.000039545975    -0.000019816703    -0.000013583130
       6        0.000003199590     0.000037173211    -0.000007485897
       7        0.000010166501    -0.000010590799     0.000035198124
       8        0.000976833264     0.000039623138    -0.000310354547
       9       -0.000004023181     0.000013296193     0.000000154958
      10       -0.000002668134     0.000001479012    -0.000008073795
      11        0.000003449962     0.000003971726    -0.000001041014
      12       -0.000001482067    -0.000000233190     0.000000673948
      13       -0.000001356147    -0.000005639344    -0.000002496241
      14        0.000000458267    -0.000000208729     0.000001564403

  **** Optimization is complete! (in 31 steps) ****
    Final optimized geometry and variables:
    Molecular point group: c1

    Geometry (in Angstrom), charge = 0, multiplicity = 1:

    O            0.634858333838     1.580008705411    -0.997608129919
    C           -0.130700686206     0.942668360950    -0.372821929201
    C           -1.258709351740     1.537216473018     0.428240063126
    O           -0.076930970530    -0.402246194021    -0.374446186733
    H           -2.195297809749     1.087147636029     0.124492803320
    H           -1.287818824220     2.603584080848     0.274183394530
    H           -1.121682348566     1.332347337529     1.482909644731
    C            0.340957442915    -1.069053028617     0.802785593621
    C            0.484708778163    -2.538298245255     0.481996614687
    H           -0.387496404023    -0.923648339564     1.592912520517
    H            1.288125011148    -0.654316118502     1.129677531575
    H            0.801919791814    -3.079695562742     1.365620254717
    H           -0.459516506722    -2.947853665343     0.146481129181
    H            1.219456005635    -2.684961358659    -0.298315474810

  Mulliken Charges: (a.u.)
   Center  Symbol    Alpha    Beta     Spin     Total
       1     O     4.16807  4.16807  0.00000 -0.33614
       2     C     2.80736  2.80736  0.00000  0.38527
       3     C     3.15369  3.15369  0.00000 -0.30738
       4     O     4.16060  4.16060  0.00000 -0.32120
       5     H     0.44248  0.44248  0.00000  0.11504
       6     H     0.43322  0.43322  0.00000  0.13356
       7     H     0.45032  0.45032  0.00000  0.09935
       8     C     2.97778  2.97778  0.00000  0.04445
       9     C     3.13299  3.13299  0.00000 -0.26599
      10     H     0.46290  0.46290  0.00000  0.07420
      11     H     0.45878  0.45878  0.00000  0.08243
      12     H     0.45695  0.45695  0.00000  0.08610
      13     H     0.44980  0.44980  0.00000  0.10039
      14     H     0.44505  0.44505  0.00000  0.10991

   Total alpha = 24.00000, Total beta = 24.00000, Total charge = -0.00000

*** Psi4 exiting successfully. Buy a developer a beer!
