  ==> Input File <==

--------------------------------------------------------------------------
set {
	reference rhf
	basis 6-31G*
}

set_num_threads( 1 )
memory 2 gb

molecule MOL {
0 1

H	 2.910789	 -1.154735	 -0.449557
N	 3.092854	 -0.246221	 -0.068770
C	 1.865559	 0.531981	 0.018834
H	 3.747829	 0.199130	 -0.683181
C	 0.645745	 -0.382037	 -0.029944
H	 1.841966	 1.207024	 -0.831236
H	 1.815756	 1.155410	 0.915079
C	 -0.679275	 0.379305	 0.025956
H	 0.698998	 -0.976915	 -0.937203
H	 0.693479	 -1.083846	 0.802235
C	 -1.903357	 -0.536963	 -0.023547
H	 -0.726309	 1.082987	 -0.803784
H	 -0.717680	 0.977832	 0.934877
C	 -3.225172	 0.228290	 0.028445
H	 -1.867824	 -1.134999	 -0.931459
H	 -1.860449	 -1.239604	 0.805977
H	 -3.313397	 0.915643	 -0.808262
H	 -4.073500	 -0.448134	 -0.008893
H	 -3.306061	 0.809945	 0.942516

	symmetry c1
}
set optking {
	frozen_dihedral = ("
		6 3 5 9,
		12 8 5 9,
		12 8 11 15
	")
}

ee = energy('scf')
oeprop('DIPOLE', 'QUADRUPOLE', 'MULLIKEN_CHARGES')
f=open( 'psi4out.xyz', 'w' )
f.write( "19  " )
f.write( str(ee) + "\n" )
f.write( MOL.save_string_xyz() )
f.close()
--------------------------------------------------------------------------

    Molecular point group: c1

    Geometry (in Angstrom), charge = 0, multiplicity = 1:

       Center              X                  Y                   Z               Mass
    ------------   -----------------  -----------------  -----------------  -----------------
           H          2.915811266760    -1.149123630960    -0.429039263698     1.007825032070
           N          3.097876266760    -0.240609630960    -0.048252263698    14.003074004780
           C          1.870581266760     0.537592369040     0.039351736302    12.000000000000
           H          3.752851266760     0.204741369040    -0.662663263698     1.007825032070
           C          0.650767266760    -0.376425630960    -0.009426263698    12.000000000000
           H          1.846988266760     1.212635369040    -0.810718263698     1.007825032070
           H          1.820778266760     1.161021369040     0.935596736302     1.007825032070
           C         -0.674252733240     0.384916369040     0.046473736302    12.000000000000
           H          0.704020266760    -0.971303630960    -0.916685263698     1.007825032070
           H          0.698501266760    -1.078234630960     0.822752736302     1.007825032070
           C         -1.898334733240    -0.531351630960    -0.003029263698    12.000000000000
           H         -0.721286733240     1.088598369040    -0.783266263698     1.007825032070
           H         -0.712657733240     0.983443369040     0.955394736302     1.007825032070
           C         -3.220149733240     0.233901369040     0.048962736302    12.000000000000
           H         -1.862801733240    -1.129387630960    -0.910941263698     1.007825032070
           H         -1.855426733240    -1.233992630960     0.826494736302     1.007825032070
           H         -3.308374733240     0.921254369040    -0.787744263698     1.007825032070
           H         -4.068477733240    -0.442522630960     0.011624736302     1.007825032070
           H         -3.301038733240     0.815556369040     0.963033736302     1.007825032070

  Charge       = 0
  Multiplicity = 1
  Basis Set: 6-31G*
  Basis Set:

    Orbital Energies (a.u.)
    -----------------------

    Doubly Occupied:

       1A    -15.528964     2A    -11.239553     3A    -11.216805
       4A    -11.216351     5A    -11.215826     6A    -11.209517
       7A     -1.176803     8A     -1.075656     9A     -1.000228
      10A     -0.901041    11A     -0.817856    12A     -0.794312
      13A     -0.658191    14A     -0.647741    15A     -0.609732
      16A     -0.598710    17A     -0.565521    18A     -0.546147
      19A     -0.539158    20A     -0.498783    21A     -0.488106
      22A     -0.469377    23A     -0.464861    24A     -0.451711
      25A     -0.374956

  @DF-RHF Final Energy:  -251.34654291015895

   => Energetics <=

    Nuclear Repulsion Energy =            246.0247546786717123
    One-Electron Energy =                -826.1308979472341889
    Two-Electron Energy =                 328.7596003584035316
    DFT Exchange-Correlation Energy =       0.0000000000000000
    Empirical Dispersion Energy =           0.0000000000000000
    PCM Polarization Energy =               0.0000000000000000
    EFP Energy =                            0.0000000000000000
    Total Energy =                       -251.3465429101589734

  Mulliken Charges: (a.u.)
   Center  Symbol    Alpha    Beta     Spin     Total
       1     H     0.33257  0.33257  0.00000  0.33486
       2     N     3.92817  3.92817  0.00000 -0.85634
       3     C     3.04559  3.04559  0.00000 -0.09118
       4     H     0.33314  0.33314  0.00000  0.33372
       5     C     3.16734  3.16734  0.00000 -0.33469
       6     H     0.43257  0.43257  0.00000  0.13486
       7     H     0.42117  0.42117  0.00000  0.15766
       8     C     3.15377  3.15377  0.00000 -0.30754
       9     H     0.42605  0.42605  0.00000  0.14791
      10     H     0.41609  0.41609  0.00000  0.16783
      11     C     3.15132  3.15132  0.00000 -0.30264
      12     H     0.42358  0.42358  0.00000  0.15285
      13     H     0.42165  0.42165  0.00000  0.15671
      14     C     3.23949  3.23949  0.00000 -0.47899
      15     H     0.42323  0.42323  0.00000  0.15354
      16     H     0.42211  0.42211  0.00000  0.15578
      17     H     0.42185  0.42185  0.00000  0.15631
      18     H     0.41900  0.41900  0.00000  0.16199
      19     H     0.42132  0.42132  0.00000  0.15737

   Total alpha = 25.00000, Total beta = 25.00000, Total charge = -0.00000
