  ==> Input File <==

--------------------------------------------------------------------------
set {
	reference rhf
	basis cc-pvtz
}

set_num_threads( 4 )
memory 2 gb

molecule MOL {
0 1

H	 2.867672	 -0.456275	 0.875795
C	 2.403497	 -0.020426	 0.000000
N	 0.989899	 -0.304564	 0.000000
H	 2.867672	 -0.456275	 -0.875795
H	 2.620366	 1.051270	 0.000000
C	 0.401572	 -0.185759	 -1.318076
C	 0.263212	 0.502583	 0.958127
H	 0.506384	 0.829701	 -1.712535
H	 0.913180	 -0.856397	 -1.998686
C	 -1.070044	 -0.548865	 -1.265697
H	 0.673302	 0.337005	 1.947641
H	 0.357618	 1.569818	 0.734872
C	 -1.204848	 0.121791	 0.952021
H	 -1.538016	 -0.374912	 -2.224535
H	 -1.175857	 -1.602756	 -1.016263
O	 -1.749853	 0.233478	 -0.329245
H	 -1.770262	 0.780520	 1.596234
H	 -1.317637	 -0.897395	 1.316215

	symmetry c1
}
set optking {
	frozen_dihedral = ("
		6 3 2 5
	")
}

ee = optimize('scf')
oeprop('DIPOLE', 'QUADRUPOLE', 'MULLIKEN_CHARGES')
f=open( 'psi4out.xyz', 'w' )
f.write( "18  " )
f.write( str(ee) + "\n" )
f.write( MOL.save_string_xyz() )
f.close()
--------------------------------------------------------------------------

    Molecular point group: c1
  Charge       = 0
  Multiplicity = 1
  Basis Set: CC-PVTZ
  Basis Set:
  @DF-RHF Final Energy:  -325.14463291671058
    Total Energy =                       -325.1446329167106910
    Molecular point group: c1
  Basis Set: CC-PVTZ
  Basis Set:
  Basis Set: CC-PVTZ
  Basis Set:
  @DF-RHF Final Energy:  -325.14479086153216
    Total Energy =                       -325.1447908615323286
  Basis Set: CC-PVTZ
  Basis Set:
  Basis Set: CC-PVTZ
  Basis Set:
  @DF-RHF Final Energy:  -325.14480889744272
    Total Energy =                       -325.1448088974426582
  Basis Set: CC-PVTZ
  Basis Set:
  Charge       = 0
  Multiplicity = 1
  Basis Set: CC-PVTZ
  Basis Set:

    Orbital Energies (a.u.)
    -----------------------

    Doubly Occupied:

       1A    -20.547556     2A    -15.543097     3A    -11.264333
       4A    -11.264211     5A    -11.242623     6A    -11.242585
       7A    -11.239184     8A     -1.386406     9A     -1.233197
      10A     -1.039417    11A     -0.982077    12A     -0.884436
      13A     -0.869661    14A     -0.773854    15A     -0.685064
      16A     -0.646947    17A     -0.645373    18A     -0.635340
      19A     -0.629939    20A     -0.573885    21A     -0.557774
      22A     -0.541251    23A     -0.527843    24A     -0.501349
      25A     -0.486564    26A     -0.454086    27A     -0.410734
      28A     -0.352282

  @DF-RHF Final Energy:  -325.14480978423717

   => Energetics <=

    Nuclear Repulsion Energy =            341.8088618380425032
    One-Electron Energy =               -1119.5852038207885926
    Two-Electron Energy =                 452.6315321985093760
    DFT Exchange-Correlation Energy =       0.0000000000000000
    Empirical Dispersion Energy =           0.0000000000000000
    PCM Polarization Energy =               0.0000000000000000
    EFP Energy =                            0.0000000000000000
    Total Energy =                       -325.1448097842367133
    Molecular point group: c1
  Basis Set: CC-PVTZ
  Basis Set:

  -Total Gradient:
     Atom            X                  Y                   Z
    ------   -----------------  -----------------  -----------------
       1       -0.000002948393    -0.000004207771     0.000020435533
       2        0.000320323004    -0.000993951240    -0.004604371251
       3       -0.000641615171     0.003466368316     0.001566360242
       4       -0.000039500674    -0.000016572706     0.000011393346
       5       -0.000058761282     0.000025594619     0.003422092884
       6        0.000450429363    -0.002506586615    -0.000445556673
       7       -0.000016253833     0.000061954540     0.000024092393
       8       -0.000009068727    -0.000034367479     0.000030001710
       9        0.000006373774    -0.000003174337     0.000012362058
      10       -0.000011109085     0.000032605279    -0.000034352175
      11        0.000002540215    -0.000010291140    -0.000012863927
      12       -0.000001056686    -0.000014419574     0.000005100961
      13        0.000012596131    -0.000004100271     0.000001202094
      14       -0.000030290833    -0.000008554896    -0.000018631664
      15        0.000018714285     0.000021980118     0.000003903766
      16        0.000015280657    -0.000018097916     0.000011559279
      17       -0.000014459603     0.000002021639     0.000004205992
      18       -0.000001193145     0.000003799436     0.000003065432

  **** Optimization is complete! (in 4 steps) ****
    Final optimized geometry and variables:
    Molecular point group: c1

    Geometry (in Angstrom), charge = 0, multiplicity = 1:

    H            2.842946940240    -0.418341463898     1.050239659258
    C            2.403542285983    -0.004135512793     0.149602374576
    N            0.984831647632    -0.263874364951     0.133036177974
    H            2.880318645056    -0.474417566342    -0.699653434002
    H            2.639596621342     1.062894653256     0.139477839340
    C            0.392305944059    -0.157991041869    -1.183111967965
    C            0.260054611214     0.523790067975     1.104971667887
    H            0.487260809288     0.853552007498    -1.590828593048
    H            0.902476067163    -0.833822994941    -1.859081207640
    C           -1.077275531800    -0.528964235672    -1.118246016597
    H            0.677996802512     0.348098522496     2.089976827411
    H            0.347628441019     1.594594524362     0.895824449385
    C           -1.205919860916     0.134797422447     1.102308693941
    H           -1.554212876704    -0.359666801388    -2.073602284566
    H           -1.174002664620    -1.583216973540    -0.866258147113
    O           -1.754729996085     0.249711804796    -0.176991645458
    H           -1.773031542160     0.787355402840     1.751433159927
    H           -1.312229908992    -0.886762786680     1.461882621123

  Mulliken Charges: (a.u.)
   Center  Symbol    Alpha    Beta     Spin     Total
       1     H     0.45073  0.45073  0.00000  0.09853
       2     C     3.09448  3.09448  0.00000 -0.18896
       3     N     3.61724  3.61724  0.00000 -0.23449
       4     H     0.45263  0.45263  0.00000  0.09473
       5     H     0.46867  0.46867  0.00000  0.06266
       6     C     3.03912  3.03912  0.00000 -0.07823
       7     C     3.04110  3.04110  0.00000 -0.08220
       8     H     0.47012  0.47012  0.00000  0.05976
       9     H     0.45404  0.45404  0.00000  0.09192
      10     C     2.98387  2.98387  0.00000  0.03227
      11     H     0.45441  0.45441  0.00000  0.09119
      12     H     0.46838  0.46838  0.00000  0.06324
      13     C     2.98336  2.98336  0.00000  0.03328
      14     H     0.44980  0.44980  0.00000  0.10039
      15     H     0.46790  0.46790  0.00000  0.06420
      16     O     4.18650  4.18650  0.00000 -0.37300
      17     H     0.44990  0.44990  0.00000  0.10021
      18     H     0.46775  0.46775  0.00000  0.06450

   Total alpha = 28.00000, Total beta = 28.00000, Total charge =  0.00000
