  ==> Input File <==

--------------------------------------------------------------------------
set {
	reference rhf
	basis 6-31G*
}

set_num_threads( 4 )
memory 2 gb

molecule MOL {
0 1

H	 5.268524	 0.192471	 1.070992
C	 4.673736	 -0.214914	 0.259335
C	 3.185378	 -0.203514	 0.605509
H	 4.871837	 0.380453	 -0.627026
H	 5.025590	 -1.224632	 0.065769
C	 2.317601	 -0.778379	 -0.516234
H	 2.874655	 0.814325	 0.817774
H	 3.023650	 -0.778480	 1.515976
C	 2.948580	 -1.972836	 -1.232060
H	 1.355222	 -1.076204	 -0.115272
H	 2.127174	 -0.000490	 -1.252214
C	 2.998569	 -3.246585	 -0.401214
H	 2.375637	 -2.209206	 -2.127401
H	 3.950907	 -1.732539	 -1.579585
C	 3.937690	 -4.348270	 -0.860621
O	 2.314067	 -3.389334	 0.567025
C	 3.593803	 -4.915833	 -2.245820
H	 3.895801	 -5.132064	 -0.113876
H	 4.952278	 -3.954441	 -0.874518
C	 4.497629	 -6.087460	 -2.634405
H	 2.556787	 -5.244749	 -2.251101
H	 3.677266	 -4.137353	 -2.999792
C	 4.165197	 -6.661044	 -4.011139
H	 4.411294	 -6.870660	 -1.885268
H	 5.535302	 -5.761294	 -2.618756
H	 3.142627	 -7.025394	 -4.047527
H	 4.276227	 -5.909267	 -4.787422
H	 4.820502	 -7.490197	 -4.258037

	symmetry c1
}
set optking {
	frozen_dihedral = ("
		10 6 3 2
	")
}

ee = optimize('scf')
oeprop('DIPOLE', 'QUADRUPOLE', 'MULLIKEN_CHARGES')
f=open( 'psi4out.xyz', 'w' )
f.write( "28  " )
f.write( str(ee) + "\n" )
f.write( MOL.save_string_xyz() )
f.close()
--------------------------------------------------------------------------

    Molecular point group: c1
  Charge       = 0
  Multiplicity = 1
  Basis Set: 6-31G*
  Basis Set:
  @DF-RHF Final Energy:  -426.16259340214344
    Total Energy =                       -426.1625934021438979
    Molecular point group: c1
  Basis Set: 6-31G*
  Basis Set:
  Basis Set: 6-31G*
  Basis Set:
  @DF-RHF Final Energy:  -426.16438444109633
    Total Energy =                       -426.1643844410968995
  Basis Set: 6-31G*
  Basis Set:
  Basis Set: 6-31G*
  Basis Set:
  @DF-RHF Final Energy:  -426.16510577274994
    Total Energy =                       -426.1651057727498255
  Basis Set: 6-31G*
  Basis Set:
  Basis Set: 6-31G*
  Basis Set:
  @DF-RHF Final Energy:  -426.16516593221195
    Total Energy =                       -426.1651659322121759
  Basis Set: 6-31G*
  Basis Set:
  Basis Set: 6-31G*
  Basis Set:
  @DF-RHF Final Energy:  -426.16523924274111
    Total Energy =                       -426.1652392427419045
  Basis Set: 6-31G*
  Basis Set:
  Basis Set: 6-31G*
  Basis Set:
  @DF-RHF Final Energy:  -426.16527373849260
    Total Energy =                       -426.1652737384927150
  Basis Set: 6-31G*
  Basis Set:
  Basis Set: 6-31G*
  Basis Set:
  @DF-RHF Final Energy:  -426.16528053811635
    Total Energy =                       -426.1652805381158942
  Basis Set: 6-31G*
  Basis Set:
  Charge       = 0
  Multiplicity = 1
  Basis Set: 6-31G*
  Basis Set:

    Orbital Energies (a.u.)
    -----------------------

    Doubly Occupied:

       1A    -20.548119     2A    -11.321751     3A    -11.232311
       4A    -11.228747     5A    -11.228717     6A    -11.225982
       7A    -11.217292     8A    -11.216211     9A    -11.211634
      10A    -11.210123    11A     -1.393027    12A     -1.094973
      13A     -1.076433    14A     -1.020979    15A     -0.988349
      16A     -0.912348    17A     -0.880989    18A     -0.808838
      19A     -0.792269    20A     -0.718126    21A     -0.667551
      22A     -0.652777    23A     -0.637387    24A     -0.620075
      25A     -0.609284    26A     -0.596196    27A     -0.577415
      28A     -0.554812    29A     -0.544626    30A     -0.537663
      31A     -0.529263    32A     -0.507836    33A     -0.502004
      34A     -0.484781    35A     -0.478209    36A     -0.474526
      37A     -0.466623    38A     -0.462621    39A     -0.457370
      40A     -0.391131

  @DF-RHF Final Energy:  -426.16528066748197

   => Energetics <=

    Nuclear Repulsion Energy =            540.9156500096935360
    One-Electron Energy =               -1650.0031291699974645
    Two-Electron Energy =                 682.9221984928212805
    DFT Exchange-Correlation Energy =       0.0000000000000000
    Empirical Dispersion Energy =           0.0000000000000000
    PCM Polarization Energy =               0.0000000000000000
    EFP Energy =                            0.0000000000000000
    Total Energy =                       -426.1652806674826479
    Molecular point group: c1
  Basis Set: 6-31G*
  Basis Set:

  -Total Gradient:
     Atom            X                  Y                   Z
    ------   -----------------  -----------------  -----------------
       1        0.000016026441     0.000008664632    -0.000012179871
       2        0.000260270934    -0.003122526351     0.001272832016
       3        0.000007710957     0.003634774079    -0.001683803716
       4        0.000005902539    -0.000007019755     0.000015010868
       5       -0.000024733147    -0.000011692143     0.000000727084
       6       -0.001958835778     0.003735952828    -0.000500320242
       7        0.000020065163    -0.000020021723     0.000041745233
       8        0.000010691948    -0.000042379550     0.000041616824
       9       -0.000002458887     0.000005552353    -0.000050305299
      10        0.001718209646    -0.004178536572     0.000836034492
      11       -0.000021126783    -0.000019597561    -0.000024168890
      12       -0.000213963406    -0.000094049783    -0.000042487445
      13        0.000015368901     0.000081028719     0.000016811706
      14        0.000020420119     0.000022500649     0.000029181331
      15       -0.000156756590    -0.000102164817    -0.000051794369
      16        0.000056085124     0.000001356457     0.000089672327
      17        0.000176510019     0.000053008294    -0.000038490122
      18        0.000061911149    -0.000015235938    -0.000003762456
      19       -0.000020704304     0.000085889774    -0.000029077251
      20       -0.000013388316    -0.000017453649     0.000023411367
      21        0.000014850670     0.000110671892     0.000050440611
      22        0.000048489946    -0.000069543666    -0.000021352979
      23       -0.000025800935    -0.000014474811     0.000028047179
      24        0.000026495242    -0.000029612593     0.000018129868
      25       -0.000017340028     0.000001108074    -0.000011931010
      26       -0.000003384261    -0.000003903095    -0.000010975491
      27        0.000000398136     0.000005880342     0.000008207370
      28       -0.000000914497     0.000001823915     0.000008780866

  **** Optimization is complete! (in 8 steps) ****
    Final optimized geometry and variables:
    Molecular point group: c1

    Geometry (in Angstrom), charge = 0, multiplicity = 1:

    H            1.637832099292     3.532477775229     2.335515949732
    C            1.171792447889     3.036517566215     1.489988247376
    C           -0.345502896332     2.975494907142     1.677756770538
    H            1.448335796987     3.587337732695     0.594172790629
    H            1.610122778139     2.046084216988     1.419383382961
    C           -1.142709599797     2.414898798241     0.485835709266
    H           -0.719356623561     3.971912463982     1.896614553178
    H           -0.556628303957     2.370973951057     2.552917589772
    C           -0.514360054184     1.217186526811    -0.233926876081
    H           -2.112846317286     2.092486669289     0.845379252965
    H           -1.302708946183     3.197770567803    -0.250544783008
    C           -0.410524576288    -0.039159355590     0.616411436180
    H           -1.132505081946     0.960475614482    -1.093037112702
    H            0.462566402908     1.457446076708    -0.642046909393
    C            0.521719018840    -1.138487288434     0.137631338812
    O           -1.050260695280    -0.171120421959     1.616668412291
    C            0.108020281507    -1.752781602777    -1.207928837131
    H            0.536103355922    -1.900145066999     0.907951060928
    H            1.527011353340    -0.730020180854     0.052780533499
    C            0.995699365580    -2.933786141808    -1.605099030688
    H           -0.926104353017    -2.084884266234    -1.146582697455
    H            0.147164459902    -0.999409626894    -1.990479340096
    C            0.590420286719    -3.556740409380    -2.940210159302
    H            0.955812349427    -3.690497834284    -0.825415874393
    H            2.030695375198    -2.603199250964    -1.658858827133
    H           -0.430397330562    -3.926230129959    -2.906646122914
    H            0.653536258474    -2.832266954533    -3.747214512890
    H            1.235915333736    -4.391431959962    -3.194260963246

  Mulliken Charges: (a.u.)
   Center  Symbol    Alpha    Beta     Spin     Total
       1     H     0.41675  0.41675  0.00000  0.16650
       2     C     3.24308  3.24308  0.00000 -0.48617
       3     C     3.15766  3.15766  0.00000 -0.31531
       4     H     0.42392  0.42392  0.00000  0.15216
       5     H     0.42523  0.42523  0.00000  0.14954
       6     C     3.14953  3.14953  0.00000 -0.29907
       7     H     0.42109  0.42109  0.00000  0.15782
       8     H     0.40655  0.40655  0.00000  0.18689
       9     C     3.21571  3.21571  0.00000 -0.43141
      10     H     0.40681  0.40681  0.00000  0.18639
      11     H     0.42144  0.42144  0.00000  0.15712
      12     C     2.73153  2.73153  0.00000  0.53694
      13     H     0.40307  0.40307  0.00000  0.19386
      14     H     0.41062  0.41062  0.00000  0.17876
      15     C     3.20161  3.20161  0.00000 -0.40321
      16     O     4.26700  4.26700  0.00000 -0.53400
      17     C     3.16376  3.16376  0.00000 -0.32752
      18     H     0.39987  0.39987  0.00000  0.20025
      19     H     0.41290  0.41290  0.00000  0.17420
      20     C     3.15181  3.15181  0.00000 -0.30362
      21     H     0.41373  0.41373  0.00000  0.17254
      22     H     0.41854  0.41854  0.00000  0.16293
      23     C     3.24034  3.24034  0.00000 -0.48067
      24     H     0.41837  0.41837  0.00000  0.16326
      25     H     0.42140  0.42140  0.00000  0.15719
      26     H     0.41959  0.41959  0.00000  0.16081
      27     H     0.42120  0.42120  0.00000  0.15761
      28     H     0.41690  0.41690  0.00000  0.16621

   Total alpha = 40.00000, Total beta = 40.00000, Total charge = -0.00000
