  ==> Input File <==

--------------------------------------------------------------------------
set {
	reference rhf
	basis 6-31G*
}

set_num_threads( 4 )
memory 2 gb

molecule MOL {
0 1

O	 2.862325	 1.357334	 0.000267
C	 2.843464	 0.164689	 -0.000222
C	 1.546494	 -0.624492	 -0.000609
C	 4.124123	 -0.644674	 -0.000428
C	 0.291004	 0.242674	 0.000989
H	 1.557904	 -1.283758	 -0.867573
H	 1.558622	 -1.285963	 0.864672
C	 -0.994322	 -0.586602	 0.000262
H	 0.309117	 0.896430	 -0.865270
H	 0.309661	 0.894078	 0.869017
C	 -2.259874	 0.272531	 0.000494
H	 -1.004862	 -1.240012	 -0.870939
H	 -1.005220	 -1.241071	 0.870675
C	 -2.050297	 1.658921	 0.612059
H	 -3.046073	 -0.245790	 0.546621
H	 -2.620607	 0.381333	 -1.020795
C	 -3.318965	 2.511069	 0.608909
H	 -1.690840	 1.551453	 1.633365
H	 -1.265666	 2.178601	 0.066031
H	 -4.113071	 2.033856	 1.176196
H	 -3.138881	 3.487092	 1.048964
H	 -3.684252	 2.666435	 -0.402314
H	 4.165367	 -1.288615	 -0.874074
H	 4.976217	 0.020734	 -0.001915
H	 4.166763	 -1.286207	 0.874930

	symmetry c1
}
set optking {
	frozen_dihedral = ("
		15 11 8 12
	")
}

ee = optimize('scf')
oeprop('DIPOLE', 'QUADRUPOLE', 'MULLIKEN_CHARGES')
f=open( 'psi4out.xyz', 'w' )
f.write( "25  " )
f.write( str(ee) + "\n" )
f.write( MOL.save_string_xyz() )
f.close()
--------------------------------------------------------------------------

    Molecular point group: c1
  Charge       = 0
  Multiplicity = 1
  Basis Set: 6-31G*
  Basis Set:
  @DF-RHF Final Energy:  -387.12692217477309
    Total Energy =                       -387.1269221747730853
    Molecular point group: c1
  Basis Set: 6-31G*
  Basis Set:
  Basis Set: 6-31G*
  Basis Set:
  @DF-RHF Final Energy:  -387.12745056889088
    Total Energy =                       -387.1274505688907084
  Basis Set: 6-31G*
  Basis Set:
  Basis Set: 6-31G*
  Basis Set:
  @DF-RHF Final Energy:  -387.12967616035041
    Total Energy =                       -387.1296761603499590
  Basis Set: 6-31G*
  Basis Set:
  Basis Set: 6-31G*
  Basis Set:
  @DF-RHF Final Energy:  -387.12990612182716
    Total Energy =                       -387.1299061218271618
  Basis Set: 6-31G*
  Basis Set:
  Basis Set: 6-31G*
  Basis Set:
  @DF-RHF Final Energy:  -387.12983678580537
    Total Energy =                       -387.1298367858051961
  Basis Set: 6-31G*
  Basis Set:
  Basis Set: 6-31G*
  Basis Set:
  @DF-RHF Final Energy:  -387.12982738739981
    Total Energy =                       -387.1298273873995868
  Basis Set: 6-31G*
  Basis Set:
  Basis Set: 6-31G*
  Basis Set:
  @DF-RHF Final Energy:  -387.12992920278361
    Total Energy =                       -387.1299292027829324
  Basis Set: 6-31G*
  Basis Set:
  Charge       = 0
  Multiplicity = 1
  Basis Set: 6-31G*
  Basis Set:

    Orbital Energies (a.u.)
    -----------------------

    Doubly Occupied:

       1A    -20.550397     2A    -11.326231     3A    -11.231647
       4A    -11.228293     5A    -11.217615     6A    -11.215957
       7A    -11.214240     8A    -11.212287     9A    -11.206524
      10A     -1.395687    11A     -1.092175    12A     -1.053679
      13A     -1.012566    14A     -0.967631    15A     -0.888548
      16A     -0.833426    17A     -0.768592    18A     -0.730871
      19A     -0.659789    20A     -0.650608    21A     -0.632132
      22A     -0.623378    23A     -0.596735    24A     -0.580275
      25A     -0.567890    26A     -0.561921    27A     -0.550977
      28A     -0.516829    29A     -0.503263    30A     -0.496608
      31A     -0.489027    32A     -0.482080    33A     -0.458697
      34A     -0.452058    35A     -0.445225    36A     -0.399798

  @DF-RHF Final Energy:  -387.12992963420169

   => Energetics <=

    Nuclear Repulsion Energy =            446.2947463857453272
    One-Electron Energy =               -1409.2220426738535934
    Two-Electron Energy =                 575.7973666539056694
    DFT Exchange-Correlation Energy =       0.0000000000000000
    Empirical Dispersion Energy =           0.0000000000000000
    PCM Polarization Energy =               0.0000000000000000
    EFP Energy =                            0.0000000000000000
    Total Energy =                       -387.1299296342025400
    Molecular point group: c1
  Basis Set: 6-31G*
  Basis Set:

  -Total Gradient:
     Atom            X                  Y                   Z
    ------   -----------------  -----------------  -----------------
       1       -0.000000772052    -0.000001974457    -0.000015736095
       2       -0.000007508538     0.000004283864     0.000041341591
       3        0.000002573532    -0.000010268909    -0.000038165882
       4       -0.000007425047    -0.000001975049    -0.000018637301
       5       -0.000008405327     0.000026175858     0.000027953790
       6        0.000010393212    -0.000004428491    -0.000002421661
       7       -0.000003922083    -0.000000813634     0.000000734625
       8       -0.003348436630    -0.004648151870     0.005130129350
       9       -0.000019874190     0.000023425890     0.000000693411
      10        0.000009544427    -0.000014980400     0.000010753866
      11       -0.001244472450    -0.002527579089    -0.007204786226
      12        0.003028573464     0.004350580374    -0.003239826791
      13       -0.000029793545    -0.000007297471     0.000006608695
      14        0.000008546570    -0.000014875651     0.000038936236
      15        0.001611881948     0.002858223867     0.005282900420
      16       -0.000012478521    -0.000024949427    -0.000014575448
      17        0.000005397481     0.000010092039    -0.000040667988
      18        0.000012550698    -0.000027664044     0.000017755275
      19       -0.000004152593     0.000014450131     0.000002353229
      20        0.000003480346     0.000015715617     0.000030882635
      21        0.000014758179     0.000004522164    -0.000027066945
      22       -0.000016472105    -0.000024855122     0.000004748520
      23       -0.000003502362     0.000004399663     0.000004408637
      24       -0.000002492948     0.000002189454    -0.000002797335
      25        0.000002008534    -0.000004245310     0.000004481390

  **** Optimization is complete! (in 8 steps) ****
    Final optimized geometry and variables:
    Molecular point group: c1

    Geometry (in Angstrom), charge = 0, multiplicity = 1:

    O            2.637567307079     0.795490790367    -0.154697325446
    C            2.564676279206    -0.395111145665    -0.157472998484
    C            1.233737184402    -1.125339119350    -0.135330315436
    C            3.807302834561    -1.261349909202    -0.184505235156
    C            0.018966643388    -0.201730832922    -0.106483769085
    H            1.200163906135    -1.781842350233    -1.003817085056
    H            1.232583287793    -1.789808146501     0.727911723692
    C           -1.294498787183    -0.993673821678    -0.079333302957
    H            0.047420395393     0.445028232186    -0.977816333097
    H            0.096545917272     0.449432439603     0.755782282943
    C           -2.585249749129    -0.147682891401    -0.151015752901
    H           -1.275343176546    -1.654002211810    -0.943500890489
    H           -1.312896401771    -1.620837723086     0.808266537328
    C           -2.513198835496     1.243578446022     0.491721502447
    H           -3.371291517076    -0.685017750340     0.374192512293
    H           -2.899934449849    -0.040238037661    -1.185516267412
    C           -3.862369795254     1.961738048953     0.458145450106
    H           -2.182925543524     1.151887486833     1.524341074154
    H           -1.773390028301     1.856620596264    -0.013361375430
    H           -4.619671457949     1.404293044382     1.002436408368
    H           -3.792738654000     2.948457561710     0.905410714984
    H           -4.214936598648     2.085878585197    -0.562108396831
    H            3.802642805766    -1.903407999147    -1.060484252519
    H            4.688363853817    -0.635016192891    -0.200787227372
    H            3.837811515258    -1.907266609645     0.688148178738

  Mulliken Charges: (a.u.)
   Center  Symbol    Alpha    Beta     Spin     Total
       1     O     4.26134  4.26134  0.00000 -0.52269
       2     C     2.73546  2.73546  0.00000  0.52907
       3     C     3.21037  3.21037  0.00000 -0.42074
       4     C     3.28671  3.28671  0.00000 -0.57342
       5     C     3.15226  3.15226  0.00000 -0.30452
       6     H     0.41036  0.41036  0.00000  0.17929
       7     H     0.41025  0.41025  0.00000  0.17949
       8     C     3.15556  3.15556  0.00000 -0.31112
       9     H     0.41265  0.41265  0.00000  0.17470
      10     H     0.40941  0.40941  0.00000  0.18118
      11     C     3.15183  3.15183  0.00000 -0.30367
      12     H     0.42331  0.42331  0.00000  0.15338
      13     H     0.42301  0.42301  0.00000  0.15398
      14     C     3.15677  3.15677  0.00000 -0.31353
      15     H     0.42218  0.42218  0.00000  0.15563
      16     H     0.42177  0.42177  0.00000  0.15647
      17     C     3.23919  3.23919  0.00000 -0.47838
      18     H     0.42328  0.42328  0.00000  0.15344
      19     H     0.41677  0.41677  0.00000  0.16645
      20     H     0.42282  0.42282  0.00000  0.15437
      21     H     0.41859  0.41859  0.00000  0.16282
      22     H     0.42214  0.42214  0.00000  0.15572
      23     H     0.40875  0.40875  0.00000  0.18251
      24     H     0.39650  0.39650  0.00000  0.20700
      25     H     0.40872  0.40872  0.00000  0.18256

   Total alpha = 36.00000, Total beta = 36.00000, Total charge =  0.00000
