  ==> Input File <==

--------------------------------------------------------------------------
set {
	reference rhf
	basis cc-pvtz
}

set_num_threads( 4 )
memory 2 gb

molecule MOL {
0 1

O	 -2.440701	 -0.934798	 -0.415053
C	 -1.922978	 0.063265	 -0.045005
C	 -2.632749	 1.372204	 0.158357
O	 -0.637375	 0.157174	 0.243149
H	 -2.187724	 2.129143	 -0.474664
H	 -3.677681	 1.257276	 -0.079438
H	 -2.516788	 1.693160	 1.185542
C	 0.162530	 -1.009518	 0.097799
C	 1.587210	 -0.664190	 0.477086
H	 0.096803	 -1.356267	 -0.924704
H	 -0.233803	 -1.785900	 0.736810
C	 2.256770	 0.342732	 -0.454344
H	 2.154716	 -1.590834	 0.479041
H	 1.598751	 -0.289614	 1.496104
C	 1.355670	 0.764252	 -1.610180
H	 2.544561	 1.220708	 0.117873
H	 3.173020	 -0.083771	 -0.846037
H	 1.853342	 1.481308	 -2.252473
H	 0.441020	 1.222960	 -1.249078
H	 1.077807	 -0.088638	 -2.220416

	symmetry c1
}
set optking {
	frozen_dihedral = ("
		16 12 9 8
	")
}

ee = optimize('scf')
oeprop('DIPOLE', 'QUADRUPOLE', 'MULLIKEN_CHARGES')
f=open( 'psi4out.xyz', 'w' )
f.write( "20  " )
f.write( str(ee) + "\n" )
f.write( MOL.save_string_xyz() )
f.close()
--------------------------------------------------------------------------

    Molecular point group: c1
  Charge       = 0
  Multiplicity = 1
  Basis Set: CC-PVTZ
  Basis Set:
  @DF-RHF Final Energy:  -384.07030301371918
    Total Energy =                       -384.0703030137192400
    Molecular point group: c1
  Basis Set: CC-PVTZ
  Basis Set:
  Basis Set: CC-PVTZ
  Basis Set:
  @DF-RHF Final Energy:  -384.07537940506887
    Total Energy =                       -384.0753794050688157
  Basis Set: CC-PVTZ
  Basis Set:
  Basis Set: CC-PVTZ
  Basis Set:
  @DF-RHF Final Energy:  -384.07687531919839
    Total Energy =                       -384.0768753191981659
  Basis Set: CC-PVTZ
  Basis Set:
  Basis Set: CC-PVTZ
  Basis Set:
  @DF-RHF Final Energy:  -384.07483005793688
    Total Energy =                       -384.0748300579364241
  Basis Set: CC-PVTZ
  Basis Set:
  @DF-RHF Final Energy:  -384.07751085652467
    Total Energy =                       -384.0775108565247820
  Basis Set: CC-PVTZ
  Basis Set:
  @DF-RHF Final Energy:  -384.07766425072407
    Total Energy =                       -384.0776642507245242
  Basis Set: CC-PVTZ
  Basis Set:
  Basis Set: CC-PVTZ
  Basis Set:
  @DF-RHF Final Energy:  -384.07769851639864
    Total Energy =                       -384.0776985163986410
  Basis Set: CC-PVTZ
  Basis Set:
  Basis Set: CC-PVTZ
  Basis Set:
  @DF-RHF Final Energy:  -384.07770223370784
    Total Energy =                       -384.0777022337075550
  Basis Set: CC-PVTZ
  Basis Set:
  Charge       = 0
  Multiplicity = 1
  Basis Set: CC-PVTZ
  Basis Set:

    Orbital Energies (a.u.)
    -----------------------

    Doubly Occupied:

       1A    -20.593792     2A    -20.532535     3A    -11.366433
       4A    -11.279913     5A    -11.231677     6A    -11.224271
       7A    -11.220781     8A    -11.209743     9A     -1.470578
      10A     -1.364757    11A     -1.082516    12A     -1.026830
      13A     -0.980797    14A     -0.894120    15A     -0.801805
      16A     -0.774462    17A     -0.692455    18A     -0.690830
      19A     -0.665902    20A     -0.628026    21A     -0.613939
      22A     -0.581156    23A     -0.571045    24A     -0.558865
      25A     -0.545268    26A     -0.528193    27A     -0.523342
      28A     -0.479862    29A     -0.474006    30A     -0.467462
      31A     -0.449967    32A     -0.440468

  @DF-RHF Final Energy:  -384.07770253633174

   => Energetics <=

    Nuclear Repulsion Energy =            394.1308127576444917
    One-Electron Energy =               -1304.4854396893363173
    Two-Electron Energy =                 526.2769243953604246
    DFT Exchange-Correlation Energy =       0.0000000000000000
    Empirical Dispersion Energy =           0.0000000000000000
    PCM Polarization Energy =               0.0000000000000000
    EFP Energy =                            0.0000000000000000
    Total Energy =                       -384.0777025363314578
    Molecular point group: c1
  Basis Set: CC-PVTZ
  Basis Set:

  -Total Gradient:
     Atom            X                  Y                   Z
    ------   -----------------  -----------------  -----------------
       1       -0.000035229814    -0.000021481430     0.000001120821
       2        0.000029395268     0.000012921408    -0.000001648767
       3        0.000003677506    -0.000000444012    -0.000016088422
       4       -0.000003210289     0.000027545082     0.000025814429
       5        0.000002112952    -0.000000184635     0.000006125356
       6        0.000001952938    -0.000003780580     0.000000229971
       7       -0.000001789190    -0.000002792067     0.000006863878
       8        0.000728405166    -0.001691263542    -0.001155748306
       9       -0.000504901307     0.002171991358     0.001801188125
      10        0.000003042481    -0.000009402277     0.000000855803
      11       -0.000003408767     0.000011114671     0.000001639287
      12       -0.002598346136     0.000747157359    -0.001417171367
      13       -0.000001661281     0.000005932499     0.000002102338
      14        0.000000565171    -0.000000137016     0.000004489833
      15        0.000002875319    -0.000017027846     0.000016978491
      16        0.002384773758    -0.001247444595     0.000729858966
      17        0.000003904659    -0.000004335325     0.000008643502
      18        0.000003980832     0.000006926398    -0.000011766910
      19       -0.000020275735     0.000011224554    -0.000005207210
      20        0.000004136472     0.000003479994     0.000001720180

  **** Optimization is complete! (in 9 steps) ****
    Final optimized geometry and variables:
    Molecular point group: c1

    Geometry (in Angstrom), charge = 0, multiplicity = 1:

    O           -2.195907408643    -0.985944376982    -0.137351997049
    C           -1.695264533742     0.022410187394     0.228565378056
    C           -2.438333882851     1.303107441960     0.484741619995
    O           -0.401962307043     0.153989563307     0.462026166757
    H           -2.057053988661     2.080162009039    -0.165411555285
    H           -3.490201578585     1.152830936293     0.304019409470
    H           -2.275950297390     1.620582928958     1.506558954470
    C            0.426353485609    -0.987251887705     0.266065407426
    C            1.850779188990    -0.629196625886     0.639547897114
    H            0.335807177548    -1.318316631124    -0.757432797723
    H            0.067030043934    -1.784962171486     0.900398050712
    C            2.634215494479     0.329056187371    -0.295625739937
    H            2.384188446398    -1.572262198273     0.699043863574
    H            1.838573242228    -0.229264392730     1.646296256163
    C            1.956172261287     0.764544405439    -1.592756261971
    H            2.921925401282     1.209182543812     0.267547252727
    H            3.570735649811    -0.152539073877    -0.556285947124
    H            2.618823510752     1.416945700367    -2.149508331412
    H            1.037522530906     1.304703044129    -1.408011351633
    H            1.726336424750    -0.080586776946    -2.231594196864

  Mulliken Charges: (a.u.)
   Center  Symbol    Alpha    Beta     Spin     Total
       1     O     4.19696  4.19696  0.00000 -0.39392
       2     C     2.80948  2.80948  0.00000  0.38103
       3     C     3.13837  3.13837  0.00000 -0.27674
       4     O     4.15727  4.15727  0.00000 -0.31453
       5     H     0.44636  0.44636  0.00000  0.10728
       6     H     0.43763  0.43763  0.00000  0.12475
       7     H     0.44556  0.44556  0.00000  0.10888
       8     C     2.99733  2.99733  0.00000  0.00534
       9     C     3.09474  3.09474  0.00000 -0.18949
      10     H     0.44659  0.44659  0.00000  0.10683
      11     H     0.43828  0.43828  0.00000  0.12344
      12     C     3.08515  3.08515  0.00000 -0.17030
      13     H     0.44931  0.44931  0.00000  0.10139
      14     H     0.44910  0.44910  0.00000  0.10181
      15     C     3.15938  3.15938  0.00000 -0.31876
      16     H     0.45057  0.45057  0.00000  0.09886
      17     H     0.45143  0.45143  0.00000  0.09715
      18     H     0.44403  0.44403  0.00000  0.11194
      19     H     0.44906  0.44906  0.00000  0.10189
      20     H     0.45342  0.45342  0.00000  0.09317

   Total alpha = 32.00000, Total beta = 32.00000, Total charge = -0.00000
