                              Psi4 1.0.54 Driver

  ==> Input File <==

--------------------------------------------------------------------------
set {
	reference rhf
	basis cc-pvtz
}

set_num_threads( 4 )
memory 2 gb

molecule MOL {
0 1

H	 -3.056924	 1.980120	 0.212608
C	 -2.396608	 2.153811	 1.059189
O	 -1.062434	 2.020513	 0.698976
H	 -2.544143	 3.163516	 1.413615
H	 -2.667441	 1.461351	 1.854193
C	 -0.718530	 0.758693	 0.228682
C	 0.718529	 0.758687	 -0.228709
H	 -0.837693	 0.016449	 1.017887
H	 -1.358303	 0.470120	 -0.602490
O	 1.401606	 -0.295166	 0.366636
H	 0.748705	 0.673477	 -1.312803
H	 1.176496	 1.708671	 0.046552
C	 2.714315	 -0.441627	 -0.061017
H	 2.765292	 -0.641548	 -1.128869
H	 3.305661	 0.447341	 0.150952
H	 3.143725	 -1.278506	 0.470147

	symmetry c1
}
set optking {
	frozen_dihedral = ("
		3 6 7 11
	")
}

ee,wfn = optimize('scf', return_wfn=True)
oeprop( wfn, 'DIPOLE', 'QUADRUPOLE', 'MULLIKEN_CHARGES')
f=open( 'psi4out.xyz', 'w' )
f.write( "16  " )
f.write( str(ee) + "\n" )
f.write( MOL.save_string_xyz() )
f.close()
--------------------------------------------------------------------------

    Molecular point group: c1
  Charge       = 0
  Multiplicity = 1
  Basis Set: CC-PVTZ
  Basis Set:
  @DF-RHF Final Energy:  -307.09385852930700
    Total Energy =                       -307.0938585293067717
    Molecular point group: c1
  Basis Set: CC-PVTZ
  Basis Set:
  Basis Set: CC-PVTZ
  Basis Set:
  @DF-RHF Final Energy:  -307.09439074603313
    Total Energy =                       -307.0943907460329569
  Basis Set: CC-PVTZ
  Basis Set:
  Basis Set: CC-PVTZ
  Basis Set:
  @DF-RHF Final Energy:  -307.09445571894980
    Total Energy =                       -307.0944557189496322
  Basis Set: CC-PVTZ
  Basis Set:
  Charge       = 0
  Multiplicity = 1
  Basis Set: CC-PVTZ
  Basis Set:

    Orbital Energies (a.u.)
    -----------------------

    Doubly Occupied:

       1A    -20.551262     2A    -20.551008     3A    -11.266506
       4A    -11.265860     5A    -11.263495     6A    -11.263405
       7A     -1.390700     8A     -1.378836     9A     -1.028687
      10A     -0.940561    11A     -0.885310    12A     -0.832005
      13A     -0.689818    14A     -0.678403    15A     -0.659457
      16A     -0.646223    17A     -0.627631    18A     -0.600331
      19A     -0.561025    20A     -0.526694    21A     -0.508857
      22A     -0.483307    23A     -0.467546    24A     -0.423742
      25A     -0.415326

  @DF-RHF Final Energy:  -307.09446043235187

   => Energetics <=

    Nuclear Repulsion Energy =            255.2633496466385168
    One-Electron Energy =                -924.9036279332985941
    Two-Electron Energy =                 362.5458178543081544
    DFT Exchange-Correlation Energy =       0.0000000000000000
    Empirical Dispersion Energy =           0.0000000000000000
    PCM Polarization Energy =               0.0000000000000000
    EFP Energy =                            0.0000000000000000
    Total Energy =                       -307.0944604323519229
    Molecular point group: c1
  Basis Set: CC-PVTZ
  Basis Set:

  -Total Gradient:
     Atom            X                  Y                   Z
    ------   -----------------  -----------------  -----------------
       1        0.000050579293     0.000006795085     0.000062379889
       2       -0.000104842618     0.000030654066     0.000030193061
       3        0.000420161196    -0.000496897683     0.001406428188
       4       -0.000000676477    -0.000030856836    -0.000006966758
       5        0.000021000851     0.000038093829    -0.000064053630
       6       -0.000635011725     0.000190534413    -0.001777530403
       7        0.000211979003     0.002133079871     0.000333422934
       8        0.000025800400    -0.000004969084    -0.000026881100
       9       -0.000003237007    -0.000002123126     0.000000223794
      10       -0.000054878596     0.000177761236    -0.000113804532
      11        0.000044946319    -0.001993150678     0.000147516022
      12       -0.000040337711     0.000004023127    -0.000006162224
      13        0.000132349732    -0.000052283373    -0.000019360556
      14       -0.000007676693     0.000020083596     0.000074619625
      15       -0.000052694550    -0.000052224393    -0.000021018316
      16       -0.000007461418     0.000031479953    -0.000019005993

  **** Optimization is complete! (in 4 steps) ****
    Final optimized geometry and variables:
    Molecular point group: c1

    Geometry (in Angstrom), charge = 0, multiplicity = 1:

    H           -3.194386252549     1.124875826305    -0.041852558750
    C           -2.484924183556     1.334560230573     0.755714943123
    O           -1.173078777768     1.210084048374     0.316557397663
    H           -2.627260865415     2.352220407311     1.088886095661
    H           -2.692104623928     0.661847213645     1.584809851798
    C           -0.841370907394    -0.065469356120    -0.137991535333
    C            0.612600739918    -0.070922008383    -0.596842426815
    H           -0.948761699538    -0.792946115278     0.660744354919
    H           -1.507534501578    -0.357193362544    -0.946757358139
    O            1.271592991720    -1.146224502427    -0.000528603934
    H            0.677783889604    -0.166594013035    -1.678429461985
    H            1.071381650426     0.869244688806    -0.308024959417
    C            2.608220432884    -1.264301125400    -0.359123450437
    H            2.721925267230    -1.418883735047    -1.429982769668
    H            3.175199704630    -0.379713631829    -0.078221066559
    H            3.016125239680    -2.118929131935     0.160616716667

  Mulliken Charges: (a.u.)
   Center  Symbol    Alpha    Beta     Spin     Total
       1     H     0.47194  0.47194  0.00000  0.05611
       2     C     3.02890  3.02890  0.00000 -0.05780
       3     O     4.17403  4.17403  0.00000 -0.34806
       4     H     0.44660  0.44660  0.00000  0.10680
       5     H     0.47093  0.47093  0.00000  0.05814
       6     C     2.96772  2.96772  0.00000  0.06456
       7     C     2.96771  2.96771  0.00000  0.06458
       8     H     0.46519  0.46519  0.00000  0.06962
       9     H     0.47465  0.47465  0.00000  0.05069
      10     O     4.17420  4.17420  0.00000 -0.34840
      11     H     0.47486  0.47486  0.00000  0.05028
      12     H     0.46472  0.46472  0.00000  0.07055
      13     C     3.02881  3.02881  0.00000 -0.05763
      14     H     0.47216  0.47216  0.00000  0.05568
      15     H     0.47095  0.47095  0.00000  0.05809
      16     H     0.44662  0.44662  0.00000  0.10677

   Total alpha = 25.00000, Total beta = 25.00000, Total charge =  0.00000

*** Psi4 exiting successfully. Buy a developer a beer!
