                              Psi4 1.0.54 Driver

  ==> Input File <==

--------------------------------------------------------------------------
set {
	reference rhf
	basis cc-pvtz
}

set_num_threads( 4 )
memory 2 gb

molecule MOL {
0 1

O	 1.015618	 0.786834	 0.880897
C	 0.576499	 0.134701	 -0.003900
C	 -0.765656	 -0.550508	 -0.002152
O	 1.228622	 -0.088979	 -1.132915
C	 -1.945526	 0.411052	 0.000603
H	 -0.794329	 -1.203792	 -0.868145
H	 -0.791555	 -1.205429	 0.862701
C	 -3.282915	 -0.321280	 0.002596
H	 -1.880300	 1.059126	 -0.864925
H	 -1.877207	 1.057892	 0.866807
H	 -3.388495	 -0.952755	 -0.873419
H	 -4.107811	 0.380864	 0.004116
H	 -3.385717	 -0.953283	 0.878571
C	 2.509562	 0.493051	 -1.268725
H	 2.447817	 1.569220	 -1.204679
H	 2.868300	 0.197832	 -2.241269
H	 3.175921	 0.131601	 -0.499726

	symmetry c1
}
set optking {
	frozen_dihedral = ("
		1 2 3 6
	")
}

ee,wfn = optimize('scf', return_wfn=True)
oeprop( wfn, 'DIPOLE', 'QUADRUPOLE', 'MULLIKEN_CHARGES')
f=open( 'psi4out.xyz', 'w' )
f.write( "17  " )
f.write( str(ee) + "\n" )
f.write( MOL.save_string_xyz() )
f.close()
--------------------------------------------------------------------------

    Molecular point group: c1
  Charge       = 0
  Multiplicity = 1
  Basis Set: CC-PVTZ
  Basis Set:
  @DF-RHF Final Energy:  -345.03324475506628
    Total Energy =                       -345.0332447550663346
    Molecular point group: c1
  Basis Set: CC-PVTZ
  Basis Set:
  Basis Set: CC-PVTZ
  Basis Set:
  @DF-RHF Final Energy:  -345.03386481850652
    Total Energy =                       -345.0338648185061174
  Basis Set: CC-PVTZ
  Basis Set:
  Basis Set: CC-PVTZ
  Basis Set:
  @DF-RHF Final Energy:  -344.18157274115742
    Total Energy =                       -344.1815727411572539
  Basis Set: CC-PVTZ
  Basis Set:
  Basis Set: CC-PVTZ
  Basis Set:
  @DF-RHF Final Energy:  -344.40448055569976
    Total Energy =                       -344.4044805556997630
  Basis Set: CC-PVTZ
  Basis Set:
  @DF-RHF Final Energy:  -344.79478484120995
    Total Energy =                       -344.7947848412101166
  @DF-RHF Final Energy:  -344.95856809941188
    Total Energy =                       -344.9585680994119912
  @DF-RHF Final Energy:  -345.02463312171159
    Total Energy =                       -345.0246331217120996
  @DF-RHF Final Energy:  -345.03124736838208
    Total Energy =                       -345.0312473683820826
  @DF-RHF Final Energy:  -345.03361477662838
    Total Energy =                       -345.0336147766280419
  Basis Set: CC-PVTZ
  Basis Set:
  @DF-RHF Final Energy:  -345.03393734874300
    Total Energy =                       -345.0339373487428816
  Basis Set: CC-PVTZ
  Basis Set:
  Basis Set: CC-PVTZ
  Basis Set:
  @DF-RHF Final Energy:  -345.03378716597859
    Total Energy =                       -345.0337871659781968
  Basis Set: CC-PVTZ
  Basis Set:
  Basis Set: CC-PVTZ
  Basis Set:
  @DF-RHF Final Energy:  -345.03399160330281
    Total Energy =                       -345.0339916033030363
  Basis Set: CC-PVTZ
  Basis Set:
  Charge       = 0
  Multiplicity = 1
  Basis Set: CC-PVTZ
  Basis Set:

    Orbital Energies (a.u.)
    -----------------------

    Doubly Occupied:

       1A    -20.598928     2A    -20.531474     3A    -11.364091
       4A    -11.278733     5A    -11.232596     6A    -11.228227
       7A    -11.215615     8A     -1.472703     9A     -1.364781
      10A     -1.083794    11A     -1.001344    12A     -0.942296
      13A     -0.829408    14A     -0.774759    15A     -0.700684
      16A     -0.683565    17A     -0.676208    18A     -0.637705
      19A     -0.596264    20A     -0.583679    21A     -0.559614
      22A     -0.537997    23A     -0.527373    24A     -0.505476
      25A     -0.485610    26A     -0.484363    27A     -0.458193
      28A     -0.437288

  @DF-RHF Final Energy:  -345.03399280120902

   => Energetics <=

    Nuclear Repulsion Energy =            313.7280722905767334
    One-Electron Energy =               -1091.9386012482320893
    Two-Electron Energy =                 433.1765361564464456
    DFT Exchange-Correlation Energy =       0.0000000000000000
    Empirical Dispersion Energy =           0.0000000000000000
    PCM Polarization Energy =               0.0000000000000000
    EFP Energy =                            0.0000000000000000
    Total Energy =                       -345.0339928012089104
    Molecular point group: c1
  Basis Set: CC-PVTZ
  Basis Set:

  -Total Gradient:
     Atom            X                  Y                   Z
    ------   -----------------  -----------------  -----------------
       1        0.000011997660     0.000050031110    -0.000118376261
       2       -0.000084760628    -0.000134325947     0.000170062841
       3       -0.000016593466     0.000000016179    -0.000045304718
       4        0.000086948385     0.000025653025    -0.000031680681
       5        0.000014354985    -0.000009937091     0.000024422724
       6       -0.000043926990     0.000052927480     0.000010948613
       7        0.000015995374    -0.000001217298     0.000013707673
       8       -0.000007913884    -0.000007852206    -0.000016448288
       9       -0.000010111058    -0.000006257636    -0.000006128734
      10        0.000022324061    -0.000009306284    -0.000019872161
      11       -0.000006311717     0.000006307033     0.000012897878
      12        0.000027886751    -0.000013458437     0.000015514228
      13        0.000000892791     0.000028594897    -0.000006082821
      14       -0.000033830075     0.000022945646    -0.000000057247
      15        0.000040541736    -0.000018544000    -0.000003560630
      16       -0.000009212504     0.000001557189     0.000030323757
      17       -0.000008281420     0.000012866339    -0.000030366172

  **** Optimization is complete! (in 13 steps) ****
    Final optimized geometry and variables:
    Molecular point group: c1

    Geometry (in Angstrom), charge = 0, multiplicity = 1:

    O            0.141168706940     0.306478730697     1.616261895642
    C            0.448635381024     0.042120284268     0.503173913247
    C           -0.322655778442    -0.901104907897    -0.384584826342
    O            1.504122390232     0.561839371546    -0.098775455658
    C           -1.696792795460    -0.328287587919    -0.743884051746
    H            0.248853812298    -1.110293216078    -1.277826545779
    H           -0.447613197794    -1.825106165900     0.167320341198
    C           -2.513804166699    -1.287125650692    -1.601654179283
    H           -1.566025932754     0.610529512827    -1.273330571465
    H           -2.230989201415    -0.100989851595     0.170167462639
    H           -2.006703999252    -1.511642892365    -2.533848078177
    H           -3.479662558137    -0.860717222796    -1.844459173120
    H           -2.685993990312    -2.224315571209    -1.083538553237
    C            2.286244106631     1.476829115484     0.642911218728
    H            1.695789604281     2.331744637154     0.936827576304
    H            3.086141745909     1.783139910474    -0.011378734932
    H            2.687162278878     1.004692621795     1.527323467403

  Mulliken Charges: (a.u.)
   Center  Symbol    Alpha    Beta     Spin     Total
       1     O     4.20523  4.20523  0.00000 -0.41046
       2     C     2.81011  2.81011  0.00000  0.37977
       3     C     3.07966  3.07966  0.00000 -0.15931
       4     O     4.14527  4.14527  0.00000 -0.29055
       5     C     3.08906  3.08906  0.00000 -0.17813
       6     H     0.44146  0.44146  0.00000  0.11708
       7     H     0.44373  0.44373  0.00000  0.11255
       8     C     3.15139  3.15139  0.00000 -0.30279
       9     H     0.45113  0.45113  0.00000  0.09775
      10     H     0.44051  0.44051  0.00000  0.11897
      11     H     0.45478  0.45478  0.00000  0.09045
      12     H     0.44604  0.44604  0.00000  0.10792
      13     H     0.45334  0.45334  0.00000  0.09333
      14     C     3.03503  3.03503  0.00000 -0.07006
      15     H     0.45413  0.45413  0.00000  0.09174
      16     H     0.44527  0.44527  0.00000  0.10946
      17     H     0.45386  0.45386  0.00000  0.09228

   Total alpha = 28.00000, Total beta = 28.00000, Total charge =  0.00000

*** Psi4 exiting successfully. Buy a developer a beer!
