                              Psi4 1.0.54 Driver

  ==> Input File <==

--------------------------------------------------------------------------
set {
	reference rhf
	basis cc-pvtz
}

set_num_threads( 4 )
memory 2 gb

molecule MOL {
0 1

O	 -2.196049	 1.511017	 -0.675124
C	 -2.049897	 0.405024	 -0.266653
C	 -0.881910	 -0.448129	 -0.720509
C	 -3.003016	 -0.201339	 0.735672
C	 0.376695	 -0.140025	 0.100361
H	 -0.698813	 -0.224641	 -1.763888
H	 -1.129372	 -1.500912	 -0.635207
C	 1.630207	 -0.772146	 -0.501001
H	 0.486632	 0.935267	 0.162725
H	 0.248225	 -0.501310	 1.117842
C	 2.907848	 -0.545876	 0.309149
H	 1.772784	 -0.391628	 -1.509394
H	 1.468529	 -1.842059	 -0.599744
C	 3.373802	 0.906639	 0.372125
H	 3.699140	 -1.146831	 -0.127906
H	 2.764321	 -0.923458	 1.318191
H	 3.519798	 1.311927	 -0.623875
H	 4.316899	 0.983758	 0.900700
H	 2.661122	 1.540651	 0.885346
H	 -3.552757	 -1.008511	 0.262115
H	 -3.695485	 0.546572	 1.090194
H	 -2.459442	 -0.630521	 1.569890

	symmetry c1
}
set optking {
	frozen_dihedral = ("
		6 3 5 8
	")
}

ee,wfn = optimize('scf', return_wfn=True)
oeprop( wfn, 'DIPOLE', 'QUADRUPOLE', 'MULLIKEN_CHARGES')
f=open( 'psi4out.xyz', 'w' )
f.write( "22  " )
f.write( str(ee) + "\n" )
f.write( MOL.save_string_xyz() )
f.close()
--------------------------------------------------------------------------

    Molecular point group: c1
  Charge       = 0
  Multiplicity = 1
  Basis Set: CC-PVTZ
  Basis Set:
  @DF-RHF Final Energy:  -348.22307891550940
    Total Energy =                       -348.2230789155091202
    Molecular point group: c1
  Basis Set: CC-PVTZ
  Basis Set:
  Basis Set: CC-PVTZ
  Basis Set:
  @DF-RHF Final Energy:  -348.22312343534833
    Total Energy =                       -348.2231234353486116
  Basis Set: CC-PVTZ
  Basis Set:
  Basis Set: CC-PVTZ
  Basis Set:
  @DF-RHF Final Energy:  -348.22311982745941
    Total Energy =                       -348.2231198274590724
  Basis Set: CC-PVTZ
  Basis Set:
  Basis Set: CC-PVTZ
  Basis Set:
  @DF-RHF Final Energy:  -348.22310309764703
    Total Energy =                       -348.2231030976472539
  Basis Set: CC-PVTZ
  Basis Set:
  Basis Set: CC-PVTZ
  Basis Set:
  @DF-RHF Final Energy:  -348.22314339383075
    Total Energy =                       -348.2231433938305827
  Basis Set: CC-PVTZ
  Basis Set:
  Basis Set: CC-PVTZ
  Basis Set:
  @DF-RHF Final Energy:  -348.22314512869929
    Total Energy =                       -348.2231451286987749
  Basis Set: CC-PVTZ
  Basis Set:
  Charge       = 0
  Multiplicity = 1
  Basis Set: CC-PVTZ
  Basis Set:

    Orbital Energies (a.u.)
    -----------------------

    Doubly Occupied:

       1A    -20.536794     2A    -11.319331     3A    -11.228096
       4A    -11.227444     5A    -11.226870     6A    -11.220533
       7A    -11.218964     8A    -11.209444     9A     -1.396847
      10A     -1.097309    11A     -1.045672    12A     -1.000131
      13A     -0.938676    14A     -0.859068    15A     -0.787127
      16A     -0.734700    17A     -0.664239    18A     -0.645580
      19A     -0.628900    20A     -0.621292    21A     -0.598882
      22A     -0.586744    23A     -0.562114    24A     -0.540045
      25A     -0.535446    26A     -0.522875    27A     -0.499719
      28A     -0.489081    29A     -0.471182    30A     -0.464665
      31A     -0.462980    32A     -0.398714

  @DF-RHF Final Energy:  -348.22314609613761

   => Energetics <=

    Nuclear Repulsion Energy =            373.7008774459401366
    One-Electron Energy =               -1212.3691179794786876
    Two-Electron Energy =                 490.4450944374006554
    DFT Exchange-Correlation Energy =       0.0000000000000000
    Empirical Dispersion Energy =           0.0000000000000000
    PCM Polarization Energy =               0.0000000000000000
    EFP Energy =                            0.0000000000000000
    Total Energy =                       -348.2231460961378957
    Molecular point group: c1
  Basis Set: CC-PVTZ
  Basis Set:

  -Total Gradient:
     Atom            X                  Y                   Z
    ------   -----------------  -----------------  -----------------
       1        0.000028839939     0.000051957726    -0.000018452570
       2       -0.000024819867    -0.000003880736     0.000046277183
       3       -0.000709621214     0.002752408086    -0.000001736648
       4       -0.000037180297     0.000008152076    -0.000038224459
       5       -0.000148189903    -0.002066676628     0.001043652806
       6        0.000634104839    -0.001893649058    -0.000287420170
       7        0.000012638553    -0.000001129592     0.000001310847
       8        0.000230451041     0.001187210701    -0.000814122765
       9        0.000003414967    -0.000000775837    -0.000010551192
      10       -0.000001553346    -0.000009717831     0.000042232978
      11        0.000010684078    -0.000004036598    -0.000003486075
      12        0.000001188441    -0.000000436475    -0.000006319727
      13       -0.000008155564     0.000010655498     0.000008191261
      14       -0.000007742716     0.000001722072     0.000010234124
      15       -0.000015289065     0.000013194372     0.000010237148
      16        0.000006961123     0.000008704794    -0.000012713994
      17       -0.000004888218    -0.000007030584     0.000002063244
      18        0.000001905541     0.000000384687     0.000005476044
      19        0.000010170015    -0.000013031292    -0.000009418353
      20       -0.000008065453    -0.000026884389     0.000003221868
      21       -0.000001714577     0.000003193809     0.000002711102
      22        0.000026861681    -0.000010334803     0.000026837345

  **** Optimization is complete! (in 7 steps) ****
    Final optimized geometry and variables:
    Molecular point group: c1

    Geometry (in Angstrom), charge = 0, multiplicity = 1:

    O           -2.255875449645     1.388886835975    -0.670767489045
    C           -2.077715862731     0.305013001545    -0.218241072264
    C           -0.898294170440    -0.540525339953    -0.654212291516
    C           -3.001310125461    -0.279144849943     0.824086068892
    C            0.358442078982    -0.219022605251     0.166614883726
    H           -0.709953759430    -0.341423868753    -1.701388748805
    H           -1.136736688456    -1.594714110794    -0.555584742833
    C            1.610325828540    -0.871109738134    -0.417037522087
    H            0.482558419723     0.856705753848     0.194654664337
    H            0.221900735927    -0.547236812861     1.193599223259
    C            2.879294881350    -0.668200139139     0.412411101954
    H            1.772293864254    -0.488585182500    -1.421335965295
    H            1.433813640167    -1.938282054248    -0.522408771304
    C            3.360119945091     0.778274848578     0.498279673762
    H            3.669558920014    -1.273025521210    -0.021046601478
    H            2.718251126791    -1.055507279727     1.415060968470
    H            3.522533911224     1.193836506257    -0.490887149312
    H            4.297381368913     0.838801492156     1.039230271702
    H            2.648006579805     1.413872444681     1.010357738063
    H           -3.537193095216    -1.120124668630     0.395704762981
    H           -3.707157712968     0.466910372317     1.155317299590
    H           -2.435375377744    -0.656555727746     1.668495363076

  Mulliken Charges: (a.u.)
   Center  Symbol    Alpha    Beta     Spin     Total
       1     O     4.17757  4.17757  0.00000 -0.35514
       2     C     2.85826  2.85826  0.00000  0.28348
       3     C     3.09647  3.09647  0.00000 -0.19293
       4     C     3.15540  3.15540  0.00000 -0.31080
       5     C     3.10529  3.10529  0.00000 -0.21058
       6     H     0.43938  0.43938  0.00000  0.12124
       7     H     0.44857  0.44857  0.00000  0.10287
       8     C     3.09541  3.09541  0.00000 -0.19082
       9     H     0.43969  0.43969  0.00000  0.12063
      10     H     0.45201  0.45201  0.00000  0.09598
      11     C     3.09095  3.09095  0.00000 -0.18191
      12     H     0.45017  0.45017  0.00000  0.09966
      13     H     0.44913  0.44913  0.00000  0.10174
      14     C     3.15187  3.15187  0.00000 -0.30374
      15     H     0.44759  0.44759  0.00000  0.10481
      16     H     0.45470  0.45470  0.00000  0.09060
      17     H     0.45340  0.45340  0.00000  0.09320
      18     H     0.44618  0.44618  0.00000  0.10765
      19     H     0.45270  0.45270  0.00000  0.09459
      20     H     0.44844  0.44844  0.00000  0.10312
      21     H     0.43601  0.43601  0.00000  0.12798
      22     H     0.45082  0.45082  0.00000  0.09836

   Total alpha = 32.00000, Total beta = 32.00000, Total charge =  0.00000

*** Psi4 exiting successfully. Buy a developer a beer!
