                              Psi4 1.0.54 Driver

  ==> Input File <==

--------------------------------------------------------------------------
set {
	reference rhf
	basis cc-pvtz
}

set_num_threads( 4 )
memory 2 gb

molecule MOL {
0 1

H	 -0.000105	 1.988529	 0.748933
O	 -0.000098	 1.879786	 -0.188206
C	 -0.000014	 0.545691	 -0.532416
C	 -1.286000	 -0.125171	 -0.046657
C	 1.286016	 -0.125031	 -0.046584
H	 0.000021	 0.481103	 -1.610604
F	 -1.123610	 -1.425358	 -0.048405
F	 -1.608241	 0.238026	 1.169057
F	 -2.299206	 0.151550	 -0.839256
F	 2.317750	 0.468717	 -0.594166
F	 1.336617	 -1.393765	 -0.365123
F	 1.414467	 -0.024806	 1.259108

	symmetry c1
}
set optking {
	frozen_dihedral = ("
		7 4 3 6
	")
}

ee,wfn = optimize('scf', return_wfn=True)
oeprop( wfn, 'DIPOLE', 'QUADRUPOLE', 'MULLIKEN_CHARGES')
f=open( 'psi4out.xyz', 'w' )
f.write( "12  " )
f.write( str(ee) + "\n" )
f.write( MOL.save_string_xyz() )
f.close()
--------------------------------------------------------------------------

    Molecular point group: c1
  Charge       = 0
  Multiplicity = 1
  Basis Set: CC-PVTZ
  Basis Set:
  @DF-RHF Final Energy:  -786.58677140475595
    Total Energy =                       -786.5867714047560639
    Molecular point group: c1
  Basis Set: CC-PVTZ
  Basis Set:
  Basis Set: CC-PVTZ
  Basis Set:
  @DF-RHF Final Energy:  -786.58806008698218
    Total Energy =                       -786.5880600869826367
  Basis Set: CC-PVTZ
  Basis Set:
  Basis Set: CC-PVTZ
  Basis Set:
  @DF-RHF Final Energy:  -786.58853734837612
    Total Energy =                       -786.5885373483758940
  Basis Set: CC-PVTZ
  Basis Set:
  Basis Set: CC-PVTZ
  Basis Set:
  @DF-RHF Final Energy:  -786.58862632045964
    Total Energy =                       -786.5886263204599800
  Basis Set: CC-PVTZ
  Basis Set:
  Basis Set: CC-PVTZ
  Basis Set:
  @DF-RHF Final Energy:  -786.58863645310328
    Total Energy =                       -786.5886364531038453
  Basis Set: CC-PVTZ
  Basis Set:
  Basis Set: CC-PVTZ
  Basis Set:
  @DF-RHF Final Energy:  -786.58863885640574
    Total Energy =                       -786.5886388564053959
  Basis Set: CC-PVTZ
  Basis Set:
  Charge       = 0
  Multiplicity = 1
  Basis Set: CC-PVTZ
  Basis Set:

    Orbital Energies (a.u.)
    -----------------------

    Doubly Occupied:

       1A    -26.358641     2A    -26.358465     3A    -26.357817
       4A    -26.356428     5A    -26.355785     6A    -26.353044
       7A    -20.608867     8A    -11.521457     9A    -11.518624
      10A    -11.351410    11A     -1.772485    12A     -1.766342
      13A     -1.667266    14A     -1.665017    15A     -1.662911
      16A     -1.660787    17A     -1.438844    18A     -1.102461
      19A     -1.001989    20A     -0.944912    21A     -0.871883
      22A     -0.868941    23A     -0.858898    24A     -0.852674
      25A     -0.840657    26A     -0.822693    27A     -0.747244
      28A     -0.735798    29A     -0.732031    30A     -0.727070
      31A     -0.695338    32A     -0.692590    33A     -0.689534
      34A     -0.681762    35A     -0.677712    36A     -0.668247
      37A     -0.664786    38A     -0.655915    39A     -0.625213
      40A     -0.554321    41A     -0.509772

  @DF-RHF Final Energy:  -786.58863922790658

   => Energetics <=

    Nuclear Repulsion Energy =            671.0475162883391249
    One-Electron Energy =               -2429.2790419825951176
    Two-Electron Energy =                 971.6428864663496370
    DFT Exchange-Correlation Energy =       0.0000000000000000
    Empirical Dispersion Energy =           0.0000000000000000
    PCM Polarization Energy =               0.0000000000000000
    EFP Energy =                            0.0000000000000000
    Total Energy =                       -786.5886392279064694
    Molecular point group: c1
  Basis Set: CC-PVTZ
  Basis Set:

  -Total Gradient:
     Atom            X                  Y                   Z
    ------   -----------------  -----------------  -----------------
       1       -0.000002577649     0.000015534858     0.000013801578
       2        0.000010161602    -0.000048984087     0.000021914606
       3        0.001870706244    -0.003301349739     0.000885859651
       4       -0.001391393235     0.000552246792    -0.003387822814
       5        0.000013331251    -0.000011278454    -0.000001743232
       6       -0.001352956451     0.002734074379    -0.000091395603
       7        0.000844386390     0.000020753745     0.002466952142
       8        0.000008166301     0.000043226137     0.000082389848
       9        0.000059537355    -0.000016601808     0.000003136432
      10       -0.000036446403     0.000024642058     0.000003051217
      11       -0.000011012111    -0.000020252740    -0.000005900372
      12       -0.000011903302     0.000007988847     0.000009756549

  **** Optimization is complete! (in 7 steps) ****
    Final optimized geometry and variables:
    Molecular point group: c1

    Geometry (in Angstrom), charge = 0, multiplicity = 1:

    H           -0.022534999706     1.976742161483     0.793126984244
    O            0.064682131672     1.888721722949    -0.141790936618
    C            0.036091876657     0.564051159612    -0.522339018604
    C           -1.285028383995    -0.077575510896    -0.079040392308
    C            1.282297081229    -0.168954808642    -0.026543571246
    H            0.054076257139     0.548675073485    -1.601773671820
    F           -1.250948324264    -1.385664602589    -0.108365012927
    F           -1.584168261332     0.282911581488     1.152010249324
    F           -2.257332720685     0.325548604757    -0.858413885922
    F            2.353088923178     0.493304882844    -0.385382786856
    F            1.371652255955    -1.375698148020    -0.527257330820
    F            1.290506895460    -0.265057304178     1.286297004257

  Mulliken Charges: (a.u.)
   Center  Symbol    Alpha    Beta     Spin     Total
       1     H     0.38066  0.38066  0.00000  0.23868
       2     O     4.18987  4.18987  0.00000 -0.37973
       3     C     3.01040  3.01040  0.00000 -0.02080
       4     C     2.68048  2.68048  0.00000  0.63904
       5     C     2.68317  2.68317  0.00000  0.63365
       6     H     0.42479  0.42479  0.00000  0.15042
       7     F     4.60121  4.60121  0.00000 -0.20242
       8     F     4.61188  4.61188  0.00000 -0.22376
       9     F     4.60225  4.60225  0.00000 -0.20451
      10     F     4.60101  4.60101  0.00000 -0.20201
      11     F     4.60367  4.60367  0.00000 -0.20735
      12     F     4.61061  4.61061  0.00000 -0.22122

   Total alpha = 41.00000, Total beta = 41.00000, Total charge =  0.00000

*** Psi4 exiting successfully. Buy a developer a beer!
