                              Psi4 1.0.54 Driver

  ==> Input File <==

--------------------------------------------------------------------------
set {
	reference rhf
	basis cc-pvtz
}

set_num_threads( 4 )
memory 2 gb

molecule MOL {
0 1

H	 2.212469	 -1.303754	 0.165358
N	 2.433987	 -0.362316	 -0.080024
C	 1.263552	 0.494993	 0.021953
H	 2.785070	 -0.376372	 -1.014839
C	 -0.016533	 -0.325589	 -0.026925
H	 1.280915	 1.180773	 -0.818522
H	 1.263064	 1.106893	 0.925038
C	 -1.280353	 0.525521	 0.047747
H	 -0.016686	 -0.912532	 -0.939714
H	 -0.014099	 -1.037598	 0.796369
C	 -2.560681	 -0.301323	 -0.007747
H	 -1.279957	 1.241025	 -0.770189
H	 -1.270445	 1.110526	 0.963468
H	 -2.617064	 -0.872870	 -0.928010
H	 -3.439525	 0.331102	 0.043462
H	 -2.609427	 -1.002736	 0.818585

	symmetry c1
}
set optking {
	frozen_dihedral = ("
		1 2 3 6
	")
}

ee,wfn = optimize('scf', return_wfn=True)
oeprop( wfn, 'DIPOLE', 'QUADRUPOLE', 'MULLIKEN_CHARGES')
f=open( 'psi4out.xyz', 'w' )
f.write( "16  " )
f.write( str(ee) + "\n" )
f.write( MOL.save_string_xyz() )
f.close()
--------------------------------------------------------------------------

    Molecular point group: c1
  Charge       = 0
  Multiplicity = 1
  Basis Set: CC-PVTZ
  Basis Set:
  @DF-RHF Final Energy:  -212.39625526818170
    Total Energy =                       -212.3962552681817897
    Molecular point group: c1
  Basis Set: CC-PVTZ
  Basis Set:
  Basis Set: CC-PVTZ
  Basis Set:
  @DF-RHF Final Energy:  -212.39721660322749
    Total Energy =                       -212.3972166032276050
  Basis Set: CC-PVTZ
  Basis Set:
  Basis Set: CC-PVTZ
  Basis Set:
  @DF-RHF Final Energy:  -212.39737631853481
    Total Energy =                       -212.3973763185348389
  Basis Set: CC-PVTZ
  Basis Set:
  Basis Set: CC-PVTZ
  Basis Set:
  @DF-RHF Final Energy:  -212.39737898090544
    Total Energy =                       -212.3973789809054438
  Basis Set: CC-PVTZ
  Basis Set:
  Charge       = 0
  Multiplicity = 1
  Basis Set: CC-PVTZ
  Basis Set:

    Orbital Energies (a.u.)
    -----------------------

    Doubly Occupied:

       1A    -15.525009     2A    -11.238248     3A    -11.216055
       4A    -11.213107     5A    -11.208845     6A     -1.176798
       7A     -1.063551     8A     -0.961083     9A     -0.848116
      10A     -0.797912    11A     -0.672369    12A     -0.631663
      13A     -0.597936    14A     -0.586809    15A     -0.561840
      16A     -0.522227    17A     -0.509188    18A     -0.479452
      19A     -0.472401    20A     -0.466146    21A     -0.379085

  @DF-RHF Final Energy:  -212.39737936691478

   => Energetics <=

    Nuclear Repulsion Energy =            186.4256466677769595
    One-Electron Energy =                -655.3903726945674180
    Two-Electron Energy =                 256.5673466598757386
    DFT Exchange-Correlation Energy =       0.0000000000000000
    Empirical Dispersion Energy =           0.0000000000000000
    PCM Polarization Energy =               0.0000000000000000
    EFP Energy =                            0.0000000000000000
    Total Energy =                       -212.3973793669147199
    Molecular point group: c1
  Basis Set: CC-PVTZ
  Basis Set:

  -Total Gradient:
     Atom            X                  Y                   Z
    ------   -----------------  -----------------  -----------------
       1       -0.000481714004    -0.000570756568    -0.002627526222
       2        0.000306089110     0.000292910645     0.002933331868
       3        0.001359678823     0.001923455106     0.001080680399
       4       -0.000000123788     0.000002985530     0.000009986499
       5        0.000048045876     0.000018104829    -0.000005802019
       6       -0.001178161009    -0.001674028405    -0.001404459596
       7       -0.000022771339     0.000013136645     0.000006918031
       8        0.000019349624    -0.000012072671    -0.000000021132
       9        0.000006126287     0.000005457197     0.000002704466
      10       -0.000007698852    -0.000005152791    -0.000010006444
      11       -0.000032365413     0.000009080679     0.000017495955
      12        0.000004698488    -0.000006320840     0.000001280361
      13       -0.000010889044     0.000004842370    -0.000006803220
      14        0.000007141315     0.000008944693     0.000002640119
      15       -0.000016897165    -0.000009107573     0.000002375594
      16       -0.000000508909    -0.000001478849    -0.000002794659

  **** Optimization is complete! (in 5 steps) ****
    Final optimized geometry and variables:
    Molecular point group: c1

    Geometry (in Angstrom), charge = 0, multiplicity = 1:

    H            2.296728300904    -1.275910152802     0.207009629711
    N            2.484302307695    -0.325134164555    -0.030930628150
    C            1.269633433115     0.483007024260     0.021437712954
    H            2.866684562049    -0.335741995947    -0.951403120822
    C           -0.022622757344    -0.326263899139    -0.029137481357
    H            1.276965883592     1.174511737064    -0.814318641375
    H            1.278505241871     1.082038251165     0.926523039514
    C           -1.278415941875     0.535125847832     0.062932097683
    H           -0.043568830876    -0.905679034511    -0.949378008822
    H           -0.020779395806    -1.045281912783     0.788019661882
    C           -2.567727929615    -0.278697885673     0.024737432787
    H           -1.282262861780     1.252655539369    -0.753178021560
    H           -1.247875231436     1.117451058494     0.979515951826
    H           -2.644773458672    -0.846787810096    -0.896341469631
    H           -3.439060302507     0.362515314277     0.091294016881
    H           -2.610896655352    -0.981800381002     0.849831687122

  Mulliken Charges: (a.u.)
   Center  Symbol    Alpha    Beta     Spin     Total
       1     H     0.42940  0.42940  0.00000  0.14120
       2     N     3.69344  3.69344  0.00000 -0.38689
       3     C     3.01938  3.01938  0.00000 -0.03875
       4     H     0.42961  0.42961  0.00000  0.14078
       5     C     3.08794  3.08794  0.00000 -0.17589
       6     H     0.46025  0.46025  0.00000  0.07950
       7     H     0.45888  0.45888  0.00000  0.08223
       8     C     3.09024  3.09024  0.00000 -0.18049
       9     H     0.45810  0.45810  0.00000  0.08379
      10     H     0.45753  0.45753  0.00000  0.08495
      11     C     3.14892  3.14892  0.00000 -0.29785
      12     H     0.45460  0.45460  0.00000  0.09079
      13     H     0.45365  0.45365  0.00000  0.09270
      14     H     0.45514  0.45514  0.00000  0.08972
      15     H     0.44815  0.44815  0.00000  0.10370
      16     H     0.45476  0.45476  0.00000  0.09049

   Total alpha = 21.00000, Total beta = 21.00000, Total charge =  0.00000

*** Psi4 exiting successfully. Buy a developer a beer!
