  ==> Input File <==

--------------------------------------------------------------------------
set {
	reference rhf
	basis cc-pvtz
}

set_num_threads( 4 )
memory 2 gb

molecule MOL {
0 1

H	 -3.162190	 0.493205	 -0.000107
C	 -2.363908	 -0.234727	 0.000005
O	 -1.158738	 0.454634	 -0.000087
H	 -2.464314	 -0.863616	 -0.882153
H	 -2.464327	 -0.863359	 0.882345
C	 -0.866701	 1.105649	 1.196245
C	 0.465905	 1.815292	 1.066004
H	 -0.830744	 0.385969	 2.014417
H	 -1.652816	 1.822979	 1.433107
C	 0.858544	 2.555232	 2.339847
H	 1.223771	 1.082895	 0.810742
H	 0.408211	 2.508509	 0.234095
H	 0.945753	 1.875547	 3.180983
H	 1.813178	 3.052346	 2.219133
H	 0.124908	 3.310879	 2.600315

	symmetry c1
}
set optking {
	frozen_dihedral = ("
		6 3 2 4
	")
}

ee = optimize('scf')
oeprop('DIPOLE', 'QUADRUPOLE', 'MULLIKEN_CHARGES')
f=open( 'psi4out.xyz', 'w' )
f.write( "15  " )
f.write( str(ee) + "\n" )
f.write( MOL.save_string_xyz() )
f.close()
--------------------------------------------------------------------------

    Molecular point group: c1
  Charge       = 0
  Multiplicity = 1
  Basis Set: CC-PVTZ
  Basis Set:
  @DF-RHF Final Energy:  -232.22694090479038
    Total Energy =                       -232.2269409047905810
    Molecular point group: c1
  Basis Set: CC-PVTZ
  Basis Set:
  Basis Set: CC-PVTZ
  Basis Set:
  @DF-RHF Final Energy:  -232.22777788885955
    Total Energy =                       -232.2277778888595776
  Basis Set: CC-PVTZ
  Basis Set:
  Basis Set: CC-PVTZ
  Basis Set:
  @DF-RHF Final Energy:  -232.22798772322150
    Total Energy =                       -232.2279877232213607
  Basis Set: CC-PVTZ
  Basis Set:
  Charge       = 0
  Multiplicity = 1
  Basis Set: CC-PVTZ
  Basis Set:

    Orbital Energies (a.u.)
    -----------------------

    Doubly Occupied:

       1A    -20.547367     2A    -11.264445     3A    -11.261746
       4A    -11.212746     5A    -11.210718     6A     -1.381650
       7A     -1.058462     8A     -0.956158     9A     -0.877352
      10A     -0.809558    11A     -0.677048    12A     -0.655832
      13A     -0.632219    14A     -0.608626    15A     -0.565076
      16A     -0.541317    17A     -0.503696    18A     -0.490174
      19A     -0.478448    20A     -0.462893    21A     -0.416542

  @DF-RHF Final Energy:  -232.22798850209006

   => Energetics <=

    Nuclear Repulsion Energy =            189.9960454485615742
    One-Electron Energy =                -691.2239209239110096
    Two-Electron Energy =                 268.9998869732594358
    DFT Exchange-Correlation Energy =       0.0000000000000000
    Empirical Dispersion Energy =           0.0000000000000000
    PCM Polarization Energy =               0.0000000000000000
    EFP Energy =                            0.0000000000000000
    Total Energy =                       -232.2279885020899997
    Molecular point group: c1
  Basis Set: CC-PVTZ
  Basis Set:

  -Total Gradient:
     Atom            X                  Y                   Z
    ------   -----------------  -----------------  -----------------
       1        0.000035024881     0.000025778807    -0.000006336349
       2       -0.000545786327     0.000906931558    -0.000597346670
       3       -0.000555600297     0.001075403996    -0.000434048314
       4        0.000634313753    -0.000996457671     0.000668910892
       5        0.000037634062     0.000015895697     0.000008352571
       6        0.000441633655    -0.000974445317     0.000493295560
       7        0.000001162932    -0.000023235620    -0.000080533089
       8       -0.000004213030    -0.000004229627     0.000019125393
       9       -0.000000744738    -0.000006902926    -0.000038981145
      10       -0.000058568991    -0.000018387231    -0.000002654479
      11        0.000005719079    -0.000003769011    -0.000004989606
      12        0.000019124544     0.000016128768    -0.000008820506
      13        0.000001454351    -0.000003110411     0.000000315949
      14       -0.000010257359    -0.000014579456    -0.000023585946
      15       -0.000000896518     0.000004978442     0.000007295741

  **** Optimization is complete! (in 4 steps) ****
    Final optimized geometry and variables:
    Molecular point group: c1

    Geometry (in Angstrom), charge = 0, multiplicity = 1:

    H           -2.573193090477    -0.658808114150    -0.914906291500
    C           -1.731164946806    -1.347450920950    -0.913571199913
    O           -0.518315564872    -0.671383096655    -0.910085269521
    H           -1.769849951163    -1.956652469848    -1.805152280866
    H           -1.824710907772    -2.001550823706    -0.049106485209
    C           -0.225619785595    -0.013330532392     0.282132762432
    C            1.109663881608     0.690611588806     0.148205040269
    H           -0.193305167072    -0.728437401738     1.104221828666
    H           -1.008656822809     0.709143360663     0.514624302911
    C            1.506168859523     1.432949673372     1.419483609572
    H            1.864317668032    -0.045865422922    -0.105209708851
    H            1.054528119074     1.381500462135    -0.685875294957
    H            1.591705194922     0.755409675968     2.262580215526
    H            2.462553472399     1.926241913993     1.296375127665
    H            0.775483897430     2.192067267036     1.678391362872

  Mulliken Charges: (a.u.)
   Center  Symbol    Alpha    Beta     Spin     Total
       1     H     0.46973  0.46973  0.00000  0.06054
       2     C     3.03319  3.03319  0.00000 -0.06637
       3     O     4.17179  4.17179  0.00000 -0.34359
       4     H     0.44736  0.44736  0.00000  0.10528
       5     H     0.47398  0.47398  0.00000  0.05203
       6     C     2.95609  2.95609  0.00000  0.08781
       7     C     3.08029  3.08029  0.00000 -0.16058
       8     H     0.47488  0.47488  0.00000  0.05023
       9     H     0.47669  0.47669  0.00000  0.04662
      10     C     3.15582  3.15582  0.00000 -0.31164
      11     H     0.45116  0.45116  0.00000  0.09769
      12     H     0.45104  0.45104  0.00000  0.09793
      13     H     0.45587  0.45587  0.00000  0.08826
      14     H     0.44627  0.44627  0.00000  0.10746
      15     H     0.45583  0.45583  0.00000  0.08835

   Total alpha = 21.00000, Total beta = 21.00000, Total charge = -0.00000
