  ==> Input File <==

--------------------------------------------------------------------------
set {
	reference rhf
	basis 6-31G*
}

set_num_threads( 4 )
memory 2 gb

molecule MOL {
0 1

O	 3.225979	 0.970355	 -0.599647
C	 2.701189	 0.057885	 -0.047330
C	 1.245376	 -0.013843	 0.345420
O	 3.347903	 -1.046386	 0.304773
C	 0.455112	 1.231400	 -0.050772
H	 0.838542	 -0.913825	 -0.103701
H	 1.208210	 -0.175333	 1.419774
C	 -0.998893	 1.219485	 0.433193
H	 0.482531	 1.345121	 -1.130325
H	 0.957290	 2.103070	 0.354729
C	 -1.883438	 0.145884	 -0.207175
H	 -1.431207	 2.195402	 0.224832
H	 -1.019646	 1.105716	 1.516076
C	 -3.347647	 0.245583	 0.225435
H	 -1.822183	 0.231698	 -1.291012
H	 -1.510341	 -0.844814	 0.042401
C	 -4.181674	 -0.973416	 -0.172778
H	 -3.790808	 1.140384	 -0.208354
H	 -3.395979	 0.375588	 1.305463
C	 -5.643480	 -0.864232	 0.259545
H	 -4.133655	 -1.105380	 -1.251630
H	 -3.742761	 -1.868302	 0.263473
H	 -6.208389	 -1.742711	 -0.036697
H	 -6.121080	 0.002581	 -0.188482
H	 -5.727029	 -0.765605	 1.338232
C	 4.728119	 -1.109107	 -0.004993
H	 4.882018	 -1.033965	 -1.071845
H	 5.068212	 -2.067527	 0.355250
H	 5.265056	 -0.311663	 0.488280

	symmetry c1
}
set optking {
	frozen_dihedral = ("
		17 14 11 15
	")
}

ee = optimize('scf')
oeprop('DIPOLE', 'QUADRUPOLE', 'MULLIKEN_CHARGES')
f=open( 'psi4out.xyz', 'w' )
f.write( "29  " )
f.write( str(ee) + "\n" )
f.write( MOL.save_string_xyz() )
f.close()
--------------------------------------------------------------------------

    Molecular point group: c1
  Charge       = 0
  Multiplicity = 1
  Basis Set: 6-31G*
  Basis Set:
  @DF-RHF Final Energy:  -501.04362504340259
    Total Energy =                       -501.0436250434017893
    Molecular point group: c1
  Basis Set: 6-31G*
  Basis Set:
  Basis Set: 6-31G*
  Basis Set:
  @DF-RHF Final Energy:  -501.04362601313846
    Total Energy =                       -501.0436260131388053
  Basis Set: 6-31G*
  Basis Set:
  Basis Set: 6-31G*
  Basis Set:
  @DF-RHF Final Energy:  -501.04368275354636
    Total Energy =                       -501.0436827535465909
  Basis Set: 6-31G*
  Basis Set:
  Basis Set: 6-31G*
  Basis Set:
  @DF-RHF Final Energy:  -501.04368430510976
    Total Energy =                       -501.0436843051095366
  Basis Set: 6-31G*
  Basis Set:
  Basis Set: 6-31G*
  Basis Set:
  @DF-RHF Final Energy:  -501.04368268668111
    Total Energy =                       -501.0436826866808815
  Basis Set: 6-31G*
  Basis Set:
  Basis Set: 6-31G*
  Basis Set:
  @DF-RHF Final Energy:  -501.04369102280475
    Total Energy =                       -501.0436910228042962
  Basis Set: 6-31G*
  Basis Set:
  Charge       = 0
  Multiplicity = 1
  Basis Set: 6-31G*
  Basis Set:

    Orbital Energies (a.u.)
    -----------------------

    Doubly Occupied:

       1A    -20.603354     2A    -20.545175     3A    -11.371982
       4A    -11.280649     5A    -11.234720     6A    -11.218989
       7A    -11.217548     8A    -11.216033     9A    -11.215900
      10A    -11.214455    11A    -11.209061    12A     -1.469047
      13A     -1.362490    14A     -1.098026    15A     -1.066709
      16A     -1.019465    17A     -0.977166    18A     -0.928391
      19A     -0.861679    20A     -0.799377    21A     -0.790419
      22A     -0.763733    23A     -0.700562    24A     -0.682300
      25A     -0.672175    26A     -0.650248    27A     -0.629177
      28A     -0.605389    29A     -0.594417    30A     -0.580974
      31A     -0.566909    32A     -0.549814    33A     -0.531318
      34A     -0.530296    35A     -0.517175    36A     -0.510908
      37A     -0.496220    38A     -0.477868    39A     -0.470724
      40A     -0.461707    41A     -0.459078    42A     -0.455765
      43A     -0.440849    44A     -0.435216

  @DF-RHF Final Energy:  -501.04369134325225

   => Energetics <=

    Nuclear Repulsion Energy =            610.3993197651384435
    One-Electron Energy =               -1891.9191084339672670
    Two-Electron Energy =                 780.4760973255761201
    DFT Exchange-Correlation Energy =       0.0000000000000000
    Empirical Dispersion Energy =           0.0000000000000000
    PCM Polarization Energy =               0.0000000000000000
    EFP Energy =                            0.0000000000000000
    Total Energy =                       -501.0436913432527035
    Molecular point group: c1
  Basis Set: 6-31G*
  Basis Set:

  -Total Gradient:
     Atom            X                  Y                   Z
    ------   -----------------  -----------------  -----------------
       1        0.000000286172     0.000005725158     0.000004190351
       2       -0.000005181821    -0.000005449298    -0.000021198668
       3       -0.000012355636    -0.000005381589     0.000011822245
       4       -0.000004520370     0.000000963566     0.000003955850
       5       -0.000016466264     0.000016296782    -0.000004920527
       6        0.000002078157    -0.000002654201     0.000001807700
       7       -0.000003512054     0.000001657530     0.000003517891
       8        0.000017316536    -0.000005279981     0.000044351914
       9       -0.000006468118     0.000008742064    -0.000000133716
      10        0.000001103657    -0.000003108779     0.000005317945
      11       -0.000166878443    -0.002892990461     0.000294240668
      12       -0.000001218379    -0.000007880716     0.000007784301
      13        0.000040962017     0.000028115227     0.000015133156
      14       -0.000383816687     0.001440800662    -0.001877799923
      15        0.000213668714     0.002090331499     0.000126102277
      16       -0.000024162511     0.000012487697     0.000025541957
      17        0.000315208198    -0.000658687311     0.001308418791
      18        0.000028819673    -0.000005479775     0.000008212180
      19       -0.000001507617     0.000004766835     0.000015563114
      20        0.000008917005    -0.000018159731     0.000035642527
      21        0.000010493865    -0.000020619444    -0.000021947232
      22       -0.000015840137     0.000020022836     0.000002601634
      23        0.000000732145    -0.000002480385     0.000004984898
      24        0.000017904580    -0.000008433933    -0.000004607488
      25       -0.000016266944     0.000006378799     0.000010971903
      26        0.000001172737    -0.000000206965    -0.000000787142
      27       -0.000000881657     0.000000228913     0.000000542205
      28       -0.000000255139     0.000000390997     0.000000552398
      29        0.000000668327    -0.000000095996     0.000000138793

  **** Optimization is complete! (in 7 steps) ****
    Final optimized geometry and variables:
    Molecular point group: c1

    Geometry (in Angstrom), charge = 0, multiplicity = 1:

    O            3.209083983570     1.006947983631    -0.652017966282
    C            2.694116522328     0.090860873015    -0.096445839849
    C            1.241696861139     0.009749191483     0.306814451185
    O            3.350342675700    -1.009476019717     0.250334214366
    C            0.440703388572     1.250267874972    -0.082525071813
    H            0.837057409998    -0.892237050916    -0.140365439380
    H            1.213218841454    -0.153066138330     1.381245241818
    C           -1.009548070708     1.226972825388     0.411425969931
    H            0.459887173922     1.365089368909    -1.162140413350
    H            0.939633109176     2.125025515032     0.320369973277
    C           -1.887546661565     0.137787837216    -0.213854797432
    H           -1.453886981778     2.196513765875     0.197770411228
    H           -1.021828461840     1.122380632262     1.495296301523
    C           -3.358464819582     0.261819636851     0.192826211877
    H           -1.808415600974     0.207890521651    -1.297554205606
    H           -1.520283158648    -0.846327876805     0.066320840747
    C           -4.202754682118    -0.951306149642    -0.201921434552
    H           -3.780185131715     1.161958103457    -0.250087081337
    H           -3.422518467358     0.396207369639     1.271730723934
    C           -5.675127464377    -0.804884589696     0.180436705436
    H           -4.123345130978    -1.115095112380    -1.274855488087
    H           -3.793512164102    -1.840306139994     0.272899560786
    H           -6.245269840582    -1.683830744737    -0.104191627085
    H           -6.124122039341     0.053813193309    -0.310620711654
    H           -5.790188484925    -0.668865167819     1.252198483083
    C            4.728621594376    -1.063352333025    -0.069557902027
    H            4.874227270350    -0.986761908958    -1.137474769265
    H            5.077356080478    -2.019770038203     0.287714907401
    H            5.264118145996    -0.262765359569     0.420179043783

  Mulliken Charges: (a.u.)
   Center  Symbol    Alpha    Beta     Spin     Total
       1     O     4.28597  4.28597  0.00000 -0.57193
       2     C     2.60482  2.60482  0.00000  0.79036
       3     C     3.20979  3.20979  0.00000 -0.41957
       4     O     4.30746  4.30746  0.00000 -0.61493
       5     C     3.15380  3.15380  0.00000 -0.30759
       6     H     0.39872  0.39872  0.00000  0.20256
       7     H     0.40128  0.40128  0.00000  0.19745
       8     C     3.15709  3.15709  0.00000 -0.31418
       9     H     0.41316  0.41316  0.00000  0.17369
      10     H     0.40880  0.40880  0.00000  0.18241
      11     C     3.15512  3.15512  0.00000 -0.31025
      12     H     0.41827  0.41827  0.00000  0.16346
      13     H     0.42380  0.42380  0.00000  0.15240
      14     C     3.15065  3.15065  0.00000 -0.30129
      15     H     0.42228  0.42228  0.00000  0.15545
      16     H     0.42328  0.42328  0.00000  0.15345
      17     C     3.15165  3.15165  0.00000 -0.30330
      18     H     0.42250  0.42250  0.00000  0.15501
      19     H     0.42415  0.42415  0.00000  0.15171
      20     C     3.23943  3.23943  0.00000 -0.47887
      21     H     0.42298  0.42298  0.00000  0.15405
      22     H     0.42330  0.42330  0.00000  0.15340
      23     H     0.41925  0.41925  0.00000  0.16151
      24     H     0.42151  0.42151  0.00000  0.15697
      25     H     0.42183  0.42183  0.00000  0.15633
      26     C     3.09240  3.09240  0.00000 -0.18481
      27     H     0.40909  0.40909  0.00000  0.18183
      28     H     0.40852  0.40852  0.00000  0.18296
      29     H     0.40913  0.40913  0.00000  0.18175

   Total alpha = 44.00000, Total beta = 44.00000, Total charge =  0.00000
