  ==> Input File <==

--------------------------------------------------------------------------
set {
	reference rhf
	basis 6-31G*
}

set_num_threads( 4 )
memory 2 gb

molecule MOL {
0 1

H	 3.729471	 -0.928294	 -0.070608
O	 2.826016	 -1.159218	 0.122261
C	 2.077727	 -0.067559	 -0.035091
C	 0.624473	 -0.343591	 0.253101
O	 2.542965	 0.974826	 -0.363729
C	 -0.265902	 0.883932	 0.072916
H	 0.324016	 -1.163849	 -0.390541
H	 0.565024	 -0.726111	 1.268924
C	 -1.728698	 0.646073	 0.462102
H	 -0.209144	 1.219470	 -0.958188
H	 0.135059	 1.692851	 0.673903
C	 -2.482460	 -0.343073	 -0.431425
H	 -2.245265	 1.602650	 0.432430
H	 -1.779332	 0.308348	 1.496285
C	 -3.376026	 -1.292178	 0.366833
H	 -3.089942	 0.210052	 -1.144911
H	 -1.780173	 -0.930197	 -1.017479
H	 -3.897916	 -1.983892	 -0.286983
H	 -4.123292	 -0.743612	 0.932959
H	 -2.793503	 -1.878882	 1.071591

	symmetry c1
}
set optking {
	frozen_dihedral = ("
		16 12 9 6
	")
}

ee = optimize('scf')
oeprop('DIPOLE', 'QUADRUPOLE', 'MULLIKEN_CHARGES')
f=open( 'psi4out.xyz', 'w' )
f.write( "20  " )
f.write( str(ee) + "\n" )
f.write( MOL.save_string_xyz() )
f.close()
--------------------------------------------------------------------------

    Molecular point group: c1
  Charge       = 0
  Multiplicity = 1
  Basis Set: 6-31G*
  Basis Set:
  @DF-RHF Final Energy:  -383.94384716386207
    Total Energy =                       -383.9438471638620740
    Molecular point group: c1
  Basis Set: 6-31G*
  Basis Set:
  Basis Set: 6-31G*
  Basis Set:
  @DF-RHF Final Energy:  -383.94410984248083
    Total Energy =                       -383.9441098424808843
  Basis Set: 6-31G*
  Basis Set:
  Basis Set: 6-31G*
  Basis Set:
  @DF-RHF Final Energy:  -383.94436591304691
    Total Energy =                       -383.9443659130470792
  Basis Set: 6-31G*
  Basis Set:
  Basis Set: 6-31G*
  Basis Set:
  @DF-RHF Final Energy:  -383.94437474208792
    Total Energy =                       -383.9443747420880868
  Basis Set: 6-31G*
  Basis Set:
  Basis Set: 6-31G*
  Basis Set:
  @DF-RHF Final Energy:  -383.94437944710313
    Total Energy =                       -383.9443794471028468
  Basis Set: 6-31G*
  Basis Set:
  Basis Set: 6-31G*
  Basis Set:
  @DF-RHF Final Energy:  -383.94438492386945
    Total Energy =                       -383.9443849238693929
  Basis Set: 6-31G*
  Basis Set:
  Basis Set: 6-31G*
  Basis Set:
  @DF-RHF Final Energy:  -383.94438799205153
    Total Energy =                       -383.9443879920518157
  Basis Set: 6-31G*
  Basis Set:
  Charge       = 0
  Multiplicity = 1
  Basis Set: 6-31G*
  Basis Set:

    Orbital Energies (a.u.)
    -----------------------

    Doubly Occupied:

       1A    -20.612702     2A    -20.551775     3A    -11.381395
       4A    -11.240576     5A    -11.223194     6A    -11.220491
       7A    -11.219935     8A    -11.212806     9A     -1.474764
      10A     -1.365825    11A     -1.095403    12A     -1.039609
      13A     -0.961382    14A     -0.868984    15A     -0.814227
      16A     -0.779533    17A     -0.699704    18A     -0.690901
      19A     -0.663918    20A     -0.629896    21A     -0.606215
      22A     -0.593650    23A     -0.580656    24A     -0.553218
      25A     -0.537363    26A     -0.509812    27A     -0.502227
      28A     -0.479330    29A     -0.469526    30A     -0.464525
      31A     -0.456070    32A     -0.443703

  @DF-RHF Final Energy:  -383.94438847206771

   => Energetics <=

    Nuclear Repulsion Energy =            377.7178659817880657
    One-Electron Energy =               -1271.4378772392681185
    Two-Electron Energy =                 509.7756227854124518
    DFT Exchange-Correlation Energy =       0.0000000000000000
    Empirical Dispersion Energy =           0.0000000000000000
    PCM Polarization Energy =               0.0000000000000000
    EFP Energy =                            0.0000000000000000
    Total Energy =                       -383.9443884720676579
    Molecular point group: c1
  Basis Set: 6-31G*
  Basis Set:

  -Total Gradient:
     Atom            X                  Y                   Z
    ------   -----------------  -----------------  -----------------
       1       -0.000001184023     0.000001397455     0.000000672477
       2       -0.000003458853    -0.000003235304     0.000000886810
       3        0.000001595404    -0.000003755317    -0.000009217510
       4       -0.000000008469     0.000005278055     0.000037880244
       5       -0.000000570367     0.000009603305     0.000018766999
       6        0.000670220683    -0.001747035761     0.001302512902
       7        0.000018996771     0.000009764315    -0.000020578052
       8       -0.000019224806    -0.000016152751    -0.000001568201
       9       -0.001477738175     0.002510208445    -0.001323975205
      10       -0.000023900595    -0.000029361319    -0.000018427232
      11        0.000017656456     0.000012523425    -0.000042523490
      12        0.003144176542    -0.000617065009    -0.001993749214
      13        0.000009963741    -0.000007211862     0.000025483619
      14        0.000010699553    -0.000013045697     0.000001321994
      15       -0.000007535665     0.000003530800    -0.000014480426
      16       -0.002339786878    -0.000114462328     0.002031251124
      17       -0.000003031813    -0.000004213675     0.000012636815
      18       -0.000009555193     0.000000761797    -0.000000225370
      19        0.000008130222     0.000003200900     0.000002820447
      20        0.000004555459    -0.000000729469    -0.000009488731

  **** Optimization is complete! (in 8 steps) ****
    Final optimized geometry and variables:
    Molecular point group: c1

    Geometry (in Angstrom), charge = 0, multiplicity = 1:

    H            3.655893724677    -0.821283963357    -0.139498301731
    O            2.765554373102    -1.030779043441     0.125399091421
    C            2.002943555578     0.037300448642    -0.106852715082
    C            0.569351913984    -0.206485198398     0.288431998515
    O            2.442952101960     1.039060175184    -0.569256489966
    C           -0.337518170537     0.995634745773     0.035851447611
    H            0.236580374078    -1.089893644854    -0.247575129521
    H            0.568149028983    -0.481378832129     1.339927600458
    C           -1.793762661823     0.742100904967     0.443270504517
    H           -0.286782722324     1.272652285138    -1.012722659574
    H            0.051631884501     1.843677990641     0.589180228765
    C           -2.563721865263    -0.222496113249    -0.483983038949
    H           -2.316507321598     1.692727823065     0.485550982300
    H           -1.804198270181     0.354439406295     1.460468915410
    C           -3.470667272890    -1.190771072079     0.277795376183
    H           -3.182380107826     0.354521848208    -1.165527274992
    H           -1.875882365440    -0.792491363816    -1.101584248526
    H           -4.031105181508    -1.824326344401    -0.402817981179
    H           -4.185942921576    -0.652704014973     0.893591772145
    H           -2.892881654466    -1.836305359725     0.933529865042

  Mulliken Charges: (a.u.)
   Center  Symbol    Alpha    Beta     Spin     Total
       1     H     0.26782  0.26782  0.00000  0.46436
       2     O     4.35150  4.35150  0.00000 -0.70301
       3     C     2.62254  2.62254  0.00000  0.75491
       4     C     3.21184  3.21184  0.00000 -0.42368
       5     O     4.27911  4.27911  0.00000 -0.55822
       6     C     3.15548  3.15548  0.00000 -0.31095
       7     H     0.39764  0.39764  0.00000  0.20472
       8     H     0.39876  0.39876  0.00000  0.20248
       9     C     3.15956  3.15956  0.00000 -0.31913
      10     H     0.41074  0.41074  0.00000  0.17851
      11     H     0.40988  0.40988  0.00000  0.18025
      12     C     3.15573  3.15573  0.00000 -0.31145
      13     H     0.41490  0.41490  0.00000  0.17020
      14     H     0.42223  0.42223  0.00000  0.15554
      15     C     3.24014  3.24014  0.00000 -0.48027
      16     H     0.41800  0.41800  0.00000  0.16401
      17     H     0.42190  0.42190  0.00000  0.15620
      18     H     0.41930  0.41930  0.00000  0.16140
      19     H     0.42048  0.42048  0.00000  0.15904
      20     H     0.42245  0.42245  0.00000  0.15510

   Total alpha = 32.00000, Total beta = 32.00000, Total charge = -0.00000
