  ==> Input File <==

--------------------------------------------------------------------------
set {
	reference rhf
	basis 6-31G*
}

set_num_threads( 4 )
memory 2 gb

molecule MOL {
0 1

H	 0.716789	 2.689732	 4.778233
C	 0.827966	 2.215382	 3.819371
C	 0.224727	 2.769069	 2.700138
C	 1.573789	 1.052637	 3.706658
H	 -0.353419	 3.670860	 2.788936
C	 0.368131	 2.158574	 1.467574
H	 2.040674	 0.624889	 4.575367
C	 1.718702	 0.439788	 2.473860
H	 -0.091549	 2.572862	 0.590800
C	 1.115364	 0.992216	 1.350218
H	 2.294953	 -0.460112	 2.382025
C	 1.239129	 0.373821	 0.000060
O	 1.970282	 -0.730723	 0.000018
O	 0.736665	 0.818381	 -0.984194
C	 3.377318	 -0.566646	 -0.000065
H	 3.695437	 -0.028981	 -0.881264
H	 3.789299	 -1.563704	 0.000236
H	 3.695516	 -0.028316	 0.880770

	symmetry c1
}
set optking {
	frozen_dihedral = ("
		10 12 13 15
	")
}

ee = optimize('scf')
oeprop('DIPOLE', 'QUADRUPOLE', 'MULLIKEN_CHARGES')
f=open( 'psi4out.xyz', 'w' )
f.write( "18  " )
f.write( str(ee) + "\n" )
f.write( MOL.save_string_xyz() )
f.close()
--------------------------------------------------------------------------

    Molecular point group: c1
  Charge       = 0
  Multiplicity = 1
  Basis Set: 6-31G*
  Basis Set:
  @DF-RHF Final Energy:  -457.32689420609927
    Total Energy =                       -457.3268942060990412
    Molecular point group: c1
  Basis Set: 6-31G*
  Basis Set:
  Basis Set: 6-31G*
  Basis Set:
  @DF-RHF Final Energy:  -457.33006771747745
    Total Energy =                       -457.3300677174781868
  Basis Set: 6-31G*
  Basis Set:
  Basis Set: 6-31G*
  Basis Set:
  @DF-RHF Final Energy:  -457.32897209601924
    Total Energy =                       -457.3289720960194700
  Basis Set: 6-31G*
  Basis Set:
  Basis Set: 6-31G*
  Basis Set:
  @DF-RHF Final Energy:  -457.33057868147404
    Total Energy =                       -457.3305786814735256
  Basis Set: 6-31G*
  Basis Set:
  Basis Set: 6-31G*
  Basis Set:
  @DF-RHF Final Energy:  -457.33061715181458
    Total Energy =                       -457.3306171518149768
  Basis Set: 6-31G*
  Basis Set:
  Basis Set: 6-31G*
  Basis Set:
  @DF-RHF Final Energy:  -457.33061877641057
    Total Energy =                       -457.3306187764104607
  Basis Set: 6-31G*
  Basis Set:
  Charge       = 0
  Multiplicity = 1
  Basis Set: 6-31G*
  Basis Set:

    Orbital Energies (a.u.)
    -----------------------

    Doubly Occupied:

       1A    -20.589357     2A    -20.555262     3A    -11.379584
       4A    -11.291682     5A    -11.251261     6A    -11.250381
       7A    -11.249874     8A    -11.246995     9A    -11.243428
      10A    -11.242153    11A     -1.460590    12A     -1.368332
      13A     -1.170118    14A     -1.046243    15A     -1.030321
      16A     -0.975424    17A     -0.872695    18A     -0.841045
      19A     -0.780209    20A     -0.737281    21A     -0.685903
      22A     -0.676221    23A     -0.663231    24A     -0.639357
      25A     -0.627514    26A     -0.609784    27A     -0.598904
      28A     -0.561675    29A     -0.530607    30A     -0.520197
      31A     -0.505730    32A     -0.492369    33A     -0.463334
      34A     -0.442065    35A     -0.349809    36A     -0.346546

  @DF-RHF Final Energy:  -457.33061899341112

   => Energetics <=

    Nuclear Repulsion Energy =            496.5985661117531436
    One-Electron Energy =               -1607.2674087743912423
    Two-Electron Energy =                 653.3382236692270908
    DFT Exchange-Correlation Energy =       0.0000000000000000
    Empirical Dispersion Energy =           0.0000000000000000
    PCM Polarization Energy =               0.0000000000000000
    EFP Energy =                            0.0000000000000000
    Total Energy =                       -457.3306189934110080
    Molecular point group: c1
  Basis Set: 6-31G*
  Basis Set:

  -Total Gradient:
     Atom            X                  Y                   Z
    ------   -----------------  -----------------  -----------------
       1        0.000001921462     0.000003416634    -0.000000281866
       2        0.000003561741    -0.000010156791    -0.000002105028
       3        0.000001617358     0.000007996805    -0.000003908208
       4       -0.000024243840    -0.000004812279     0.000000849797
       5       -0.000001208308    -0.000000260378     0.000004233394
       6       -0.000003398195     0.000015412412    -0.000002543665
       7        0.000005492180     0.000002625304    -0.000002417992
       8        0.000038476014     0.000008829837    -0.000007599107
       9       -0.000000086103    -0.000000380293     0.000003778642
      10        0.001129387454     0.000922762426    -0.000406321309
      11       -0.000010848256     0.000009380438    -0.000003082067
      12       -0.001639129640    -0.001387518003     0.001361744038
      13        0.000329493230     0.000401732841    -0.002587679787
      14        0.000035218443    -0.000007763893     0.000016659824
      15        0.000135207393     0.000035425504     0.001627095224
      16        0.000007636685     0.000005231613     0.000006678104
      17        0.000006045624    -0.000000369074    -0.000000268636
      18       -0.000015143244    -0.000001553105    -0.000004831352

  **** Optimization is complete! (in 7 steps) ****
    Final optimized geometry and variables:
    Molecular point group: c1

    Geometry (in Angstrom), charge = 0, multiplicity = 1:

    H           -0.624590355487     1.892841347467     3.381107248365
    C           -0.520275652880     1.385236934128     2.438800270977
    C           -1.017043649976     1.967206831307     1.281218629699
    C            0.105178367270     0.150265613780     2.385514920060
    H           -1.505449107439     2.923696919411     1.325372837634
    C           -0.887932579438     1.312785986067     0.070522309408
    H            0.480484071876    -0.304325817520     3.284375815019
    C            0.243990717120    -0.501771556680     1.171615039614
    H           -1.276655691756     1.744413581164    -0.832027625447
    C           -0.248503336131     0.078671089431     0.008893657464
    H            0.717259081734    -1.464186834183     1.127879805852
    C           -0.139959548053    -0.603415022752    -1.314929847408
    O            0.725866070574    -1.637929763112    -1.367717986849
    O           -0.772209018874    -0.283643301738    -2.263119380501
    C            2.095483217003    -1.315058709598    -1.508259809687
    H            2.270627419025    -0.830810611336    -2.461139379439
    H            2.633793341354    -2.249362606822    -1.474578815120
    H            2.434391005817    -0.672062484557    -0.705087542892

  Mulliken Charges: (a.u.)
   Center  Symbol    Alpha    Beta     Spin     Total
       1     H     0.39425  0.39425  0.00000  0.21150
       2     C     3.09067  3.09067  0.00000 -0.18134
       3     C     3.10608  3.10608  0.00000 -0.21215
       4     C     3.10568  3.10568  0.00000 -0.21136
       5     H     0.39411  0.39411  0.00000  0.21178
       6     C     3.08576  3.08576  0.00000 -0.17152
       7     H     0.39511  0.39511  0.00000  0.20978
       8     C     3.09471  3.09471  0.00000 -0.18942
       9     H     0.37665  0.37665  0.00000  0.24670
      10     C     3.07482  3.07482  0.00000 -0.14965
      11     H     0.38353  0.38353  0.00000  0.23294
      12     C     2.59860  2.59860  0.00000  0.80281
      13     O     4.31970  4.31970  0.00000 -0.63941
      14     O     4.25592  4.25592  0.00000 -0.51185
      15     C     3.09525  3.09525  0.00000 -0.19051
      16     H     0.40894  0.40894  0.00000  0.18211
      17     H     0.40306  0.40306  0.00000  0.19389
      18     H     0.41715  0.41715  0.00000  0.16569

   Total alpha = 36.00000, Total beta = 36.00000, Total charge =  0.00000
