                              Psi4 1.0.54 Driver

  ==> Input File <==

--------------------------------------------------------------------------
set {
	reference rhf
	basis cc-pvtz
}

set_num_threads( 4 )
memory 2 gb

molecule MOL {
0 1

O	 -2.374409	 1.338660	 -0.336961
C	 -2.104891	 0.204655	 -0.107126
C	 -0.881910	 -0.448129	 -0.720509
C	 -2.949910	 -0.638219	 0.818225
C	 0.308535	 0.519038	 -0.736936
H	 -1.134902	 -0.730048	 -1.734722
H	 -0.619767	 -1.346479	 -0.171771
C	 1.553792	 -0.104872	 -1.363497
H	 0.015748	 1.408737	 -1.280020
H	 0.539432	 0.833374	 0.278041
C	 2.790023	 0.795987	 -1.353831
H	 1.330271	 -0.396231	 -2.386790
H	 1.790298	 -1.021971	 -0.830959
C	 2.676743	 2.043114	 -2.227169
H	 3.640249	 0.211108	 -1.690491
H	 3.011714	 1.089837	 -0.331169
H	 2.449549	 1.779060	 -3.254908
H	 3.608744	 2.596418	 -2.227491
H	 1.900828	 2.714190	 -1.879473
H	 -3.440322	 -1.417144	 0.243099
H	 -3.694377	 -0.025850	 1.303346
H	 -2.331085	 -1.129829	 1.560495

	symmetry c1
}
set optking {
	frozen_dihedral = ("
		6 3 2 1
	")
}

ee,wfn = optimize('scf', return_wfn=True)
oeprop( wfn, 'DIPOLE', 'QUADRUPOLE', 'MULLIKEN_CHARGES')
f=open( 'psi4out.xyz', 'w' )
f.write( "22  " )
f.write( str(ee) + "\n" )
f.write( MOL.save_string_xyz() )
f.close()
--------------------------------------------------------------------------

    Molecular point group: c1
  Charge       = 0
  Multiplicity = 1
  Basis Set: CC-PVTZ
  Basis Set:
  @DF-RHF Final Energy:  -348.22314273686226
    Total Energy =                       -348.2231427368623145
    Molecular point group: c1
  Basis Set: CC-PVTZ
  Basis Set:
  Basis Set: CC-PVTZ
  Basis Set:
  @DF-RHF Final Energy:  -348.22170229724492
    Total Energy =                       -348.2217022972450309
  Basis Set: CC-PVTZ
  Basis Set:
  Basis Set: CC-PVTZ
  Basis Set:
  @DF-RHF Final Energy:  -348.22370684206112
    Total Energy =                       -348.2237068420608921
  Basis Set: CC-PVTZ
  Basis Set:
  Basis Set: CC-PVTZ
  Basis Set:
  @DF-RHF Final Energy:  -348.22390369137429
    Total Energy =                       -348.2239036913746304
  Basis Set: CC-PVTZ
  Basis Set:
  Basis Set: CC-PVTZ
  Basis Set:
  @DF-RHF Final Energy:  -348.22395644133957
    Total Energy =                       -348.2239564413396806
  Basis Set: CC-PVTZ
  Basis Set:
  Basis Set: CC-PVTZ
  Basis Set:
  @DF-RHF Final Energy:  -348.22399081388903
    Total Energy =                       -348.2239908138892588
  Basis Set: CC-PVTZ
  Basis Set:
  Basis Set: CC-PVTZ
  Basis Set:
  @DF-RHF Final Energy:  -348.22399668440744
    Total Energy =                       -348.2239966844069841
  Basis Set: CC-PVTZ
  Basis Set:
  Charge       = 0
  Multiplicity = 1
  Basis Set: CC-PVTZ
  Basis Set:

    Orbital Energies (a.u.)
    -----------------------

    Doubly Occupied:

       1A    -20.537551     2A    -11.320673     3A    -11.229320
       4A    -11.227313     5A    -11.218197     6A    -11.216525
       7A    -11.215378     8A    -11.205995     9A     -1.398294
      10A     -1.092773    11A     -1.043698    12A     -1.002108
      13A     -0.936159    14A     -0.855321    15A     -0.782871
      16A     -0.732640    17A     -0.662029    18A     -0.646985
      19A     -0.628380    20A     -0.619582    21A     -0.598810
      22A     -0.582061    23A     -0.563602    24A     -0.546536
      25A     -0.528779    26A     -0.512526    27A     -0.500418
      28A     -0.485883    29A     -0.467483    30A     -0.462057
      31A     -0.458617    32A     -0.399893

  @DF-RHF Final Energy:  -348.22399734951381

   => Energetics <=

    Nuclear Repulsion Energy =            373.1251855014548369
    One-Electron Energy =               -1211.3414497180219769
    Two-Electron Energy =                 489.9922668670532175
    DFT Exchange-Correlation Energy =       0.0000000000000000
    Empirical Dispersion Energy =           0.0000000000000000
    PCM Polarization Energy =               0.0000000000000000
    EFP Energy =                            0.0000000000000000
    Total Energy =                       -348.2239973495139793
    Molecular point group: c1
  Basis Set: CC-PVTZ
  Basis Set:

  -Total Gradient:
     Atom            X                  Y                   Z
    ------   -----------------  -----------------  -----------------
       1       -0.000768779153    -0.000697688617    -0.000988285386
       2        0.001088828784     0.000979503323     0.001522796156
       3       -0.000755654071    -0.001582478447    -0.000002580720
       4       -0.000102542356     0.000130281817    -0.000088279457
       5        0.000030343511     0.000043216233    -0.000099078887
       6        0.000371946677     0.001118643814    -0.000433845426
       7       -0.000030114770     0.000040616704     0.000014261490
       8        0.000008161194    -0.000008778384     0.000084245393
       9        0.000009107972     0.000026597537     0.000019170595
      10        0.000043118279    -0.000037741505    -0.000013989250
      11        0.000033885305    -0.000026528677    -0.000038618374
      12       -0.000015101571     0.000000969503     0.000030097996
      13        0.000004121273    -0.000008678889     0.000012706037
      14       -0.000024514850     0.000000040161     0.000021771872
      15       -0.000001329937     0.000012595045    -0.000014817250
      16        0.000011919219    -0.000010576204    -0.000012035486
      17        0.000014136984    -0.000003371913     0.000010563633
      18       -0.000016969130     0.000002822592     0.000011537695
      19       -0.000037177628     0.000002101872     0.000002257540
      20        0.000038677446     0.000049401439    -0.000030252695
      21        0.000056063410    -0.000025688831    -0.000043795829
      22        0.000041873402    -0.000005258573     0.000036170351

  **** Optimization is complete! (in 8 steps) ****
    Final optimized geometry and variables:
    Molecular point group: c1

    Geometry (in Angstrom), charge = 0, multiplicity = 1:

    O           -2.298499002917     0.831387825905     0.407016605837
    C           -1.983380669285    -0.283811883265     0.666696210592
    C           -0.724841555102    -0.907626064656     0.089667797909
    C           -2.836939752865    -1.160424070107     1.550052316490
    C            0.460024875158     0.054809359970     0.040658685139
    H           -0.981121743762    -1.216851250265    -0.921442287379
    H           -0.470305385636    -1.807704394660     0.637888815459
    C            1.684714164446    -0.565070671996    -0.628400700519
    H            0.151316358340     0.951341610494    -0.477626393694
    H            0.716959686521     0.356435531107     1.052898808844
    C            2.925470571243     0.329458666637    -0.633884574336
    H            1.435273128977    -0.835944394972    -1.651980004827
    H            1.932217008826    -1.493956173358    -0.121098622989
    C            2.790556166019     1.599090698236    -1.470882274105
    H            3.763083033422    -0.249400315174    -1.010589395428
    H            3.178291337085     0.596739873360     0.388745922902
    H            2.535433345856     1.362108751955    -2.498812807691
    H            3.723080265995     2.151517140068    -1.482125196920
    H            2.025018986328     2.260654745035    -1.084603041702
    H           -3.064620715466    -2.092166193473     1.043291236524
    H           -3.750327171425    -0.649101052629     1.811844469624
    H           -2.286948720441    -1.412496730925     2.451097313867

  Mulliken Charges: (a.u.)
   Center  Symbol    Alpha    Beta     Spin     Total
       1     O     4.17408  4.17408  0.00000 -0.34815
       2     C     2.85943  2.85943  0.00000  0.28114
       3     C     3.10763  3.10763  0.00000 -0.21525
       4     C     3.15282  3.15282  0.00000 -0.30563
       5     C     3.09318  3.09318  0.00000 -0.18636
       6     H     0.44389  0.44389  0.00000  0.11222
       7     H     0.44511  0.44511  0.00000  0.10977
       8     C     3.09646  3.09646  0.00000 -0.19293
       9     H     0.43636  0.43636  0.00000  0.12728
      10     H     0.45300  0.45300  0.00000  0.09399
      11     C     3.09032  3.09032  0.00000 -0.18064
      12     H     0.45350  0.45350  0.00000  0.09301
      13     H     0.45039  0.45039  0.00000  0.09923
      14     C     3.15237  3.15237  0.00000 -0.30474
      15     H     0.44843  0.44843  0.00000  0.10313
      16     H     0.45447  0.45447  0.00000  0.09107
      17     H     0.45495  0.45495  0.00000  0.09010
      18     H     0.44672  0.44672  0.00000  0.10655
      19     H     0.45090  0.45090  0.00000  0.09820
      20     H     0.44992  0.44992  0.00000  0.10016
      21     H     0.43627  0.43627  0.00000  0.12746
      22     H     0.44979  0.44979  0.00000  0.10042

   Total alpha = 32.00000, Total beta = 32.00000, Total charge = -0.00000

*** Psi4 exiting successfully. Buy a developer a beer!
