  ==> Input File <==

--------------------------------------------------------------------------
set {
	reference rhf
	basis 6-31G*
}

set_num_threads( 4 )
memory 2 gb

molecule MOL {
0 1

O	 3.225979	 0.970355	 -0.599647
C	 2.701189	 0.057885	 -0.047330
C	 1.245376	 -0.013843	 0.345420
O	 3.347903	 -1.046386	 0.304773
C	 0.455112	 1.231400	 -0.050772
H	 0.838542	 -0.913825	 -0.103701
H	 1.208210	 -0.175333	 1.419774
C	 -0.998893	 1.219485	 0.433193
H	 0.482531	 1.345121	 -1.130325
H	 0.957290	 2.103070	 0.354729
C	 -1.883438	 0.145884	 -0.207175
H	 -1.431207	 2.195402	 0.224832
H	 -1.019646	 1.105716	 1.516076
C	 -3.347647	 0.245583	 0.225435
H	 -1.822183	 0.231698	 -1.291012
H	 -1.510341	 -0.844814	 0.042401
C	 -4.239992	 -0.825570	 -0.404234
H	 -3.732888	 1.230466	 -0.033079
H	 -3.408585	 0.170602	 1.310038
C	 -5.621486	 -0.908979	 0.244009
H	 -4.352129	 -0.621313	 -1.466942
H	 -3.748193	 -1.793265	 -0.330203
H	 -6.230179	 -1.676713	 -0.223628
H	 -6.153486	 0.034096	 0.155794
H	 -5.544759	 -1.146278	 1.301400
C	 4.728119	 -1.109107	 -0.004993
H	 4.882018	 -1.033965	 -1.071845
H	 5.068212	 -2.067527	 0.355250
H	 5.265056	 -0.311663	 0.488280

	symmetry c1
}
set optking {
	frozen_dihedral = ("
		21 17 14 11
	")
}

ee = optimize('scf')
oeprop('DIPOLE', 'QUADRUPOLE', 'MULLIKEN_CHARGES')
f=open( 'psi4out.xyz', 'w' )
f.write( "29  " )
f.write( str(ee) + "\n" )
f.write( MOL.save_string_xyz() )
f.close()
--------------------------------------------------------------------------

    Molecular point group: c1
  Charge       = 0
  Multiplicity = 1
  Basis Set: 6-31G*
  Basis Set:
  @DF-RHF Final Energy:  -501.04354424411849
    Total Energy =                       -501.0435442441179248
    Molecular point group: c1
  Basis Set: 6-31G*
  Basis Set:
  Basis Set: 6-31G*
  Basis Set:
  @DF-RHF Final Energy:  -501.04357602570792
    Total Energy =                       -501.0435760257084894
  Basis Set: 6-31G*
  Basis Set:
  Basis Set: 6-31G*
  Basis Set:
  @DF-RHF Final Energy:  -501.04361288070970
    Total Energy =                       -501.0436128807085652
  Basis Set: 6-31G*
  Basis Set:
  Charge       = 0
  Multiplicity = 1
  Basis Set: 6-31G*
  Basis Set:

    Orbital Energies (a.u.)
    -----------------------

    Doubly Occupied:

       1A    -20.603376     2A    -20.545200     3A    -11.372011
       4A    -11.280666     5A    -11.234761     6A    -11.219082
       7A    -11.217598     8A    -11.215995     9A    -11.215867
      10A    -11.214443    11A    -11.208956    12A     -1.469073
      13A     -1.362516    14A     -1.097955    15A     -1.066663
      16A     -1.019480    17A     -0.977187    18A     -0.928428
      19A     -0.861461    20A     -0.799308    21A     -0.790391
      22A     -0.763821    23A     -0.700738    24A     -0.682331
      25A     -0.672139    26A     -0.651246    27A     -0.627792
      28A     -0.605452    29A     -0.595122    30A     -0.581137
      31A     -0.566488    32A     -0.549189    33A     -0.532203
      34A     -0.530544    35A     -0.516015    36A     -0.510152
      37A     -0.497602    38A     -0.477476    39A     -0.470617
      40A     -0.461421    41A     -0.459465    42A     -0.455770
      43A     -0.440964    44A     -0.435198

  @DF-RHF Final Energy:  -501.04361333114423

   => Energetics <=

    Nuclear Repulsion Energy =            610.1970831392524133
    One-Electron Energy =               -1891.5148009218428342
    Two-Electron Energy =                 780.2741044514465329
    DFT Exchange-Correlation Energy =       0.0000000000000000
    Empirical Dispersion Energy =           0.0000000000000000
    PCM Polarization Energy =               0.0000000000000000
    EFP Energy =                            0.0000000000000000
    Total Energy =                       -501.0436133311440017
    Molecular point group: c1
  Basis Set: 6-31G*
  Basis Set:

  -Total Gradient:
     Atom            X                  Y                   Z
    ------   -----------------  -----------------  -----------------
       1        0.000061631300     0.000114955995     0.000244571147
       2       -0.000173120689    -0.000319161213    -0.000670734917
       3        0.000078879530     0.000098335283     0.000221731221
       4        0.000046077774     0.000093035610     0.000192028182
       5       -0.000022239392     0.000007947253    -0.000071018062
       6        0.000109929023     0.000034384712    -0.000002251379
       7       -0.000046808477    -0.000009848332     0.000022935251
       8       -0.000018075612    -0.000020042207    -0.000022440556
       9        0.000019418909    -0.000011316893    -0.000010615801
      10       -0.000014283644     0.000006679945    -0.000012036244
      11        0.000358120563    -0.001117566305     0.001407763420
      12       -0.000031854558    -0.000004653796     0.000038410201
      13        0.000023210423    -0.000050253817     0.000006348021
      14       -0.000926635977     0.001899836805    -0.001758376886
      15        0.000101293417    -0.000030892781    -0.000023640766
      16       -0.000115177151     0.000060937186     0.000029775839
      17        0.002635393875    -0.002112481161    -0.000336797123
      18       -0.000085145645    -0.000099811436     0.000049443723
      19        0.000072983386    -0.000008859231     0.000062958353
      20        0.000014469427    -0.000028925738     0.000047053505
      21       -0.001975690235     0.001398952569     0.000442172005
      22       -0.000063371509     0.000072758697     0.000099637455
      23        0.000005734997    -0.000004369311     0.000013804778
      24       -0.000006075627    -0.000008362837    -0.000025262066
      25       -0.000050828150     0.000033774003     0.000045392606
      26        0.000001391874     0.000001808130     0.000004091444
      27       -0.000007500683     0.000001727256     0.000001466459
      28        0.000000634787     0.000002305112     0.000003901705
      29        0.000007638056    -0.000000893499    -0.000000311517

  **** Optimization is complete! (in 4 steps) ****
    Final optimized geometry and variables:
    Molecular point group: c1

    Geometry (in Angstrom), charge = 0, multiplicity = 1:

    O            3.214762424304     0.987639181208    -0.637057483869
    C            2.696985247561     0.078429814725    -0.072875126312
    C            1.243615098981     0.004215125665     0.328359433941
    O            3.351664278538    -1.017108136604     0.291572759543
    C            0.444966120382     1.240481003325    -0.079076159292
    H            0.839275462661    -0.903377566444    -0.107450450349
    H            1.212846397889    -0.144088478636     1.404820005145
    C           -1.006465430232     1.227732493941     0.412700249451
    H            0.466276163710     1.341053279030    -1.160069125794
    H            0.944977001071     2.119475315385     0.313039402243
    C           -1.891244372067     0.146799821112    -0.214653762312
    H           -1.442818120430     2.200663988624     0.199106866809
    H           -1.021278128260     1.122286141967     1.496598973260
    C           -3.354448530491     0.247496058769     0.221837209909
    H           -1.829971133016     0.220439266000    -1.299718387702
    H           -1.518911172292    -0.841018423158     0.045722954798
    C           -4.255839978227    -0.807636287162    -0.424815374361
    H           -3.740577676382     1.238828457903    -0.006497206491
    H           -3.403915511508     0.144833441394     1.305050644276
    C           -5.645489571131    -0.869175607506     0.210852988370
    H           -4.367905810557    -0.583312037714    -1.483361708063
    H           -3.784654037426    -1.785170780503    -0.356522446171
    H           -6.270967180227    -1.608123043167    -0.280520565280
    H           -6.150853595621     0.090095106444     0.140663315471
    H           -5.585129306076    -1.133165404058     1.262921049457
    C            4.731225631748    -1.075436316571    -0.021962667235
    H            4.881156274124    -1.013490059887    -1.090231054012
    H            5.078401796174    -2.026889272623     0.349788123363
    H            5.264822856726    -0.268246183061     0.458927238643

  Mulliken Charges: (a.u.)
   Center  Symbol    Alpha    Beta     Spin     Total
       1     O     4.28596  4.28596  0.00000 -0.57191
       2     C     2.60486  2.60486  0.00000  0.79029
       3     C     3.20968  3.20968  0.00000 -0.41936
       4     O     4.30747  4.30747  0.00000 -0.61494
       5     C     3.15379  3.15379  0.00000 -0.30758
       6     H     0.39889  0.39889  0.00000  0.20223
       7     H     0.40119  0.40119  0.00000  0.19762
       8     C     3.15671  3.15671  0.00000 -0.31341
       9     H     0.41307  0.41307  0.00000  0.17386
      10     H     0.40874  0.40874  0.00000  0.18253
      11     C     3.15516  3.15516  0.00000 -0.31032
      12     H     0.41822  0.41822  0.00000  0.16355
      13     H     0.42389  0.42389  0.00000  0.15222
      14     C     3.15066  3.15066  0.00000 -0.30132
      15     H     0.42275  0.42275  0.00000  0.15451
      16     H     0.42343  0.42343  0.00000  0.15313
      17     C     3.15155  3.15155  0.00000 -0.30311
      18     H     0.42249  0.42249  0.00000  0.15501
      19     H     0.42434  0.42434  0.00000  0.15132
      20     C     3.23954  3.23954  0.00000 -0.47909
      21     H     0.42226  0.42226  0.00000  0.15547
      22     H     0.42315  0.42315  0.00000  0.15370
      23     H     0.41945  0.41945  0.00000  0.16111
      24     H     0.42171  0.42171  0.00000  0.15658
      25     H     0.42192  0.42192  0.00000  0.15616
      26     C     3.09241  3.09241  0.00000 -0.18481
      27     H     0.40910  0.40910  0.00000  0.18180
      28     H     0.40852  0.40852  0.00000  0.18296
      29     H     0.40910  0.40910  0.00000  0.18179

   Total alpha = 44.00000, Total beta = 44.00000, Total charge =  0.00000
