  ==> Input File <==

--------------------------------------------------------------------------
set {
	reference rhf
	basis 6-31G*
}

set_num_threads( 4 )
memory 2 gb

molecule MOL {
0 1

H	 -3.418136	 -0.936192	 -0.401055
O	 -3.118845	 -0.149100	 0.033141
C	 -1.777441	 -0.060400	 0.004252
C	 -0.983069	 -1.030351	 -0.600040
C	 -1.197852	 1.049081	 0.606907
H	 -1.440292	 -1.887189	 -1.064891
C	 0.388502	 -0.886781	 -0.599214
H	 -1.831758	 1.783470	 1.066372
C	 0.175327	 1.178548	 0.599539
H	 1.013519	 -1.627408	 -1.061733
C	 0.984182	 0.218375	 0.000000
H	 0.624977	 2.038139	 1.066422
C	 2.452467	 0.370529	 0.000000
O	 3.228994	 -0.533774	 0.000000
H	 2.809473	 1.405765	 0.000000

	symmetry c1
}
set optking {
	frozen_dihedral = ("
		7 11 13 14
	")
}

ee = optimize('scf')
oeprop('DIPOLE', 'QUADRUPOLE', 'MULLIKEN_CHARGES')
f=open( 'psi4out.xyz', 'w' )
f.write( "15  " )
f.write( str(ee) + "\n" )
f.write( MOL.save_string_xyz() )
f.close()
--------------------------------------------------------------------------

    Molecular point group: c1
  Charge       = 0
  Multiplicity = 1
  Basis Set: 6-31G*
  Basis Set:
  @DF-RHF Final Energy:  -418.28609867954856
    Total Energy =                       -418.2860986795490135
    Molecular point group: c1
  Basis Set: 6-31G*
  Basis Set:
  Basis Set: 6-31G*
  Basis Set:
  @DF-RHF Final Energy:  -418.28468472643584
    Total Energy =                       -418.2846847264357848
  Basis Set: 6-31G*
  Basis Set:
  Basis Set: 6-31G*
  Basis Set:
  @DF-RHF Final Energy:  -418.28649727882322
    Total Energy =                       -418.2864972788233899
  Basis Set: 6-31G*
  Basis Set:
  Basis Set: 6-31G*
  Basis Set:
  @DF-RHF Final Energy:  -418.28661096194446
    Total Energy =                       -418.2866109619442341
  Basis Set: 6-31G*
  Basis Set:
  Basis Set: 6-31G*
  Basis Set:
  @DF-RHF Final Energy:  -418.28661289300885
    Total Energy =                       -418.2866128930090781
  Basis Set: 6-31G*
  Basis Set:
  Charge       = 0
  Multiplicity = 1
  Basis Set: 6-31G*
  Basis Set:

    Orbital Energies (a.u.)
    -----------------------

    Doubly Occupied:

       1A    -20.609686     2A    -20.558609     3A    -11.329045
       4A    -11.322023     5A    -11.259472     6A    -11.257017
       7A    -11.244098     8A    -11.239822     9A    -11.238757
      10A     -1.430557    11A     -1.399151    12A     -1.170359
      13A     -1.040804    14A     -1.038548    15A     -0.888391
      16A     -0.866589    17A     -0.795180    18A     -0.756467
      19A     -0.713083    20A     -0.667512    21A     -0.643040
      22A     -0.628648    23A     -0.607807    24A     -0.607050
      25A     -0.584984    26A     -0.560232    27A     -0.542427
      28A     -0.506102    29A     -0.485239    30A     -0.419429
      31A     -0.357225    32A     -0.325867

  @DF-RHF Final Energy:  -418.28661461862436

   => Energetics <=

    Nuclear Repulsion Energy =            401.0913534835660244
    One-Electron Energy =               -1364.5695016949398450
    Two-Electron Energy =                 545.1915335927493516
    DFT Exchange-Correlation Energy =       0.0000000000000000
    Empirical Dispersion Energy =           0.0000000000000000
    PCM Polarization Energy =               0.0000000000000000
    EFP Energy =                            0.0000000000000000
    Total Energy =                       -418.2866146186244123
    Molecular point group: c1
  Basis Set: 6-31G*
  Basis Set:

  -Total Gradient:
     Atom            X                  Y                   Z
    ------   -----------------  -----------------  -----------------
       1       -0.000001914543     0.000005999593    -0.000006027617
       2       -0.000000609227    -0.000031454336     0.000015569283
       3       -0.000013970301     0.000110864641    -0.000009250232
       4        0.000069098188    -0.000017080208    -0.000024317751
       5       -0.000056632900    -0.000085623916     0.000044945798
       6       -0.000010730630    -0.000003509628     0.000012792705
       7       -0.000546648597     0.002824932170    -0.004657307067
       8        0.000006638402    -0.000001794546     0.000004460849
       9        0.000070462054    -0.000008530195    -0.000092253395
      10        0.000005028866     0.000006688171     0.000001195454
      11        0.000791989720    -0.004236102030     0.009937677364
      12       -0.000001179914    -0.000004230145     0.000007622339
      13       -0.000574695315     0.001664863073    -0.011929957572
      14        0.000251411695    -0.000216889788     0.006699510718
      15        0.000011752503    -0.000008132855    -0.000004660876

  **** Optimization is complete! (in 6 steps) ****
    Final optimized geometry and variables:
    Molecular point group: c1

    Geometry (in Angstrom), charge = 0, multiplicity = 1:

    H           -3.421942562358    -0.933020261621    -0.398130982390
    O           -3.122548227377    -0.143614500671     0.031548819377
    C           -1.779641743063    -0.061323237533     0.009455523936
    C           -0.986180858943    -1.029938637403    -0.594542418458
    C           -1.198369225655     1.048365852492     0.610708225805
    H           -1.443064910380    -1.878834494058    -1.074017043073
    C            0.387673323643    -0.894750426044    -0.579051178590
    H           -1.831535109079     1.788437256436     1.062248562438
    C            0.174293376024     1.180578914682     0.598659490518
    H            1.009657301468    -1.640791947000    -1.037816850904
    C            0.984642308969     0.199665970823     0.035063681411
    H            0.622351208706     2.051893750144     1.044950156757
    C            2.453441914155     0.374801680453    -0.008991572998
    O            3.238263019534    -0.519917067571    -0.063648439747
    H            2.801088245478     1.410400032347     0.063232685115

  Mulliken Charges: (a.u.)
   Center  Symbol    Alpha    Beta     Spin     Total
       1     H     0.26877  0.26877  0.00000  0.46246
       2     O     4.37350  4.37350  0.00000 -0.74700
       3     C     2.78646  2.78646  0.00000  0.42708
       4     C     3.14674  3.14674  0.00000 -0.29347
       5     C     3.12701  3.12701  0.00000 -0.25403
       6     H     0.39823  0.39823  0.00000  0.20354
       7     C     3.08156  3.08156  0.00000 -0.16313
       8     H     0.38651  0.38651  0.00000  0.22697
       9     C     3.09300  3.09300  0.00000 -0.18599
      10     H     0.37758  0.37758  0.00000  0.24485
      11     C     3.05980  3.05980  0.00000 -0.11961
      12     H     0.39036  0.39036  0.00000  0.21928
      13     C     2.83824  2.83824  0.00000  0.32352
      14     O     4.24747  4.24747  0.00000 -0.49493
      15     H     0.42477  0.42477  0.00000  0.15046

   Total alpha = 32.00000, Total beta = 32.00000, Total charge = -0.00000
