  ==> Input File <==

--------------------------------------------------------------------------
set {
	reference rhf
	basis 6-31G*
}

set_num_threads( 1 )
memory 2 gb

molecule MOL {
0 1

O	 2.862325	 1.357334	 0.000267
C	 2.843464	 0.164689	 -0.000222
C	 1.546494	 -0.624492	 -0.000609
C	 4.124123	 -0.644674	 -0.000428
C	 0.291004	 0.242674	 0.000989
H	 1.557904	 -1.283758	 -0.867573
H	 1.558622	 -1.285963	 0.864672
C	 -0.994322	 -0.586602	 0.000262
H	 0.309117	 0.896430	 -0.865270
H	 0.309661	 0.894078	 0.869017
C	 -2.259874	 0.272531	 0.000494
H	 -1.004862	 -1.240012	 -0.870939
H	 -1.005220	 -1.241071	 0.870675
C	 -2.120701	 1.555155	 0.822393
H	 -3.091925	 -0.313290	 0.387178
H	 -2.520033	 0.529485	 -1.024830
C	 -3.388975	 2.407884	 0.817987
H	 -1.861823	 1.299528	 1.847800
H	 -1.290230	 2.142318	 0.435849
H	 -4.231248	 1.859759	 1.230644
H	 -3.259539	 3.309258	 1.409147
H	 -3.654975	 2.709504	 -0.191178
H	 4.165367	 -1.288615	 -0.874074
H	 4.976217	 0.020734	 -0.001915
H	 4.166763	 -1.286207	 0.874930

	symmetry c1
}
set optking {
	frozen_dihedral = ("
		9 5 8 12,
		15 11 14 18,
		1 2 3 6,
		9 5 3 6
	")
}

ee = energy('scf')
oeprop('DIPOLE', 'QUADRUPOLE', 'MULLIKEN_CHARGES')
f=open( 'psi4out.xyz', 'w' )
f.write( "25  " )
f.write( str(ee) + "\n" )
f.write( MOL.save_string_xyz() )
f.close()
--------------------------------------------------------------------------

    Molecular point group: c1

    Geometry (in Angstrom), charge = 0, multiplicity = 1:

       Center              X                  Y                   Z               Mass
    ------------   -----------------  -----------------  -----------------  -----------------
           O          2.539480772980     0.881816353115    -0.185658780191    15.994914619560
           C          2.520619772980    -0.310828646885    -0.186147780191    12.000000000000
           C          1.223649772980    -1.100009646885    -0.186534780191    12.000000000000
           C          3.801278772980    -1.120191646885    -0.186353780191    12.000000000000
           C         -0.031840227020    -0.232843646885    -0.184936780191    12.000000000000
           H          1.235059772980    -1.759275646885    -1.053498780191     1.007825032070
           H          1.235777772980    -1.761480646885     0.678746219809     1.007825032070
           C         -1.317166227020    -1.062119646885    -0.185663780191    12.000000000000
           H         -0.013727227020     0.420912353115    -1.051195780191     1.007825032070
           H         -0.013183227020     0.418560353115     0.683091219809     1.007825032070
           C         -2.582718227020    -0.202986646885    -0.185431780191    12.000000000000
           H         -1.327706227020    -1.715529646885    -1.056864780191     1.007825032070
           H         -1.328064227020    -1.716588646885     0.684749219809     1.007825032070
           C         -2.443545227020     1.079637353115     0.636467219809    12.000000000000
           H         -3.414769227020    -0.788807646885     0.201252219809     1.007825032070
           H         -2.842877227020     0.053967353115    -1.210755780191     1.007825032070
           C         -3.711819227020     1.932366353115     0.632061219809    12.000000000000
           H         -2.184667227020     0.824010353115     1.661874219809     1.007825032070
           H         -1.613074227020     1.666800353115     0.249923219809     1.007825032070
           H         -4.554092227020     1.384241353115     1.044718219809     1.007825032070
           H         -3.582383227020     2.833740353115     1.223221219809     1.007825032070
           H         -3.977819227020     2.233986353115    -0.377103780191     1.007825032070
           H          3.842522772980    -1.764132646885    -1.059999780191     1.007825032070
           H          4.653372772980    -0.454783646885    -0.187840780191     1.007825032070
           H          3.843918772980    -1.761724646885     0.689004219809     1.007825032070

  Charge       = 0
  Multiplicity = 1
  Basis Set: 6-31G*
  Basis Set:

    Orbital Energies (a.u.)
    -----------------------

    Doubly Occupied:

       1A    -20.550377     2A    -11.326179     3A    -11.231271
       4A    -11.228265     5A    -11.216373     6A    -11.215473
       7A    -11.212872     8A    -11.211631     9A    -11.205823
      10A     -1.395704    11A     -1.095963    12A     -1.053193
      13A     -1.011871    14A     -0.968911    15A     -0.887130
      16A     -0.836462    17A     -0.768024    18A     -0.731044
      19A     -0.657391    20A     -0.650798    21A     -0.634189
      22A     -0.621780    23A     -0.598043    24A     -0.580621
      25A     -0.571126    26A     -0.561361    27A     -0.551404
      28A     -0.516880    29A     -0.506213    30A     -0.494767
      31A     -0.488247    32A     -0.479175    33A     -0.460103
      34A     -0.451387    35A     -0.445795    36A     -0.399899

  @DF-RHF Final Energy:  -387.12960396376729

   => Energetics <=

    Nuclear Repulsion Energy =            449.1774705849294378
    One-Electron Energy =               -1414.9824378640525993
    Two-Electron Energy =                 578.6753633153532519
    DFT Exchange-Correlation Energy =       0.0000000000000000
    Empirical Dispersion Energy =           0.0000000000000000
    PCM Polarization Energy =               0.0000000000000000
    EFP Energy =                            0.0000000000000000
    Total Energy =                       -387.1296039637699096

  Mulliken Charges: (a.u.)
   Center  Symbol    Alpha    Beta     Spin     Total
       1     O     4.26161  4.26161  0.00000 -0.52322
       2     C     2.73560  2.73560  0.00000  0.52881
       3     C     3.20915  3.20915  0.00000 -0.41830
       4     C     3.28671  3.28671  0.00000 -0.57342
       5     C     3.15602  3.15602  0.00000 -0.31204
       6     H     0.41039  0.41039  0.00000  0.17923
       7     H     0.41019  0.41019  0.00000  0.17963
       8     C     3.15449  3.15449  0.00000 -0.30897
       9     H     0.41237  0.41237  0.00000  0.17527
      10     H     0.40721  0.40721  0.00000  0.18559
      11     C     3.15083  3.15083  0.00000 -0.30166
      12     H     0.42255  0.42255  0.00000  0.15491
      13     H     0.42447  0.42447  0.00000  0.15106
      14     C     3.16083  3.16083  0.00000 -0.32167
      15     H     0.42171  0.42171  0.00000  0.15659
      16     H     0.42291  0.42291  0.00000  0.15417
      17     C     3.23784  3.23784  0.00000 -0.47568
      18     H     0.42372  0.42372  0.00000  0.15255
      19     H     0.41349  0.41349  0.00000  0.17302
      20     H     0.42310  0.42310  0.00000  0.15380
      21     H     0.41895  0.41895  0.00000  0.16209
      22     H     0.42193  0.42193  0.00000  0.15614
      23     H     0.40870  0.40870  0.00000  0.18259
      24     H     0.39653  0.39653  0.00000  0.20694
      25     H     0.40871  0.40871  0.00000  0.18258

   Total alpha = 36.00000, Total beta = 36.00000, Total charge =  0.00000
