  ==> Input File <==

--------------------------------------------------------------------------
set {
	reference rhf
	basis cc-pvtz
}

set_num_threads( 4 )
memory 2 gb

molecule MOL {
0 1

H	 -2.123894	 -0.667238	 -0.609809
O	 -2.041679	 -0.058866	 0.103463
C	 -0.959304	 0.780994	 -0.094939
C	 0.354905	 0.037902	 -0.006215
H	 -0.985899	 1.279578	 -1.057596
H	 -0.969809	 1.529522	 0.682889
F	 0.765293	 -0.342195	 -1.203253
F	 1.286244	 0.815310	 0.505489
F	 0.274210	 -1.037501	 0.740089

	symmetry c1
}
set optking {
	frozen_dihedral = ("
		7 4 3 5
	")
}

ee = optimize('scf')
oeprop('DIPOLE', 'QUADRUPOLE', 'MULLIKEN_CHARGES')
f=open( 'psi4out.xyz', 'w' )
f.write( "9  " )
f.write( str(ee) + "\n" )
f.write( MOL.save_string_xyz() )
f.close()
--------------------------------------------------------------------------

    Molecular point group: c1
  Charge       = 0
  Multiplicity = 1
  Basis Set: CC-PVTZ
  Basis Set:
  @DF-RHF Final Energy:  -450.84213742215121
    Total Energy =                       -450.8421374221510405
    Molecular point group: c1
  Basis Set: CC-PVTZ
  Basis Set:
  Basis Set: CC-PVTZ
  Basis Set:
  @DF-RHF Final Energy:  -450.84247128099770
    Total Energy =                       -450.8424712809977564
  Basis Set: CC-PVTZ
  Basis Set:
  Basis Set: CC-PVTZ
  Basis Set:
  @DF-RHF Final Energy:  -450.84266378081298
    Total Energy =                       -450.8426637808128703
  Basis Set: CC-PVTZ
  Basis Set:
  Basis Set: CC-PVTZ
  Basis Set:
  @DF-RHF Final Energy:  -450.84267424465327
    Total Energy =                       -450.8426742446535513
  Basis Set: CC-PVTZ
  Basis Set:
  Basis Set: CC-PVTZ
  Basis Set:
  @DF-RHF Final Energy:  -450.84267670950425
    Total Energy =                       -450.8426767095042464
  Basis Set: CC-PVTZ
  Basis Set:
  Charge       = 0
  Multiplicity = 1
  Basis Set: CC-PVTZ
  Basis Set:

    Orbital Energies (a.u.)
    -----------------------

    Doubly Occupied:

       1A    -26.337266     2A    -26.336446     3A    -26.335253
       4A    -20.582790     5A    -11.493382     6A    -11.310355
       7A     -1.746522     8A     -1.643802     9A     -1.640074
      10A     -1.405468    11A     -1.046929    12A     -0.929163
      13A     -0.836395    14A     -0.833697    15A     -0.808730
      16A     -0.734117    17A     -0.717869    18A     -0.703242
      19A     -0.668869    20A     -0.664758    21A     -0.647274
      22A     -0.631514    23A     -0.614546    24A     -0.532885
      25A     -0.484140

  @DF-RHF Final Energy:  -450.84267708510464

   => Energetics <=

    Nuclear Repulsion Energy =            276.8190976815220097
    One-Electron Energy =               -1175.9525742122050360
    Two-Electron Energy =                 448.2907994455785570
    DFT Exchange-Correlation Energy =       0.0000000000000000
    Empirical Dispersion Energy =           0.0000000000000000
    PCM Polarization Energy =               0.0000000000000000
    EFP Energy =                            0.0000000000000000
    Total Energy =                       -450.8426770851045262
    Molecular point group: c1
  Basis Set: CC-PVTZ
  Basis Set:

  -Total Gradient:
     Atom            X                  Y                   Z
    ------   -----------------  -----------------  -----------------
       1        0.000013680069    -0.000000206662    -0.000003089500
       2       -0.000042467404    -0.000012947051     0.000029869620
       3        0.003706633521     0.006806016817     0.002441450018
       4       -0.003564654460    -0.006344954700     0.000313286047
       5       -0.002416381974    -0.004560955451    -0.002196432798
       6       -0.000013115905    -0.000010935131     0.000007785452
       7        0.002304326667     0.004059071443    -0.000557026958
       8        0.000026934842     0.000045415523     0.000009994937
       9       -0.000014955358     0.000019495208    -0.000045836818

  **** Optimization is complete! (in 6 steps) ****
    Final optimized geometry and variables:
    Molecular point group: c1

    Geometry (in Angstrom), charge = 0, multiplicity = 1:

    H           -2.183005529252    -0.625787897731    -0.661368165643
    O           -2.067872567227    -0.065583658704     0.085546229471
    C           -0.974958457368     0.771521943666    -0.084877437320
    C            0.354001672819     0.027711733817    -0.002138407979
    H           -1.006654809686     1.257255516365    -1.052554786654
    H           -0.999611159038     1.507789146063     0.701842929055
    F            0.758863975633    -0.365585086439    -1.197937684980
    F            1.292277409500     0.829248886481     0.465176590853
    F            0.304265999672    -1.026752997577     0.769389703428

  Mulliken Charges: (a.u.)
   Center  Symbol    Alpha    Beta     Spin     Total
       1     H     0.38944  0.38944  0.00000  0.22112
       2     O     4.18786  4.18786  0.00000 -0.37573
       3     C     2.99863  2.99863  0.00000  0.00273
       4     C     2.68492  2.68492  0.00000  0.63017
       5     H     0.46024  0.46024  0.00000  0.07953
       6     H     0.44627  0.44627  0.00000  0.10745
       7     F     4.61577  4.61577  0.00000 -0.23153
       8     F     4.61334  4.61334  0.00000 -0.22668
       9     F     4.60353  4.60353  0.00000 -0.20706

   Total alpha = 25.00000, Total beta = 25.00000, Total charge =  0.00000
