  ==> Input File <==

--------------------------------------------------------------------------
set {
	reference rhf
	basis cc-pvtz
}

set_num_threads( 4 )
memory 2 gb

molecule MOL {
0 1

H	 -0.984193	 0.162029	 -1.039554
N	 -0.712187	 0.000026	 -0.093397
C	 0.734067	 -0.000020	 0.038424
H	 -1.095000	 -0.881144	 0.175744
H	 1.140372	 -0.872115	 -0.458226
H	 1.140363	 0.872301	 -0.457869
H	 1.095085	 -0.000244	 1.065614

	symmetry c1
}
set optking {
	frozen_dihedral = ("
		1 2 3 7
	")
}

ee = optimize('scf')
oeprop('DIPOLE', 'QUADRUPOLE', 'MULLIKEN_CHARGES')
f=open( 'psi4out.xyz', 'w' )
f.write( "7  " )
f.write( str(ee) + "\n" )
f.write( MOL.save_string_xyz() )
f.close()
--------------------------------------------------------------------------

    Molecular point group: c1
  Charge       = 0
  Multiplicity = 1
  Basis Set: CC-PVTZ
  Basis Set:
  @DF-RHF Final Energy:   -95.25178267845007
    Total Energy =                        -95.2517826784500841
    Molecular point group: c1
  Basis Set: CC-PVTZ
  Basis Set:
  Basis Set: CC-PVTZ
  Basis Set:
  @DF-RHF Final Energy:   -95.25341513814013
    Total Energy =                        -95.2534151381401841
  Basis Set: CC-PVTZ
  Basis Set:
  Basis Set: CC-PVTZ
  Basis Set:
  @DF-RHF Final Energy:   -95.25359222752971
    Total Energy =                        -95.2535922275296940
  Basis Set: CC-PVTZ
  Basis Set:
  Basis Set: CC-PVTZ
  Basis Set:
  @DF-RHF Final Energy:   -95.25359450359572
    Total Energy =                        -95.2535945035956786
  Basis Set: CC-PVTZ
  Basis Set:
  Charge       = 0
  Multiplicity = 1
  Basis Set: CC-PVTZ
  Basis Set:

    Orbital Energies (a.u.)
    -----------------------

    Doubly Occupied:

       1A    -15.528078     2A    -11.235442     3A     -1.171752
       4A     -0.897110     5A     -0.666372     6A     -0.603122
       7A     -0.559476     8A     -0.516921     9A     -0.385867

  @DF-RHF Final Energy:   -95.25359476258616

   => Energetics <=

    Nuclear Repulsion Energy =             42.3909056752275859
    One-Electron Energy =                -212.1607195668588588
    Two-Electron Energy =                  74.5162191290451261
    DFT Exchange-Correlation Energy =       0.0000000000000000
    Empirical Dispersion Energy =           0.0000000000000000
    PCM Polarization Energy =               0.0000000000000000
    EFP Energy =                            0.0000000000000000
    Total Energy =                        -95.2535947625861326
    Molecular point group: c1
  Basis Set: CC-PVTZ
  Basis Set:

  -Total Gradient:
     Atom            X                  Y                   Z
    ------   -----------------  -----------------  -----------------
       1        0.000016445587     0.001159117796     0.000191436059
       2       -0.000033236208    -0.001174313087    -0.000229432172
       3        0.000051218713    -0.001066832880     0.000059035913
       4       -0.000004743838    -0.000007044225    -0.000006759350
       5       -0.000023813092     0.000013119357    -0.000000341304
       6       -0.000011368520    -0.000007826694     0.000002791448
       7        0.000005497358     0.001083779732    -0.000016730594

  **** Optimization is complete! (in 5 steps) ****
    Final optimized geometry and variables:
    Molecular point group: c1

    Geometry (in Angstrom), charge = 0, multiplicity = 1:

    H           -1.009320779205     0.187111648314    -0.971990667347
    N           -0.716311112019     0.033565954908    -0.031246093902
    C            0.731878404804     0.008102600973     0.068461337011
    H           -1.117459301401    -0.827168467182     0.273472508987
    H            1.204763409932    -0.846829968955    -0.411554558539
    H            1.135246037525     0.906464732256    -0.381919996277
    H            1.025097341346     0.017568639309     1.110979475121

  Mulliken Charges: (a.u.)
   Center  Symbol    Alpha    Beta     Spin     Total
       1     H     0.42775  0.42775  0.00000  0.14450
       2     N     3.68804  3.68804  0.00000 -0.37608
       3     C     3.07084  3.07084  0.00000 -0.14169
       4     H     0.42833  0.42833  0.00000  0.14334
       5     H     0.47212  0.47212  0.00000  0.05576
       6     H     0.45657  0.45657  0.00000  0.08687
       7     H     0.45635  0.45635  0.00000  0.08730

   Total alpha =  9.00000, Total beta =  9.00000, Total charge =  0.00000
