                              Psi4 1.0.54 Driver

  ==> Input File <==

--------------------------------------------------------------------------
set {
	reference rhf
	basis cc-pvtz
}

set_num_threads( 4 )
memory 2 gb

molecule MOL {
0 1

O	 1.466480	 3.545772	 1.691514
C	 0.690107	 3.530186	 2.589908
C	 -0.577366	 2.700812	 2.551421
C	 0.918530	 4.345048	 3.842923
C	 -0.767663	 1.898914	 1.271743
H	 -0.565920	 2.045044	 3.419122
H	 -1.415186	 3.375655	 2.711581
C	 -2.055769	 1.080471	 1.278379
H	 0.084583	 1.243549	 1.132864
H	 -0.765296	 2.575381	 0.424677
C	 -2.258482	 0.271340	 0.000669
H	 -2.052248	 0.406086	 2.131882
H	 -2.906008	 1.744011	 1.420047
C	 -3.544441	 -0.550271	 -0.000253
H	 -1.409199	 -0.392414	 -0.141678
H	 -2.262933	 0.944664	 -0.852995
C	 -4.804551	 0.308747	 0.000556
H	 -3.553737	 -1.201524	 -0.870151
H	 -3.553831	 -1.203282	 0.868313
H	 -4.842050	 0.949078	 -0.874436
H	 -5.698404	 -0.304480	 -0.000254
H	 -4.842277	 0.947103	 0.876982
H	 0.953192	 3.695353	 4.710530
H	 1.845557	 4.891159	 3.760614
H	 0.098345	 5.038563	 3.992509

	symmetry c1
}
set optking {
	frozen_dihedral = ("
		15 11 14 18
	")
}

ee,wfn = optimize('scf', return_wfn=True)
oeprop( wfn, 'DIPOLE', 'QUADRUPOLE', 'MULLIKEN_CHARGES')
f=open( 'psi4out.xyz', 'w' )
f.write( "25  " )
f.write( str(ee) + "\n" )
f.write( MOL.save_string_xyz() )
f.close()
--------------------------------------------------------------------------

    Molecular point group: c1
  Charge       = 0
  Multiplicity = 1
  Basis Set: CC-PVTZ
  Basis Set:
  @DF-RHF Final Energy:  -387.27240877117208
    Total Energy =                       -387.2724087711718539
    Molecular point group: c1
  Basis Set: CC-PVTZ
  Basis Set:
  Basis Set: CC-PVTZ
  Basis Set:
  @DF-RHF Final Energy:  -387.27222049623583
    Total Energy =                       -387.2722204962352635
  Basis Set: CC-PVTZ
  Basis Set:
  Basis Set: CC-PVTZ
  Basis Set:
  @DF-RHF Final Energy:  -387.27291449212294
    Total Energy =                       -387.2729144921236184
  Basis Set: CC-PVTZ
  Basis Set:
  Basis Set: CC-PVTZ
  Basis Set:
  @DF-RHF Final Energy:  -387.27293136377568
    Total Energy =                       -387.2729313637761379
  Basis Set: CC-PVTZ
  Basis Set:
  Basis Set: CC-PVTZ
  Basis Set:
  @DF-RHF Final Energy:  -387.27261806735879
    Total Energy =                       -387.2726180673585077
  Basis Set: CC-PVTZ
  Basis Set:
  Basis Set: CC-PVTZ
  Basis Set:
  @DF-RHF Final Energy:  -387.27294584308549
    Total Energy =                       -387.2729458430852674
  Basis Set: CC-PVTZ
  Basis Set:
  Basis Set: CC-PVTZ
  Basis Set:
  @DF-RHF Final Energy:  -387.27294835436078
    Total Energy =                       -387.2729483543605511
  Basis Set: CC-PVTZ
  Basis Set:
  Charge       = 0
  Multiplicity = 1
  Basis Set: CC-PVTZ
  Basis Set:

    Orbital Energies (a.u.)
    -----------------------

    Doubly Occupied:

       1A    -20.538856     2A    -11.320490     3A    -11.230140
       4A    -11.226572     5A    -11.215038     6A    -11.214353
       7A    -11.213976     8A    -11.211848     9A    -11.207045
      10A     -1.398899    11A     -1.095122    12A     -1.057012
      13A     -1.014660    14A     -0.968226    15A     -0.896481
      16A     -0.823855    17A     -0.780002    18A     -0.730627
      19A     -0.659728    20A     -0.655039    21A     -0.627949
      22A     -0.622188    23A     -0.610180    24A     -0.591262
      25A     -0.567303    26A     -0.557818    27A     -0.542673
      28A     -0.521685    29A     -0.515052    30A     -0.495548
      31A     -0.490858    32A     -0.477369    33A     -0.462184
      34A     -0.456830    35A     -0.452439    36A     -0.401436

  @DF-RHF Final Energy:  -387.27294846943016

   => Energetics <=

    Nuclear Repulsion Energy =            443.1506875400365288
    One-Electron Energy =               -1403.1457788505485951
    Two-Electron Energy =                 572.7221428410817907
    DFT Exchange-Correlation Energy =       0.0000000000000000
    Empirical Dispersion Energy =           0.0000000000000000
    PCM Polarization Energy =               0.0000000000000000
    EFP Energy =                            0.0000000000000000
    Total Energy =                       -387.2729484694302755
    Molecular point group: c1
  Basis Set: CC-PVTZ
  Basis Set:

  -Total Gradient:
     Atom            X                  Y                   Z
    ------   -----------------  -----------------  -----------------
       1        0.000005684261    -0.000002749732    -0.000000828713
       2       -0.000016624988     0.000010477804     0.000007125230
       3        0.000005677260     0.000003234977    -0.000003471633
       4        0.000005205329    -0.000002203702    -0.000001993027
       5       -0.000003418909     0.000002189402     0.000005139917
       6        0.000000249295     0.000000167800    -0.000001816384
       7        0.000000777689    -0.000000358097     0.000001217668
       8        0.000015476336    -0.000010240464     0.000002428165
       9       -0.000004563272     0.000000313532     0.000002802215
      10        0.000000792694    -0.000002401567    -0.000000491694
      11        0.000011164039    -0.000022792702     0.000106944675
      12       -0.000001158282    -0.000001231643     0.000002276031
      13        0.000008677575    -0.000001385313    -0.000001135954
      14       -0.000055856311     0.000077527697    -0.000058063284
      15       -0.000010502173     0.000021505027    -0.000085048038
      16        0.000004159389     0.000000104142    -0.000003569502
      17       -0.000005220541    -0.000003834313    -0.000012718303
      18        0.000033722178    -0.000062684432     0.000046622790
      19        0.000000755649    -0.000003756684    -0.000000192323
      20       -0.000001463411     0.000002989801     0.000001602209
      21        0.000000326439     0.000003531193     0.000000262493
      22        0.000004931837    -0.000008221818    -0.000006562769
      23       -0.000000523446     0.000001242519    -0.000000477663
      24        0.000000802834     0.000000456836     0.000000903859
      25        0.000000928531    -0.000001880264    -0.000000955968

  **** Optimization is complete! (in 8 steps) ****
    Final optimized geometry and variables:
    Molecular point group: c1

    Geometry (in Angstrom), charge = 0, multiplicity = 1:

    O            2.665863991246     1.685128522406     0.274799545725
    C            1.895530777815     1.625700626495     1.176480260181
    C            0.636075840681     0.785559866638     1.112660189415
    C            2.123739729605     2.392246391497     2.459741423073
    C            0.446190546702     0.032304971988    -0.196283910371
    H            0.659414955606     0.096565795874     1.953979449704
    H           -0.207286684165     1.445241213428     1.303916896443
    C           -0.833088243044    -0.800454266468    -0.214067768429
    H            1.304879762375    -0.607019829812    -0.366333050527
    H            0.435094361102     0.741598006877    -1.016095596528
    C           -1.027796583223    -1.554793205999    -1.527869235316
    H           -0.811814680242    -1.514578062052     0.606691119345
    H           -1.683407343488    -0.150530811036    -0.030350730438
    C           -2.253727664123    -2.468712801635    -1.568881519384
    H           -0.142914172428    -2.156050310141    -1.716460883570
    H           -1.086787541809    -0.840427462712    -2.345683799656
    C           -3.594848186032    -1.740563451347    -1.520840010014
    H           -2.211001058736    -3.058299057733    -2.479409948372
    H           -2.199430610664    -3.178514916389    -0.747465779096
    H           -3.675091126433    -1.019252710118    -2.327823837682
    H           -4.416221592440    -2.440676213097    -1.622297493250
    H           -3.735243711780    -1.209006862939    -0.587300964330
    H            2.170389002770     1.708717179031     3.300354950848
    H            3.044743142076     2.950731472332     2.394022486908
    H            1.297582875211     3.070766115914     2.641715381855

  Mulliken Charges: (a.u.)
   Center  Symbol    Alpha    Beta     Spin     Total
       1     O     4.17086  4.17086  0.00000 -0.34171
       2     C     2.86220  2.86220  0.00000  0.27560
       3     C     3.11330  3.11330  0.00000 -0.22659
       4     C     3.15127  3.15127  0.00000 -0.30254
       5     C     3.08186  3.08186  0.00000 -0.16372
       6     H     0.44564  0.44564  0.00000  0.10872
       7     H     0.44579  0.44579  0.00000  0.10841
       8     C     3.09318  3.09318  0.00000 -0.18636
       9     H     0.44559  0.44559  0.00000  0.10882
      10     H     0.44604  0.44604  0.00000  0.10792
      11     C     3.09514  3.09514  0.00000 -0.19028
      12     H     0.45609  0.45609  0.00000  0.08782
      13     H     0.45416  0.45416  0.00000  0.09167
      14     C     3.09057  3.09057  0.00000 -0.18114
      15     H     0.44839  0.44839  0.00000  0.10321
      16     H     0.45276  0.45276  0.00000  0.09448
      17     C     3.15239  3.15239  0.00000 -0.30478
      18     H     0.44794  0.44794  0.00000  0.10411
      19     H     0.45520  0.45520  0.00000  0.08960
      20     H     0.45445  0.45445  0.00000  0.09111
      21     H     0.44631  0.44631  0.00000  0.10737
      22     H     0.45472  0.45472  0.00000  0.09055
      23     H     0.45041  0.45041  0.00000  0.09919
      24     H     0.43536  0.43536  0.00000  0.12927
      25     H     0.45037  0.45037  0.00000  0.09926

   Total alpha = 36.00000, Total beta = 36.00000, Total charge = -0.00000

*** Psi4 exiting successfully. Buy a developer a beer!
