  ==> Input File <==

--------------------------------------------------------------------------
set {
	reference rhf
	basis 6-31G*
}

set_num_threads( 4 )
memory 2 gb

molecule MOL {
0 1

O	 -0.176724	 1.037571	 -1.126777
C	 -0.388427	 -0.006171	 -0.600317
C	 -1.729130	 -0.684246	 -0.527537
O	 0.550821	 -0.724572	 0.000672
H	 -1.671622	 -1.660182	 -0.995433
H	 -2.469367	 -0.077058	 -1.026798
H	 -2.007995	 -0.832953	 0.509141
C	 1.863949	 -0.193559	 -0.000319
H	 2.028859	 0.409284	 -0.881648
H	 2.526261	 -1.045082	 -0.000003
H	 2.029520	 0.410555	 0.880008

	symmetry c1
}
set optking {
	frozen_dihedral = ("
		2 4 8 9
	")
}

ee = optimize('scf')
oeprop('DIPOLE', 'QUADRUPOLE', 'MULLIKEN_CHARGES')
f=open( 'psi4out.xyz', 'w' )
f.write( "11  " )
f.write( str(ee) + "\n" )
f.write( MOL.save_string_xyz() )
f.close()
--------------------------------------------------------------------------

    Molecular point group: c1
  Charge       = 0
  Multiplicity = 1
  Basis Set: 6-31G*
  Basis Set:
  @DF-RHF Final Energy:  -266.83500278046859
    Total Energy =                       -266.8350027804684714
    Molecular point group: c1
  Basis Set: 6-31G*
  Basis Set:
  Basis Set: 6-31G*
  Basis Set:
  @DF-RHF Final Energy:  -266.83505504436096
    Total Energy =                       -266.8350550443610132
  Basis Set: 6-31G*
  Basis Set:
  Basis Set: 6-31G*
  Basis Set:
  @DF-RHF Final Energy:  -266.83506194929362
    Total Energy =                       -266.8350619492939018
  Basis Set: 6-31G*
  Basis Set:
  Basis Set: 6-31G*
  Basis Set:
  @DF-RHF Final Energy:  -266.83520815849488
    Total Energy =                       -266.8352081584947655
  Basis Set: 6-31G*
  Basis Set:
  Basis Set: 6-31G*
  Basis Set:
  @DF-RHF Final Energy:  -266.83527182715545
    Total Energy =                       -266.8352718271553954
  Basis Set: 6-31G*
  Basis Set:
  Basis Set: 6-31G*
  Basis Set:
  @DF-RHF Final Energy:  -266.83528158132367
    Total Energy =                       -266.8352815813238976
  Basis Set: 6-31G*
  Basis Set:
  Charge       = 0
  Multiplicity = 1
  Basis Set: 6-31G*
  Basis Set:

    Orbital Energies (a.u.)
    -----------------------

    Doubly Occupied:

       1A    -20.605349     2A    -20.546086     3A    -11.377199
       4A    -11.281413     5A    -11.234330     6A     -1.469700
       7A     -1.364795     8A     -1.035967     9A     -0.953284
      10A     -0.777822    11A     -0.696485    12A     -0.679609
      13A     -0.677079    14A     -0.596499    15A     -0.591452
      16A     -0.560824    17A     -0.527019    18A     -0.521062
      19A     -0.456057    20A     -0.442185

  @DF-RHF Final Energy:  -266.83528162937699

   => Energetics <=

    Nuclear Repulsion Energy =            183.0595608989714833
    One-Electron Energy =                -727.0012504194384064
    Two-Electron Energy =                 277.1064078910900434
    DFT Exchange-Correlation Energy =       0.0000000000000000
    Empirical Dispersion Energy =           0.0000000000000000
    PCM Polarization Energy =               0.0000000000000000
    EFP Energy =                            0.0000000000000000
    Total Energy =                       -266.8352816293769365
    Molecular point group: c1
  Basis Set: 6-31G*
  Basis Set:

  -Total Gradient:
     Atom            X                  Y                   Z
    ------   -----------------  -----------------  -----------------
       1        0.000007170228    -0.000000974709     0.000009897874
       2        0.000256649214    -0.000696065978    -0.001243232598
       3       -0.000001195086    -0.000003279601     0.000000458432
       4       -0.000501644951     0.001388941479     0.002007714376
       5       -0.000003814954    -0.000001926450     0.000000284092
       6        0.000002701583    -0.000001220066    -0.000000648414
       7       -0.000000196529    -0.000001432316     0.000000675402
       8        0.000765571318    -0.002050461827    -0.001591146490
       9       -0.000513652096     0.001363791340     0.000805963238
      10       -0.000007381025     0.000001695053    -0.000000083126
      11       -0.000004207700     0.000000933075     0.000010117213

  **** Optimization is complete! (in 7 steps) ****
    Final optimized geometry and variables:
    Molecular point group: c1

    Geometry (in Angstrom), charge = 0, multiplicity = 1:

    O           -0.244714365552     1.164598549851    -0.673117052381
    C           -0.436850398710     0.113834722373    -0.153442746036
    C           -1.768324052509    -0.582818851863    -0.081647216340
    O            0.508314709513    -0.599173398061     0.446009273533
    H           -1.698782630272    -1.555324115586    -0.554942112523
    H           -2.517880521135     0.017303531454    -0.575348883321
    H           -2.042372584845    -0.740959831673     0.954995953502
    C            1.833978411848    -0.097750025794     0.439434944160
    H            2.017066636672     0.492931495914    -0.443325122271
    H            2.486487273231    -0.956543756359     0.473885424643
    H            1.991720726487     0.516891694582     1.315999307871

  Mulliken Charges: (a.u.)
   Center  Symbol    Alpha    Beta     Spin     Total
       1     O     4.28193  4.28193  0.00000 -0.56387
       2     C     2.62223  2.62223  0.00000  0.75555
       3     C     3.28189  3.28189  0.00000 -0.56379
       4     O     4.30054  4.30054  0.00000 -0.60108
       5     H     0.40015  0.40015  0.00000  0.19969
       6     H     0.39671  0.39671  0.00000  0.20658
       7     H     0.39987  0.39987  0.00000  0.20027
       8     C     3.09548  3.09548  0.00000 -0.19097
       9     H     0.39905  0.39905  0.00000  0.20190
      10     H     0.40934  0.40934  0.00000  0.18132
      11     H     0.41280  0.41280  0.00000  0.17440

   Total alpha = 20.00000, Total beta = 20.00000, Total charge =  0.00000
