                              Psi4 1.0.54 Driver

  ==> Input File <==

--------------------------------------------------------------------------
set {
	reference rhf
	basis cc-pvtz
}

set_num_threads( 4 )
memory 2 gb

molecule MOL {
0 1

H	 -0.557874	 -1.549592	 0.435240
N	 -0.625934	 -0.663929	 -0.000707
C	 -1.885802	 -0.287886	 -0.597717
C	 0.468494	 0.129045	 -0.002160
H	 -2.166173	 -0.981495	 -1.381481
H	 -1.779141	 0.694854	 -1.024261
H	 -2.675458	 -0.264024	 0.143843
C	 1.785715	 -0.615093	 0.000603
O	 0.413285	 1.323206	 0.000532
H	 1.866994	 -1.243310	 -0.878792
H	 2.591506	 0.100263	 0.006422
H	 1.860358	 -1.250360	 0.875522

	symmetry c1
}
set optking {
	frozen_dihedral = ("
		3 2 4 9
	")
}

ee,wfn = optimize('scf', return_wfn=True)
oeprop( wfn, 'DIPOLE', 'QUADRUPOLE', 'MULLIKEN_CHARGES')
f=open( 'psi4out.xyz', 'w' )
f.write( "12  " )
f.write( str(ee) + "\n" )
f.write( MOL.save_string_xyz() )
f.close()
--------------------------------------------------------------------------

    Molecular point group: c1
  Charge       = 0
  Multiplicity = 1
  Basis Set: CC-PVTZ
  Basis Set:
  @DF-RHF Final Energy:  -247.09166431726223
    Total Energy =                       -247.0916643172621434
    Molecular point group: c1
  Basis Set: CC-PVTZ
  Basis Set:
  Basis Set: CC-PVTZ
  Basis Set:
  @DF-RHF Final Energy:  -247.09419032871807
    Total Energy =                       -247.0941903287179571
  Basis Set: CC-PVTZ
  Basis Set:
  Basis Set: CC-PVTZ
  Basis Set:
  @DF-RHF Final Energy:  -247.09516513926243
    Total Energy =                       -247.0951651392624626
  Basis Set: CC-PVTZ
  Basis Set:
  Basis Set: CC-PVTZ
  Basis Set:
  @DF-RHF Final Energy:  -247.09760006445021
    Total Energy =                       -247.0976000644504325
  Basis Set: CC-PVTZ
  Basis Set:
  @DF-RHF Final Energy:  -247.09791384918228
    Total Energy =                       -247.0979138491825324
  @DF-RHF Final Energy:  -247.09804315177945
    Total Energy =                       -247.0980431517793932
  @DF-RHF Final Energy:  -247.09835416008988
    Total Energy =                       -247.0983541600899116
  Basis Set: CC-PVTZ
  Basis Set:
  @DF-RHF Final Energy:  -247.09843287289956
    Total Energy =                       -247.0984328728995933
  Basis Set: CC-PVTZ
  Basis Set:
  Basis Set: CC-PVTZ
  Basis Set:
  @DF-RHF Final Energy:  -247.09852475063255
    Total Energy =                       -247.0985247506325777
  Basis Set: CC-PVTZ
  Basis Set:
  Basis Set: CC-PVTZ
  Basis Set:
  @DF-RHF Final Energy:  -247.09853092740005
    Total Energy =                       -247.0985309273998496
  Basis Set: CC-PVTZ
  Basis Set:
  Charge       = 0
  Multiplicity = 1
  Basis Set: CC-PVTZ
  Basis Set:

    Orbital Energies (a.u.)
    -----------------------

    Doubly Occupied:

       1A    -20.513428     2A    -15.574330     3A    -11.338301
       4A    -11.253820     5A    -11.230370     6A     -1.393842
       7A     -1.230792     8A     -1.016845     9A     -0.931827
      10A     -0.781527    11A     -0.691642    12A     -0.652545
      13A     -0.635404    14A     -0.589870    15A     -0.584486
      16A     -0.554903    17A     -0.547069    18A     -0.509758
      19A     -0.422988    20A     -0.394990

  @DF-RHF Final Energy:  -247.09853180360236

   => Energetics <=

    Nuclear Repulsion Energy =            181.6605106692568086
    One-Electron Energy =                -695.8206052673602926
    Two-Electron Energy =                 267.0615627945010715
    DFT Exchange-Correlation Energy =       0.0000000000000000
    Empirical Dispersion Energy =           0.0000000000000000
    PCM Polarization Energy =               0.0000000000000000
    EFP Energy =                            0.0000000000000000
    Total Energy =                       -247.0985318036023841
    Molecular point group: c1
  Basis Set: CC-PVTZ
  Basis Set:

  -Total Gradient:
     Atom            X                  Y                   Z
    ------   -----------------  -----------------  -----------------
       1       -0.000013202591     0.000015509128    -0.000021227966
       2       -0.002511927979     0.009048070554     0.007371518844
       3        0.001785250942    -0.004706603732    -0.002958774754
       4        0.000427341314    -0.008598846693    -0.010377907656
       5       -0.000004754337     0.000005171520    -0.000012981251
       6        0.000004813645     0.000026242751     0.000009831168
       7       -0.000032214697     0.000020437456     0.000016287035
       8       -0.000010204414     0.000038953052     0.000055250229
       9        0.000341558620     0.004131773115     0.005923848528
      10       -0.000025290030     0.000009953727    -0.000035802285
      11        0.000001344680     0.000024445876     0.000017000247
      12        0.000037284846    -0.000015106755     0.000012957861

  **** Optimization is complete! (in 11 steps) ****
    Final optimized geometry and variables:
    Molecular point group: c1

    Geometry (in Angstrom), charge = 0, multiplicity = 1:

    H           -0.287337675678    -1.370541110311     0.952196797286
    N           -0.575941507754    -0.517708017616     0.534205027968
    C           -1.871226760849    -0.576695526779    -0.116242047624
    C            0.433902085650     0.212050203493    -0.023874566569
    H           -1.837231880801    -1.134582167433    -1.046427666299
    H           -2.210631582026     0.423662558646    -0.329994575140
    H           -2.578945109188    -1.048707577675     0.550842194018
    C            1.830269271072    -0.254914661914     0.317503447129
    O            0.234351998113     1.186055953100    -0.682075607710
    H            2.100204972874    -1.075334484096    -0.338946317703
    H            2.522489485771     0.556997631639     0.162601644281
    H            1.895724571498    -0.604852389535     1.340216383784

  Mulliken Charges: (a.u.)
   Center  Symbol    Alpha    Beta     Spin     Total
       1     H     0.42267  0.42267  0.00000  0.15467
       2     N     3.61338  3.61338  0.00000 -0.22676
       3     C     3.08396  3.08396  0.00000 -0.16793
       4     C     2.83720  2.83720  0.00000  0.32559
       5     H     0.46080  0.46080  0.00000  0.07840
       6     H     0.43545  0.43545  0.00000  0.12910
       7     H     0.45265  0.45265  0.00000  0.09471
       8     C     3.15262  3.15262  0.00000 -0.30524
       9     O     4.20716  4.20716  0.00000 -0.41432
      10     H     0.44769  0.44769  0.00000  0.10462
      11     H     0.43420  0.43420  0.00000  0.13159
      12     H     0.45222  0.45222  0.00000  0.09556

   Total alpha = 20.00000, Total beta = 20.00000, Total charge = -0.00000

*** Psi4 exiting successfully. Buy a developer a beer!
