                              Psi4 1.0.54 Driver

  ==> Input File <==

--------------------------------------------------------------------------
set {
	reference rhf
	basis cc-pvtz
}

set_num_threads( 4 )
memory 2 gb

molecule MOL {
0 1

O	 -2.630254	 -0.784560	 0.381675
C	 -1.922978	 0.063265	 -0.045005
C	 -2.364077	 1.161170	 -0.971552
O	 -0.637375	 0.157174	 0.243149
H	 -1.795772	 1.110661	 -1.891442
H	 -3.416487	 1.057256	 -1.179573
H	 -2.166834	 2.122939	 -0.515849
C	 0.162530	 -1.009518	 0.097799
C	 1.587210	 -0.664190	 0.477086
H	 0.096803	 -1.356267	 -0.924704
H	 -0.233803	 -1.785900	 0.736810
C	 2.256770	 0.342732	 -0.454344
H	 2.154716	 -1.590834	 0.479041
H	 1.598751	 -0.289614	 1.496104
C	 3.698146	 0.643205	 -0.057145
H	 2.235038	 -0.042575	 -1.470299
H	 1.683491	 1.262594	 -0.461300
H	 4.150202	 1.356548	 -0.736242
H	 4.305463	 -0.255904	 -0.069842
H	 3.749130	 1.061068	 0.942759

	symmetry c1
}
set optking {
	frozen_dihedral = ("
		1 2 4 8
	")
}

ee,wfn = optimize('scf', return_wfn=True)
oeprop( wfn, 'DIPOLE', 'QUADRUPOLE', 'MULLIKEN_CHARGES')
f=open( 'psi4out.xyz', 'w' )
f.write( "20  " )
f.write( str(ee) + "\n" )
f.write( MOL.save_string_xyz() )
f.close()
--------------------------------------------------------------------------

    Molecular point group: c1
  Charge       = 0
  Multiplicity = 1
  Basis Set: CC-PVTZ
  Basis Set:
  @DF-RHF Final Energy:  -384.07633893324618
    Total Energy =                       -384.0763389332464612
    Molecular point group: c1
  Basis Set: CC-PVTZ
  Basis Set:
  Basis Set: CC-PVTZ
  Basis Set:
  @DF-RHF Final Energy:  -383.98063458031640
    Total Energy =                       -383.9806345803162344
  Basis Set: CC-PVTZ
  Basis Set:
  Basis Set: CC-PVTZ
  Basis Set:
  @DF-RHF Final Energy:  -384.06232117923997
    Total Energy =                       -384.0623211792396887
  Basis Set: CC-PVTZ
  Basis Set:
  Basis Set: CC-PVTZ
  Basis Set:
  @DF-RHF Final Energy:  -384.07504227334238
    Total Energy =                       -384.0750422733423193
  Basis Set: CC-PVTZ
  Basis Set:
  @DF-RHF Final Energy:  -383.95068609764144
    Total Energy =                       -383.9506860976410962
  @DF-RHF Final Energy:  -384.06109972886475
    Total Energy =                       -384.0610997288647468
  @DF-RHF Final Energy:  -384.07549068134989
    Total Energy =                       -384.0754906813496063
  @DF-RHF Final Energy:  -384.07648593477376
    Total Energy =                       -384.0764859347734728
  Basis Set: CC-PVTZ
  Basis Set:
  @DF-RHF Final Energy:  -384.07713369205510
    Total Energy =                       -384.0771336920553267
  Basis Set: CC-PVTZ
  Basis Set:
  Basis Set: CC-PVTZ
  Basis Set:
  @DF-RHF Final Energy:  -384.07714919993185
    Total Energy =                       -384.0771491999319096
  Basis Set: CC-PVTZ
  Basis Set:
  Basis Set: CC-PVTZ
  Basis Set:
  @DF-RHF Final Energy:  -384.07715304502284
    Total Energy =                       -384.0771530450230102
  Basis Set: CC-PVTZ
  Basis Set:
  Charge       = 0
  Multiplicity = 1
  Basis Set: CC-PVTZ
  Basis Set:

    Orbital Energies (a.u.)
    -----------------------

    Doubly Occupied:

       1A    -20.583068     2A    -20.539091     3A    -11.368682
       4A    -11.284641     5A    -11.233054     6A    -11.224373
       7A    -11.219582     8A    -11.212079     9A     -1.464182
      10A     -1.366933    11A     -1.086466    12A     -1.027204
      13A     -0.984830    14A     -0.881320    15A     -0.811981
      16A     -0.776431    17A     -0.695862    18A     -0.686259
      19A     -0.658237    20A     -0.635320    21A     -0.609333
      22A     -0.594859    23A     -0.572755    24A     -0.561758
      25A     -0.546640    26A     -0.525335    27A     -0.513447
      28A     -0.485164    29A     -0.477920    30A     -0.474925
      31A     -0.449792    32A     -0.439278

  @DF-RHF Final Energy:  -384.07715397157870

   => Energetics <=

    Nuclear Repulsion Energy =            384.9337754487436314
    One-Electron Energy =               -1286.0402532860493920
    Two-Electron Energy =                 517.0293238657271786
    DFT Exchange-Correlation Energy =       0.0000000000000000
    Empirical Dispersion Energy =           0.0000000000000000
    PCM Polarization Energy =               0.0000000000000000
    EFP Energy =                            0.0000000000000000
    Total Energy =                       -384.0771539715785821
    Molecular point group: c1
  Basis Set: CC-PVTZ
  Basis Set:

  -Total Gradient:
     Atom            X                  Y                   Z
    ------   -----------------  -----------------  -----------------
       1       -0.005243349046     0.004309506143     0.006180823147
       2        0.009630266173    -0.004919889557    -0.011914762216
       3        0.000029619005    -0.000094023018    -0.000062492683
       4       -0.008182725025    -0.002046416141     0.011085342988
       5       -0.000074254575     0.000026398143     0.000097328591
       6        0.000066450997     0.000037363558     0.000054663446
       7       -0.000009659810    -0.000045357974    -0.000030476043
       8        0.003761689981     0.002676413833    -0.005410697638
       9        0.000023411886     0.000017709730    -0.000001116103
      10       -0.000005951158     0.000037136431    -0.000005232898
      11        0.000007301032     0.000017778656     0.000002088200
      12       -0.000019790334    -0.000008050241     0.000013702592
      13       -0.000002215354     0.000016352613     0.000000700704
      14        0.000000374189    -0.000003909663    -0.000013738693
      15        0.000021718202    -0.000003624250     0.000001038386
      16       -0.000006519477     0.000003349929     0.000003389855
      17        0.000014018729    -0.000023438458     0.000008393531
      18       -0.000001246514     0.000001048980    -0.000000597480
      19       -0.000012265273     0.000005363225     0.000004014810
      20        0.000003126361    -0.000003711940    -0.000012372497

  **** Optimization is complete! (in 12 steps) ****
    Final optimized geometry and variables:
    Molecular point group: c1

    Geometry (in Angstrom), charge = 0, multiplicity = 1:

    O           -2.458602037214    -1.006758600231    -0.805886586963
    C           -1.751131522291    -0.063261779188    -0.841723536400
    C           -1.983391266477     1.144766177856    -1.702148444831
    O           -0.696744461066     0.088820884046    -0.035333507759
    H           -1.151659116970     1.264014743943    -2.385970311222
    H           -2.903720873134     1.036379581767    -2.252582707146
    H           -2.019140740330     2.028104721507    -1.077809573481
    C            0.221109339288    -0.993196232052     0.062793303362
    C            1.301672453670    -0.628700894625     1.058556307809
    H            0.646138860443    -1.175213996531    -0.919069179980
    H           -0.307429038131    -1.881840532727     0.375500035054
    C            2.168757917057     0.555634900867     0.640916973490
    H            1.926439972452    -1.507339748841     1.194408446324
    H            0.834298064414    -0.425918219448     2.016952930456
    C            3.257509482168     0.874435132826     1.659898253614
    H            2.627243199537     0.340818401357    -0.321072770495
    H            1.540982001795     1.426781477190     0.496135363443
    H            3.859652117413     1.716030006822     1.338151999514
    H            3.921531329174     0.028537036741     1.804161536072
    H            2.828487744897     1.124748952509     2.624285010127

  Mulliken Charges: (a.u.)
   Center  Symbol    Alpha    Beta     Spin     Total
       1     O     4.18367  4.18367  0.00000 -0.36734
       2     C     2.80633  2.80633  0.00000  0.38734
       3     C     3.13860  3.13860  0.00000 -0.27720
       4     O     4.16587  4.16587  0.00000 -0.33173
       5     H     0.44965  0.44965  0.00000  0.10070
       6     H     0.43738  0.43738  0.00000  0.12525
       7     H     0.44400  0.44400  0.00000  0.11199
       8     C     2.98971  2.98971  0.00000  0.02058
       9     C     3.08762  3.08762  0.00000 -0.17524
      10     H     0.46261  0.46261  0.00000  0.07478
      11     H     0.43762  0.43762  0.00000  0.12476
      12     C     3.08585  3.08585  0.00000 -0.17170
      13     H     0.45231  0.45231  0.00000  0.09539
      14     H     0.44887  0.44887  0.00000  0.10227
      15     C     3.14987  3.14987  0.00000 -0.29974
      16     H     0.45708  0.45708  0.00000  0.08583
      17     H     0.44623  0.44623  0.00000  0.10753
      18     H     0.44761  0.44761  0.00000  0.10478
      19     H     0.45556  0.45556  0.00000  0.08887
      20     H     0.45355  0.45355  0.00000  0.09289

   Total alpha = 32.00000, Total beta = 32.00000, Total charge =  0.00000

*** Psi4 exiting successfully. Buy a developer a beer!
