  ==> Input File <==

--------------------------------------------------------------------------
set {
	reference rhf
	basis cc-pvtz
}

set_num_threads( 4 )
memory 2 gb

molecule MOL {
0 1

O	 0.074770	 1.259872	 0.000487
C	 0.029490	 0.077183	 0.000078
C	 -1.232113	 -0.748027	 0.000015
O	 1.106773	 -0.690081	 -0.000204
C	 -2.501422	 0.088592	 -0.000052
H	 -1.188777	 -1.400384	 -0.865133
H	 -1.188857	 -1.400312	 0.865225
H	 -2.548170	 0.725504	 -0.873205
H	 -3.371613	 -0.556398	 -0.000040
H	 -2.548215	 0.725571	 0.873047
C	 0.906899	 -2.089257	 -0.000503
H	 0.360895	 -2.396521	 0.879100
H	 1.890294	 -2.530574	 -0.001199
H	 0.359970	 -2.395903	 -0.879754

	symmetry c1
}
set optking {
	frozen_dihedral = ("
		11 4 2 3
	")
}

ee = optimize('scf')
oeprop('DIPOLE', 'QUADRUPOLE', 'MULLIKEN_CHARGES')
f=open( 'psi4out.xyz', 'w' )
f.write( "14  " )
f.write( str(ee) + "\n" )
f.write( MOL.save_string_xyz() )
f.close()
--------------------------------------------------------------------------

    Molecular point group: c1
  Charge       = 0
  Multiplicity = 1
  Basis Set: CC-PVTZ
  Basis Set:
  @DF-RHF Final Energy:  -305.96170035992242
    Total Energy =                       -305.9617003599229292
    Molecular point group: c1
  Basis Set: CC-PVTZ
  Basis Set:
  Basis Set: CC-PVTZ
  Basis Set:
  @DF-RHF Final Energy:  -305.95954199510345
    Total Energy =                       -305.9595419951033364
  Basis Set: CC-PVTZ
  Basis Set:
  Basis Set: CC-PVTZ
  Basis Set:
  @DF-RHF Final Energy:  -305.96995749330756
    Total Energy =                       -305.9699574933073336
  Basis Set: CC-PVTZ
  Basis Set:
  Basis Set: CC-PVTZ
  Basis Set:
  @DF-RHF Final Energy:  -305.97267639384734
    Total Energy =                       -305.9726763938471095
  Basis Set: CC-PVTZ
  Basis Set:
  @DF-RHF Final Energy:  -305.97295016384476
    Total Energy =                       -305.9729501638445868
  @DF-RHF Final Energy:  -305.97344350578499
    Total Energy =                       -305.9734435057848714
  Basis Set: CC-PVTZ
  Basis Set:
  @DF-RHF Final Energy:  -305.97346753140289
    Total Energy =                       -305.9734675314031165
  Basis Set: CC-PVTZ
  Basis Set:
  Basis Set: CC-PVTZ
  Basis Set:
  @DF-RHF Final Energy:  -305.97349993905391
    Total Energy =                       -305.9734999390540224
  Basis Set: CC-PVTZ
  Basis Set:
  Basis Set: CC-PVTZ
  Basis Set:
  @DF-RHF Final Energy:  -305.97351648475882
    Total Energy =                       -305.9735164847587612
  Basis Set: CC-PVTZ
  Basis Set:
  Charge       = 0
  Multiplicity = 1
  Basis Set: CC-PVTZ
  Basis Set:

    Orbital Energies (a.u.)
    -----------------------

    Doubly Occupied:

       1A    -20.596157     2A    -20.528115     3A    -11.366828
       4A    -11.294122     5A    -11.247152     6A    -11.218989
       7A     -1.466954     8A     -1.368136     9A     -1.064456
      10A     -0.988063    11A     -0.900622    12A     -0.769765
      13A     -0.707703    14A     -0.691861    15A     -0.675553
      16A     -0.625864    17A     -0.606009    18A     -0.558594
      19A     -0.556660    20A     -0.527381    21A     -0.508840
      22A     -0.508244    23A     -0.451354    24A     -0.435679

  @DF-RHF Final Energy:  -305.97351810724524

   => Energetics <=

    Nuclear Repulsion Energy =            248.0932371994915684
    One-Electron Energy =                -908.8073152710026079
    Two-Electron Energy =                 354.7405599642659126
    DFT Exchange-Correlation Energy =       0.0000000000000000
    Empirical Dispersion Energy =           0.0000000000000000
    PCM Polarization Energy =               0.0000000000000000
    EFP Energy =                            0.0000000000000000
    Total Energy =                       -305.9735181072451269
    Molecular point group: c1
  Basis Set: CC-PVTZ
  Basis Set:

  -Total Gradient:
     Atom            X                  Y                   Z
    ------   -----------------  -----------------  -----------------
       1        0.000023768539    -0.000012065854    -0.000000713447
       2       -0.000041622519     0.000010565273     0.000006344567
       3       -0.000002693779     0.000004195793    -0.000012880672
       4        0.000032593157     0.000000762770    -0.000004095277
       5       -0.000001662418    -0.000003761976     0.000005891457
       6       -0.000007288085    -0.000000501404     0.000003250242
       7       -0.000001994521     0.000000649860     0.000000595242
       8        0.000002328906    -0.000002814971     0.000000239878
       9       -0.000003175766     0.000000530527    -0.000000802061
      10       -0.000001281464     0.000000527954    -0.000000843488
      11       -0.000008399968    -0.000010161418     0.000000700071
      12        0.000001620228    -0.000000016450     0.000002551645
      13        0.000001740490     0.000007337270    -0.000001191991
      14        0.000006067202     0.000004752624     0.000000953833

  **** Optimization is complete! (in 10 steps) ****
    Final optimized geometry and variables:
    Molecular point group: c1

    Geometry (in Angstrom), charge = 0, multiplicity = 1:

    O            0.326264835259     1.557743552891     0.000184530959
    C            0.239850596337     0.381969777879     0.000036255793
    C           -1.084473836495    -0.351293696477     0.000049279384
    O            1.355312964445    -0.344611082153    -0.000143174697
    C           -2.276012469975     0.593923531800     0.000220500997
    H           -1.115655969808    -1.002544149998    -0.866720863550
    H           -1.115479609175    -1.002625860601     0.866773086891
    H           -2.264316568806     1.232052939480    -0.872324290615
    H           -3.198362603826     0.025743069292     0.000224261753
    H           -2.264227474794     1.231943970936     0.872843497850
    C            1.364303866000    -1.749353012693    -0.000330383324
    H            0.889713414550    -2.154295332366     0.883496055643
    H            2.402918962409    -2.037309959536    -0.000283716904
    H            0.889892257007    -2.154011297206    -0.884374487622

  Mulliken Charges: (a.u.)
   Center  Symbol    Alpha    Beta     Spin     Total
       1     O     4.18113  4.18113  0.00000 -0.36226
       2     C     2.80752  2.80752  0.00000  0.38497
       3     C     3.12185  3.12185  0.00000 -0.24371
       4     O     4.12750  4.12750  0.00000 -0.25501
       5     C     3.13898  3.13898  0.00000 -0.27797
       6     H     0.44150  0.44150  0.00000  0.11701
       7     H     0.44150  0.44150  0.00000  0.11700
       8     H     0.44524  0.44524  0.00000  0.10952
       9     H     0.45149  0.45149  0.00000  0.09701
      10     H     0.44524  0.44524  0.00000  0.10952
      11     C     3.04436  3.04436  0.00000 -0.08872
      12     H     0.46069  0.46069  0.00000  0.07863
      13     H     0.43232  0.43232  0.00000  0.13536
      14     H     0.46068  0.46068  0.00000  0.07864

   Total alpha = 24.00000, Total beta = 24.00000, Total charge =  0.00000
