  ==> Input File <==

--------------------------------------------------------------------------
set {
	reference rhf
	basis cc-pvtz
}

set_num_threads( 4 )
memory 2 gb

molecule MOL {
0 1

H	 3.273419	 0.176595	 -0.102789
N	 2.433987	 -0.362316	 -0.080024
C	 1.263552	 0.494993	 0.021953
H	 2.497638	 -0.973615	 0.707122
C	 -0.016533	 -0.325589	 -0.026925
H	 1.280915	 1.180773	 -0.818522
H	 1.263064	 1.106893	 0.925038
C	 -1.280353	 0.525521	 0.047747
H	 -0.016686	 -0.912532	 -0.939714
H	 -0.014099	 -1.037598	 0.796369
C	 -1.319178	 1.629575	 -1.003704
H	 -1.356034	 0.969528	 1.036734
H	 -2.153763	 -0.110661	 -0.067578
H	 -0.476089	 2.303305	 -0.894082
H	 -2.225853	 2.218037	 -0.922439
H	 -1.281864	 1.216409	 -2.006242

	symmetry c1
}
set optking {
	frozen_dihedral = ("
		12 8 5 9
	")
}

ee = optimize('scf')
oeprop('DIPOLE', 'QUADRUPOLE', 'MULLIKEN_CHARGES')
f=open( 'psi4out.xyz', 'w' )
f.write( "16  " )
f.write( str(ee) + "\n" )
f.write( MOL.save_string_xyz() )
f.close()
--------------------------------------------------------------------------

    Molecular point group: c1
  Charge       = 0
  Multiplicity = 1
  Basis Set: CC-PVTZ
  Basis Set:
  @DF-RHF Final Energy:  -212.39706589827850
    Total Energy =                       -212.3970658982785835
    Molecular point group: c1
  Basis Set: CC-PVTZ
  Basis Set:
  Basis Set: CC-PVTZ
  Basis Set:
  @DF-RHF Final Energy:  -212.39785541067135
    Total Energy =                       -212.3978554106711840
  Basis Set: CC-PVTZ
  Basis Set:
  Basis Set: CC-PVTZ
  Basis Set:
  @DF-RHF Final Energy:  -212.39834635339739
    Total Energy =                       -212.3983463533974714
  Basis Set: CC-PVTZ
  Basis Set:
  Basis Set: CC-PVTZ
  Basis Set:
  @DF-RHF Final Energy:  -212.39838692230850
    Total Energy =                       -212.3983869223087595
  Basis Set: CC-PVTZ
  Basis Set:
  Basis Set: CC-PVTZ
  Basis Set:
  @DF-RHF Final Energy:  -212.39838964959981
    Total Energy =                       -212.3983896495997215
  Basis Set: CC-PVTZ
  Basis Set:
  Charge       = 0
  Multiplicity = 1
  Basis Set: CC-PVTZ
  Basis Set:

    Orbital Energies (a.u.)
    -----------------------

    Doubly Occupied:

       1A    -15.526465     2A    -11.237691     3A    -11.213249
       4A    -11.208215     5A    -11.205951     6A     -1.178323
       7A     -1.059579     8A     -0.955716     9A     -0.860660
      10A     -0.778478    11A     -0.666108    12A     -0.631386
      13A     -0.605739    14A     -0.596770    15A     -0.549021
      16A     -0.524303    17A     -0.516443    18A     -0.467152
      19A     -0.464665    20A     -0.456221    21A     -0.383960

  @DF-RHF Final Energy:  -212.39838983728475

   => Energetics <=

    Nuclear Repulsion Energy =            189.0829749803535833
    One-Electron Energy =                -660.7905394448164316
    Two-Electron Energy =                 259.3091746271781517
    DFT Exchange-Correlation Energy =       0.0000000000000000
    Empirical Dispersion Energy =           0.0000000000000000
    PCM Polarization Energy =               0.0000000000000000
    EFP Energy =                            0.0000000000000000
    Total Energy =                       -212.3983898372846966
    Molecular point group: c1
  Basis Set: CC-PVTZ
  Basis Set:

  -Total Gradient:
     Atom            X                  Y                   Z
    ------   -----------------  -----------------  -----------------
       1        0.000004391274    -0.000002023854    -0.000000826508
       2        0.000013987081     0.000000568127    -0.000027420278
       3       -0.000006255666    -0.000002157210     0.000051186991
       4       -0.000010315816     0.000009578936    -0.000002110516
       5        0.000821658579     0.001393541529    -0.000970314039
       6        0.000008930256    -0.000014034198     0.000000046553
       7       -0.000000958849     0.000014841710    -0.000003269245
       8        0.000951487305     0.001473534136    -0.000529165024
       9       -0.000861760174    -0.001391885260     0.000887789508
      10       -0.000002456794     0.000003161421    -0.000000865189
      11        0.000007866815     0.000000743625     0.000000459905
      12       -0.000924097751    -0.001482553302     0.000586089944
      13       -0.000005199041    -0.000005570888     0.000005736309
      14        0.000002250163     0.000006962846    -0.000001736356
      15       -0.000001420628    -0.000004538057     0.000001901249
      16        0.000001893247    -0.000000169560     0.000002496694

  **** Optimization is complete! (in 6 steps) ****
    Final optimized geometry and variables:
    Molecular point group: c1

    Geometry (in Angstrom), charge = 0, multiplicity = 1:

    H            3.052139857634    -0.315201160487     0.171855251834
    N            2.190370045174    -0.817925103097     0.182828763427
    C            1.053694247668     0.088949562192     0.207638659228
    H            2.199252678334    -1.402208541962     0.992557687689
    C           -0.251123528302    -0.691525156632     0.134360048373
    H            1.141676517627     0.744716634051    -0.649815662593
    H            1.038619665499     0.728307021832     1.092334448555
    C           -1.518892280588     0.155978521253     0.249520090999
    H           -0.270051898024    -1.267741213962    -0.785286540627
    H           -0.257914342952    -1.421800805850     0.940703753898
    C           -1.659292334352     1.253922041033    -0.801574154391
    H           -1.576043716691     0.589380614156     1.244577091008
    H           -2.373175411741    -0.509720074254     0.172355501028
    H           -0.896998713616     2.016685458581    -0.696610498345
    H           -2.622543209456     1.743878483364    -0.717666483446
    H           -1.582702378320     0.845561376018    -1.804198291684

  Mulliken Charges: (a.u.)
   Center  Symbol    Alpha    Beta     Spin     Total
       1     H     0.43000  0.43000  0.00000  0.14001
       2     N     3.68975  3.68975  0.00000 -0.37950
       3     C     3.02733  3.02733  0.00000 -0.05466
       4     H     0.43090  0.43090  0.00000  0.13821
       5     C     3.08729  3.08729  0.00000 -0.17458
       6     H     0.45472  0.45472  0.00000  0.09056
       7     H     0.46827  0.46827  0.00000  0.06346
       8     C     3.09492  3.09492  0.00000 -0.18983
       9     H     0.44852  0.44852  0.00000  0.10296
      10     H     0.45638  0.45638  0.00000  0.08724
      11     C     3.15419  3.15419  0.00000 -0.30839
      12     H     0.45521  0.45521  0.00000  0.08957
      13     H     0.44914  0.44914  0.00000  0.10171
      14     H     0.45408  0.45408  0.00000  0.09184
      15     H     0.44627  0.44627  0.00000  0.10745
      16     H     0.45302  0.45302  0.00000  0.09396

   Total alpha = 21.00000, Total beta = 21.00000, Total charge =  0.00000
