  ==> Input File <==

--------------------------------------------------------------------------
set {
	reference rhf
	basis cc-pvtz
}

set_num_threads( 4 )
memory 2 gb

molecule MOL {
0 1

H	 2.744366	 0.058223	 0.323104
N	 1.770036	 0.266942	 0.328286
C	 1.074456	 -0.559578	 1.294140
C	 1.208252	 0.121946	 -0.999576
H	 1.507606	 -0.399967	 2.274066
H	 1.152725	 -1.623292	 1.061750
C	 -0.393889	 -0.175750	 1.320894
H	 1.738355	 0.775407	 -1.681729
H	 1.294975	 -0.898709	 -1.376884
C	 -0.260268	 0.504882	 -0.969816
H	 -0.487730	 0.844308	 1.704646
H	 -0.926745	 -0.831784	 1.998982
N	 -0.976577	 -0.298712	 -0.000000
H	 -0.696507	 0.340988	 -1.948056
H	 -0.344903	 1.571830	 -0.743874
C	 -2.391156	 -0.021003	 -0.000000
H	 -2.853954	 -0.458728	 -0.875714
H	 -2.853954	 -0.458728	 0.875714
H	 -2.614037	 1.049773	 -0.000000

	symmetry c1
}
set optking {
	frozen_dihedral = ("
		7 13 16 19
	")
}

ee = optimize('scf')
oeprop('DIPOLE', 'QUADRUPOLE', 'MULLIKEN_CHARGES')
f=open( 'psi4out.xyz', 'w' )
f.write( "19  " )
f.write( str(ee) + "\n" )
f.write( MOL.save_string_xyz() )
f.close()
--------------------------------------------------------------------------

    Molecular point group: c1
  Charge       = 0
  Multiplicity = 1
  Basis Set: CC-PVTZ
  Basis Set:
  @DF-RHF Final Energy:  -305.30790913958992
    Total Energy =                       -305.3079091395896967
    Molecular point group: c1
  Basis Set: CC-PVTZ
  Basis Set:
  Basis Set: CC-PVTZ
  Basis Set:
  @DF-RHF Final Energy:  -305.30807050862433
    Total Energy =                       -305.3080705086242688
  Basis Set: CC-PVTZ
  Basis Set:
  Basis Set: CC-PVTZ
  Basis Set:
  @DF-RHF Final Energy:  -305.30808942880316
    Total Energy =                       -305.3080894288033846
  Basis Set: CC-PVTZ
  Basis Set:
  Charge       = 0
  Multiplicity = 1
  Basis Set: CC-PVTZ
  Basis Set:

    Orbital Energies (a.u.)
    -----------------------

    Doubly Occupied:

       1A    -15.535140     2A    -15.531222     3A    -11.237224
       4A    -11.237133     5A    -11.235923     6A    -11.235888
       7A    -11.233211     8A     -1.248800     9A     -1.187284
      10A     -1.024263    11A     -0.965830    12A     -0.862172
      13A     -0.858305    14A     -0.756747    15A     -0.692641
      16A     -0.635092    17A     -0.627510    18A     -0.608524
      19A     -0.605353    20A     -0.581960    21A     -0.544325
      22A     -0.529310    23A     -0.512952    24A     -0.490187
      25A     -0.468861    26A     -0.458469    27A     -0.366066
      28A     -0.344616

  @DF-RHF Final Energy:  -305.30809037044850

   => Energetics <=

    Nuclear Repulsion Energy =            340.1725905771812108
    One-Electron Energy =               -1087.7313487443091162
    Two-Electron Energy =                 442.2506677966793518
    DFT Exchange-Correlation Energy =       0.0000000000000000
    Empirical Dispersion Energy =           0.0000000000000000
    PCM Polarization Energy =               0.0000000000000000
    EFP Energy =                            0.0000000000000000
    Total Energy =                       -305.3080903704486104
    Molecular point group: c1
  Basis Set: CC-PVTZ
  Basis Set:

  -Total Gradient:
     Atom            X                  Y                   Z
    ------   -----------------  -----------------  -----------------
       1       -0.000003482794    -0.000007261520    -0.000001732517
       2       -0.000011300985     0.000009731180     0.000000083565
       3        0.000004262882     0.000027794853     0.000012050251
       4       -0.000018307591    -0.000019129749    -0.000012191593
       5        0.000034032308    -0.000003743420     0.000016287808
       6       -0.000022976273     0.000019592646     0.000001465093
       7       -0.000436074995    -0.002494137609     0.000445260195
       8        0.000011920061     0.000002339815    -0.000002538989
       9        0.000004344675     0.000001060042    -0.000000904578
      10        0.000026361416     0.000067419250    -0.000016907766
      11        0.000012101768    -0.000034530234    -0.000028468026
      12       -0.000010994771    -0.000000926256    -0.000011848595
      13        0.000625615844     0.003423570580    -0.001548356929
      14        0.000003883337    -0.000009200035     0.000013063678
      15       -0.000004833009    -0.000011712816    -0.000004275180
      16       -0.000316220645    -0.000974364648     0.004566855943
      17        0.000000266753    -0.000003811607    -0.000020698965
      18        0.000042084181    -0.000017137919    -0.000011451271
      19        0.000059317839     0.000024447445    -0.003395692124

  **** Optimization is complete! (in 4 steps) ****
    Final optimized geometry and variables:
    Molecular point group: c1

    Geometry (in Angstrom), charge = 0, multiplicity = 1:

    H            2.748797980501     0.072817833559     0.174907609006
    N            1.774592784270     0.282334163656     0.182181544143
    C            1.081519223411    -0.540585396118     1.152853235777
    C            1.208966362104     0.133707160988    -1.143548924097
    H            1.523567629414    -0.385128439432     2.129580283785
    H            1.151770413335    -1.604471294054     0.918013671366
    C           -0.385173116805    -0.149855600356     1.192022390026
    H            1.740521212932     0.780971715995    -1.830594955435
    H            1.289709089483    -0.889412550314    -1.515727523713
    C           -0.257426139508     0.524545939593    -1.110314610984
    H           -0.469905055781     0.866090256983     1.589578470260
    H           -0.916310851389    -0.811602242409     1.865242183723
    N           -0.971965916493    -0.259574093897    -0.127073237147
    H           -0.701537608407     0.350605035065    -2.083799685811
    H           -0.335658102409     1.595040750156    -0.898569021822
    C           -2.391436652436    -0.005792256130    -0.144595718089
    H           -2.828919635897    -0.421580845457    -1.045657004954
    H           -2.867729031729    -0.477679345177     0.704108222279
    H           -2.632958559271     1.060335907239    -0.134765297484

  Mulliken Charges: (a.u.)
   Center  Symbol    Alpha    Beta     Spin     Total
       1     H     0.43993  0.43993  0.00000  0.12013
       2     N     3.64283  3.64283  0.00000 -0.28565
       3     C     3.04144  3.04144  0.00000 -0.08289
       4     C     3.04065  3.04065  0.00000 -0.08130
       5     H     0.45251  0.45251  0.00000  0.09499
       6     H     0.46571  0.46571  0.00000  0.06857
       7     C     3.03233  3.03233  0.00000 -0.06465
       8     H     0.45249  0.45249  0.00000  0.09502
       9     H     0.46559  0.46559  0.00000  0.06883
      10     C     3.03440  3.03440  0.00000 -0.06880
      11     H     0.46995  0.46995  0.00000  0.06010
      12     H     0.45416  0.45416  0.00000  0.09168
      13     N     3.61439  3.61439  0.00000 -0.22878
      14     H     0.45453  0.45453  0.00000  0.09095
      15     H     0.46809  0.46809  0.00000  0.06382
      16     C     3.09638  3.09638  0.00000 -0.19275
      17     H     0.45181  0.45181  0.00000  0.09638
      18     H     0.45336  0.45336  0.00000  0.09327
      19     H     0.46946  0.46946  0.00000  0.06109

   Total alpha = 28.00000, Total beta = 28.00000, Total charge = -0.00000
