                              Psi4 1.0.54 Driver

  ==> Input File <==

--------------------------------------------------------------------------
set {
	reference rhf
	basis cc-pvtz
}

set_num_threads( 4 )
memory 2 gb

molecule MOL {
0 1

H	 1.240328	 0.073097	 -0.956664
C	 0.848385	 0.440008	 0.000011
C	 -0.623497	 0.751021	 0.000090
O	 1.568857	 0.563628	 0.928925
C	 -1.523725	 -0.474323	 -0.000013
H	 -0.813143	 1.382932	 -0.864897
H	 -0.813071	 1.382716	 0.865253
H	 -1.342980	 -1.087348	 -0.873016
H	 -2.565269	 -0.177464	 0.000070
H	 -1.342898	 -1.087564	 0.872820

	symmetry c1
}
set optking {
	frozen_dihedral = ("
		4 2 3 6
	")
}

ee,wfn = optimize('scf', return_wfn=True)
oeprop( wfn, 'DIPOLE', 'QUADRUPOLE', 'MULLIKEN_CHARGES')
f=open( 'psi4out.xyz', 'w' )
f.write( "10  " )
f.write( str(ee) + "\n" )
f.write( MOL.save_string_xyz() )
f.close()
--------------------------------------------------------------------------

    Molecular point group: c1
  Charge       = 0
  Multiplicity = 1
  Basis Set: CC-PVTZ
  Basis Set:
  @DF-RHF Final Energy:  -192.02215392679318
    Total Energy =                       -192.0221539267931234
    Molecular point group: c1
  Basis Set: CC-PVTZ
  Basis Set:
  Basis Set: CC-PVTZ
  Basis Set:
  @DF-RHF Final Energy:  -192.02299712620007
    Total Energy =                       -192.0229971262000959
  Basis Set: CC-PVTZ
  Basis Set:
  Basis Set: CC-PVTZ
  Basis Set:
  @DF-RHF Final Energy:  -192.02177162630639
    Total Energy =                       -192.0217716263063608
  Basis Set: CC-PVTZ
  Basis Set:
  Basis Set: CC-PVTZ
  Basis Set:
  @DF-RHF Final Energy:  -192.02312643568266
    Total Energy =                       -192.0231264356825989
  Basis Set: CC-PVTZ
  Basis Set:
  Basis Set: CC-PVTZ
  Basis Set:
  @DF-RHF Final Energy:  -192.02315405898878
    Total Energy =                       -192.0231540589887516
  Basis Set: CC-PVTZ
  Basis Set:
  Charge       = 0
  Multiplicity = 1
  Basis Set: CC-PVTZ
  Basis Set:

    Orbital Energies (a.u.)
    -----------------------

    Doubly Occupied:

       1A    -20.553607     2A    -11.322641     3A    -11.238082
       4A    -11.232642     5A     -1.408491     6A     -1.067771
       7A     -0.905085     8A     -0.792980     9A     -0.680374
      10A     -0.644035    11A     -0.612385    12A     -0.573500
      13A     -0.544435    14A     -0.513799    15A     -0.500449
      16A     -0.414877

  @DF-RHF Final Energy:  -192.02315457467728

   => Energetics <=

    Nuclear Repulsion Energy =            117.8835205691896277
    One-Electron Energy =                -493.8030417303356217
    Two-Electron Energy =                 183.8963665864687869
    DFT Exchange-Correlation Energy =       0.0000000000000000
    Empirical Dispersion Energy =           0.0000000000000000
    PCM Polarization Energy =               0.0000000000000000
    EFP Energy =                            0.0000000000000000
    Total Energy =                       -192.0231545746772213
    Molecular point group: c1
  Basis Set: CC-PVTZ
  Basis Set:

  -Total Gradient:
     Atom            X                  Y                   Z
    ------   -----------------  -----------------  -----------------
       1       -0.000006647660     0.000008991806     0.000002261573
       2        0.000343255426     0.000945101552    -0.000424733163
       3        0.000134813211     0.000416715672     0.000605916471
       4       -0.000232712429    -0.000765538907     0.000223122496
       5        0.000002772669     0.000039398749     0.000001454607
       6       -0.000216886989    -0.000638421802    -0.000410846130
       7       -0.000013711734     0.000012080371     0.000011993939
       8       -0.000003594681    -0.000012521255    -0.000011271104
       9       -0.000006721524    -0.000007468276     0.000001985576
      10       -0.000000566290     0.000001662090     0.000000115735

  **** Optimization is complete! (in 6 steps) ****
    Final optimized geometry and variables:
    Molecular point group: c1

    Geometry (in Angstrom), charge = 0, multiplicity = 1:

    H            1.071687692728    -0.389631563728    -1.203833207453
    C            0.760966919513     0.076900217390    -0.259612908374
    C           -0.681744824987     0.497963013769    -0.199660949915
    O            1.534151793135     0.191818848843     0.627027366599
    C           -1.605423794057    -0.723565694465    -0.193956542316
    H           -0.894349244699     1.102920820676    -1.076527706550
    H           -0.829992388057     1.102270274947     0.684648655708
    H           -1.441006396643    -1.347129296124    -1.065912679199
    H           -2.642045795614    -0.413073291742    -0.200523626205
    H           -1.440173958208    -1.329086519246     0.688671704216

  Mulliken Charges: (a.u.)
   Center  Symbol    Alpha    Beta     Spin     Total
       1     H     0.46495  0.46495  0.00000  0.07009
       2     C     2.90086  2.90086  0.00000  0.19828
       3     C     3.08016  3.08016  0.00000 -0.16031
       4     O     4.16481  4.16481  0.00000 -0.32963
       5     C     3.14983  3.14983  0.00000 -0.29965
       6     H     0.45210  0.45210  0.00000  0.09580
       7     H     0.44246  0.44246  0.00000  0.11509
       8     H     0.45372  0.45372  0.00000  0.09255
       9     H     0.44486  0.44486  0.00000  0.11028
      10     H     0.44625  0.44625  0.00000  0.10750

   Total alpha = 16.00000, Total beta = 16.00000, Total charge = -0.00000

*** Psi4 exiting successfully. Buy a developer a beer!
