  ==> Input File <==

--------------------------------------------------------------------------
set {
	reference rhf
	basis 6-31G*
}

set_num_threads( 4 )
memory 2 gb

molecule MOL {
0 1

H	 -0.434924	 -0.255714	 -2.185323
C	 -0.671662	 -0.935574	 -1.369305
O	 -1.392607	 -0.295399	 -0.366433
H	 -1.286350	 -1.739312	 -1.750493
H	 0.258781	 -1.354867	 -0.988651
C	 -0.719715	 0.768384	 0.229244
C	 0.719720	 0.768376	 -0.229267
H	 -1.185038	 1.714362	 -0.050570
H	 -0.750528	 0.687237	 1.313896
O	 1.392611	 -0.295398	 0.366430
H	 0.750534	 0.687200	 -1.313918
H	 1.185043	 1.714359	 0.050526
C	 2.706965	 -0.449871	 -0.062409
H	 2.756559	 -0.644779	 -1.131878
H	 3.305899	 0.433456	 0.155466
H	 3.125548	 -1.294566	 0.467107

	symmetry c1
}
set optking {
	frozen_dihedral = ("
		2 3 6 7
	")
}

ee = optimize('scf')
oeprop('DIPOLE', 'QUADRUPOLE', 'MULLIKEN_CHARGES')
f=open( 'psi4out.xyz', 'w' )
f.write( "16  " )
f.write( str(ee) + "\n" )
f.write( MOL.save_string_xyz() )
f.close()
--------------------------------------------------------------------------

    Molecular point group: c1
  Charge       = 0
  Multiplicity = 1
  Basis Set: 6-31G*
  Basis Set:
  @DF-RHF Final Energy:  -306.95068334924059
    Total Energy =                       -306.9506833492407054
    Molecular point group: c1
  Basis Set: 6-31G*
  Basis Set:
  Basis Set: 6-31G*
  Basis Set:
  @DF-RHF Final Energy:  -306.96272956848230
    Total Energy =                       -306.9627295684824730
  Basis Set: 6-31G*
  Basis Set:
  Basis Set: 6-31G*
  Basis Set:
  @DF-RHF Final Energy:  -306.96760239611399
    Total Energy =                       -306.9676023961142164
  Basis Set: 6-31G*
  Basis Set:
  Basis Set: 6-31G*
  Basis Set:
  @DF-RHF Final Energy:  -306.96864753374479
    Total Energy =                       -306.9686475337447291
  Basis Set: 6-31G*
  Basis Set:
  Basis Set: 6-31G*
  Basis Set:
  @DF-RHF Final Energy:  -306.96908899150691
    Total Energy =                       -306.9690889915069647
  Basis Set: 6-31G*
  Basis Set:
  Basis Set: 6-31G*
  Basis Set:
  @DF-RHF Final Energy:  -306.96923087629938
    Total Energy =                       -306.9692308762993207
  Basis Set: 6-31G*
  Basis Set:
  Charge       = 0
  Multiplicity = 1
  Basis Set: 6-31G*
  Basis Set:

    Orbital Energies (a.u.)
    -----------------------

    Doubly Occupied:

       1A    -20.564617     2A    -20.545358     3A    -11.277649
       4A    -11.272352     5A    -11.268467     6A    -11.256828
       7A     -1.391988     8A     -1.362794     9A     -1.030367
      10A     -0.950922    11A     -0.899872    12A     -0.810897
      13A     -0.694190    14A     -0.682546    15A     -0.656666
      16A     -0.635508    17A     -0.625535    18A     -0.590483
      19A     -0.560562    20A     -0.543796    21A     -0.517565
      22A     -0.493388    23A     -0.445085    24A     -0.425636
      25A     -0.402937

  @DF-RHF Final Energy:  -306.96923915398736

   => Energetics <=

    Nuclear Repulsion Energy =            264.3677790121490716
    One-Electron Energy =                -942.8620193345071812
    Two-Electron Energy =                 371.5250011683706362
    DFT Exchange-Correlation Energy =       0.0000000000000000
    Empirical Dispersion Energy =           0.0000000000000000
    PCM Polarization Energy =               0.0000000000000000
    EFP Energy =                            0.0000000000000000
    Total Energy =                       -306.9692391539874734
    Molecular point group: c1
  Basis Set: 6-31G*
  Basis Set:

  -Total Gradient:
     Atom            X                  Y                   Z
    ------   -----------------  -----------------  -----------------
       1        0.000031635417     0.000064927210    -0.000017752639
       2        0.000793224966    -0.001457666730     0.001419878339
       3       -0.001311585160     0.002757870106    -0.002848346161
       4        0.000030502688    -0.000051950572    -0.000026313970
       5       -0.000063171526     0.000045619432     0.000029669566
       6        0.000962951621    -0.002571352314     0.002906334900
       7       -0.000396908341     0.001136013691    -0.001497656525
       8       -0.000008751767     0.000088500047     0.000024469461
       9        0.000036124919     0.000035009485     0.000001582847
      10       -0.000146846916     0.000014175778     0.000017892909
      11       -0.000067859193    -0.000010548544     0.000005848654
      12       -0.000030542421     0.000044165791    -0.000019605388
      13        0.000270784567    -0.000106959345    -0.000020256387
      14       -0.000052186163     0.000015308457     0.000014970608
      15       -0.000085824539     0.000001066655     0.000007325050
      16        0.000038451849    -0.000004179146     0.000001958737

  **** Optimization is complete! (in 7 steps) ****
    Final optimized geometry and variables:
    Molecular point group: c1

    Geometry (in Angstrom), charge = 0, multiplicity = 1:

    H           -1.155122640204    -0.387467561314    -2.077740416282
    C           -1.333406125517    -0.967996698916    -1.174320886878
    O           -1.814962882883    -0.179666432945    -0.128253454360
    H           -2.108398593286    -1.691470990537    -1.388631932363
    H           -0.425842792377    -1.492584198181    -0.904987820226
    C           -1.013892012289     0.821121103133     0.438133584644
    C            0.451410918387     0.869468987927     0.047667351686
    H           -1.444539011856     1.786720900203     0.179071355949
    H           -1.073778927998     0.711625316491     1.514292939063
    O            1.126735371908    -0.230556688973     0.576649123270
    H            0.574515671037     0.910963689124    -1.032581360229
    H            0.864322592281     1.793599279168     0.452831490110
    C            2.492963600057    -0.246890343501     0.304454670961
    H            2.685538825514    -0.281082557110    -0.766217126907
    H            2.989516098880     0.629463676662     0.716509394590
    H            2.907172636234    -1.133343622580     0.764088305368

  Mulliken Charges: (a.u.)
   Center  Symbol    Alpha    Beta     Spin     Total
       1     H     0.43473  0.43473  0.00000  0.13055
       2     C     3.08444  3.08444  0.00000 -0.16888
       3     O     4.31448  4.31448  0.00000 -0.62896
       4     H     0.41299  0.41299  0.00000  0.17402
       5     H     0.41411  0.41411  0.00000  0.17177
       6     C     2.97626  2.97626  0.00000  0.04749
       7     C     3.02183  3.02183  0.00000 -0.04367
       8     H     0.42807  0.42807  0.00000  0.14386
       9     H     0.41391  0.41391  0.00000  0.17219
      10     O     4.30147  4.30147  0.00000 -0.60294
      11     H     0.42548  0.42548  0.00000  0.14905
      12     H     0.42415  0.42415  0.00000  0.15170
      13     C     3.08123  3.08123  0.00000 -0.16245
      14     H     0.42915  0.42915  0.00000  0.14169
      15     H     0.42837  0.42837  0.00000  0.14326
      16     H     0.40934  0.40934  0.00000  0.18132

   Total alpha = 25.00000, Total beta = 25.00000, Total charge =  0.00000
