                              Psi4 1.0.54 Driver

  ==> Input File <==

--------------------------------------------------------------------------
set {
	reference rhf
	basis cc-pvtz
}

set_num_threads( 4 )
memory 2 gb

molecule MOL {
0 1

O	 -0.278814	 0.341828	 -0.888521
C	 0.485107	 0.171416	 -0.000134
C	 1.606966	 -0.836201	 0.000174
O	 0.452878	 0.856578	 1.129512
C	 2.988788	 -0.202529	 -0.000115
H	 1.465110	 -1.474645	 -0.864821
H	 1.465209	 -1.474077	 0.865596
H	 3.131767	 0.419673	 -0.873407
H	 3.750876	 -0.972315	 0.000098
H	 3.131883	 0.420264	 0.872742
C	 -0.554945	 1.847168	 1.275496
C	 -0.384988	 2.481725	 2.635988
H	 -1.525030	 1.381543	 1.173144
H	 -0.452505	 2.574631	 0.482635
H	 -0.488598	 1.743824	 3.421570
H	 -1.140777	 3.244705	 2.780484
H	 0.589991	 2.943764	 2.727127

	symmetry c1
}
set optking {
	frozen_dihedral = ("
		4 2 3 6
	")
}

ee,wfn = optimize('scf', return_wfn=True)
oeprop( wfn, 'DIPOLE', 'QUADRUPOLE', 'MULLIKEN_CHARGES')
f=open( 'psi4out.xyz', 'w' )
f.write( "17  " )
f.write( str(ee) + "\n" )
f.write( MOL.save_string_xyz() )
f.close()
--------------------------------------------------------------------------

    Molecular point group: c1
  Charge       = 0
  Multiplicity = 1
  Basis Set: CC-PVTZ
  Basis Set:
  @DF-RHF Final Energy:  -345.03877099493866
    Total Energy =                       -345.0387709949388295
    Molecular point group: c1
  Basis Set: CC-PVTZ
  Basis Set:
  Basis Set: CC-PVTZ
  Basis Set:
  @DF-RHF Final Energy:  -345.03907018428674
    Total Energy =                       -345.0390701842870271
  Basis Set: CC-PVTZ
  Basis Set:
  Basis Set: CC-PVTZ
  Basis Set:
  @DF-RHF Final Energy:  -345.03903967202393
    Total Energy =                       -345.0390396720240460
  Basis Set: CC-PVTZ
  Basis Set:
  Basis Set: CC-PVTZ
  Basis Set:
  @DF-RHF Final Energy:  -345.03912721815061
    Total Energy =                       -345.0391272181507816
  Basis Set: CC-PVTZ
  Basis Set:
  Basis Set: CC-PVTZ
  Basis Set:
  @DF-RHF Final Energy:  -345.03912909357075
    Total Energy =                       -345.0391290935706365
  Basis Set: CC-PVTZ
  Basis Set:
  Charge       = 0
  Multiplicity = 1
  Basis Set: CC-PVTZ
  Basis Set:

    Orbital Energies (a.u.)
    -----------------------

    Doubly Occupied:

       1A    -20.594143     2A    -20.531622     3A    -11.362582
       4A    -11.282743     5A    -11.234844     6A    -11.224011
       7A    -11.220713     8A     -1.470205     9A     -1.363728
      10A     -1.073902    11A     -1.031550    12A     -0.908467
      13A     -0.856823    14A     -0.779517    15A     -0.695702
      16A     -0.683242    17A     -0.672623    18A     -0.620170
      19A     -0.596550    20A     -0.575325    21A     -0.553848
      22A     -0.543245    23A     -0.526661    24A     -0.508369
      25A     -0.505901    26A     -0.498229    27A     -0.455318
      28A     -0.434508

  @DF-RHF Final Energy:  -345.03912939815581

   => Energetics <=

    Nuclear Repulsion Energy =            317.4620796977781652
    One-Electron Energy =               -1099.3933348977884634
    Two-Electron Energy =                 436.8921258018541494
    DFT Exchange-Correlation Energy =       0.0000000000000000
    Empirical Dispersion Energy =           0.0000000000000000
    PCM Polarization Energy =               0.0000000000000000
    EFP Energy =                            0.0000000000000000
    Total Energy =                       -345.0391293981562058
    Molecular point group: c1
  Basis Set: CC-PVTZ
  Basis Set:

  -Total Gradient:
     Atom            X                  Y                   Z
    ------   -----------------  -----------------  -----------------
       1        0.000031142104     0.000001459591     0.000043560569
       2       -0.000074059222    -0.000066950728     0.000053092131
       3       -0.000067749618    -0.000049327376     0.000056636646
       4        0.000068273565     0.000080352382    -0.000120381682
       5       -0.000008598140    -0.000016689063     0.000009129782
       6        0.000071118875     0.000045081117    -0.000108473737
       7        0.000014986398     0.000001185918     0.000000958356
       8       -0.000021372160    -0.000014102047     0.000017473956
       9       -0.000004045309     0.000001458565    -0.000000049392
      10        0.000018103248     0.000021998727     0.000012921534
      11       -0.000075012596    -0.000046250916     0.000046939291
      12        0.000011704303     0.000027568556    -0.000000986334
      13        0.000007896525     0.000015595517    -0.000004915408
      14        0.000018300978    -0.000003226072    -0.000009174908
      15       -0.000001872917    -0.000001173910    -0.000008957486
      16        0.000006987867    -0.000002881495     0.000000541646
      17        0.000004196098     0.000005901235     0.000011685036

  **** Optimization is complete! (in 6 steps) ****
    Final optimized geometry and variables:
    Molecular point group: c1

    Geometry (in Angstrom), charge = 0, multiplicity = 1:

    O           -0.869755067123    -0.331251005598    -1.493326397953
    C           -0.123777284115    -0.515708936178    -0.592026852634
    C            0.988613836343    -1.532771477447    -0.595539987303
    O           -0.169551050017     0.164962091137     0.540142205317
    C            2.371557323565    -0.878798896248    -0.619472895532
    H            0.846959164300    -2.157031730477    -1.465186443964
    H            0.889129967200    -2.147268600300     0.291231460565
    H            2.489885307460    -0.254903131852    -1.497455280936
    H            3.140988669640    -1.639860094878    -0.645429496766
    H            2.529944633465    -0.266605505405     0.258157998482
    C           -1.162053599085     1.173468925389     0.667954203349
    C           -1.008652705944     1.803062059740     2.032731751079
    H           -2.137801484879     0.725304653317     0.544798928183
    H           -1.030327885392     1.899866691813    -0.121542395307
    H           -1.140733433411     1.065911109133     2.814737240863
    H           -1.754244538755     2.578455093049     2.163253819299
    H           -0.028217450179     2.248826001334     2.144666582480

  Mulliken Charges: (a.u.)
   Center  Symbol    Alpha    Beta     Spin     Total
       1     O     4.19974  4.19974  0.00000 -0.39948
       2     C     2.80595  2.80595  0.00000  0.38809
       3     C     3.08377  3.08377  0.00000 -0.16754
       4     O     4.15471  4.15471  0.00000 -0.30941
       5     C     3.15100  3.15100  0.00000 -0.30201
       6     H     0.43709  0.43709  0.00000  0.12582
       7     H     0.44738  0.44738  0.00000  0.10524
       8     H     0.44892  0.44892  0.00000  0.10215
       9     H     0.44757  0.44757  0.00000  0.10487
      10     H     0.44683  0.44683  0.00000  0.10634
      11     C     2.97917  2.97917  0.00000  0.04167
      12     C     3.13351  3.13351  0.00000 -0.26702
      13     H     0.45283  0.45283  0.00000  0.09433
      14     H     0.45449  0.45449  0.00000  0.09103
      15     H     0.45141  0.45141  0.00000  0.09718
      16     H     0.45410  0.45410  0.00000  0.09180
      17     H     0.45154  0.45154  0.00000  0.09693

   Total alpha = 28.00000, Total beta = 28.00000, Total charge = -0.00000

*** Psi4 exiting successfully. Buy a developer a beer!
