  ==> Input File <==

--------------------------------------------------------------------------
set {
	reference rhf
	basis cc-pvtz
}

set_num_threads( 4 )
memory 2 gb

molecule MOL {
0 1

H	 2.844821	 -0.593395	 1.836636
C	 2.174466	 -0.741962	 0.996792
C	 0.956816	 0.162634	 1.129220
H	 1.869611	 -1.781042	 0.979535
H	 2.735753	 -0.544812	 0.091904
N	 0.000297	 0.000045	 0.046090
H	 0.462097	 -0.076546	 2.060436
H	 1.276094	 1.204999	 1.215636
C	 -1.359159	 0.315706	 0.454404
C	 0.397846	 0.713285	 -1.157142
C	 -2.416729	 -0.286720	 -0.460525
H	 -1.478729	 1.390261	 0.442008
H	 -1.539692	 0.003361	 1.486761
C	 -0.134424	 0.079270	 -2.435091
H	 1.477748	 0.718079	 -1.210513
H	 0.092960	 1.762365	 -1.108287
H	 -2.285276	 0.073129	 -1.473515
H	 -2.371743	 -1.368476	 -0.483209
H	 -3.408658	 -0.007405	 -0.121593
H	 0.221075	 -0.939825	 -2.524384
H	 -1.216810	 0.057705	 -2.462531
H	 0.203817	 0.639331	 -3.300386

	symmetry c1
}
set optking {
	frozen_dihedral = ("
		3 6 9 11
	")
}

ee = optimize('scf')
oeprop('DIPOLE', 'QUADRUPOLE', 'MULLIKEN_CHARGES')
f=open( 'psi4out.xyz', 'w' )
f.write( "22  " )
f.write( str(ee) + "\n" )
f.write( MOL.save_string_xyz() )
f.close()
--------------------------------------------------------------------------

    Molecular point group: c1
  Charge       = 0
  Multiplicity = 1
  Basis Set: CC-PVTZ
  Basis Set:
  @DF-RHF Final Energy:  -290.45950849336668
    Total Energy =                       -290.4595084933670250
    Molecular point group: c1
  Basis Set: CC-PVTZ
  Basis Set:
  Basis Set: CC-PVTZ
  Basis Set:
  @DF-RHF Final Energy:  -290.46984035328813
    Total Energy =                       -290.4698403532879070
  Basis Set: CC-PVTZ
  Basis Set:
  Basis Set: CC-PVTZ
  Basis Set:
  @DF-RHF Final Energy:  -290.47235600294795
    Total Energy =                       -290.4723560029479472
  Basis Set: CC-PVTZ
  Basis Set:
  Basis Set: CC-PVTZ
  Basis Set:
  @DF-RHF Final Energy:  -290.47334884716719
    Total Energy =                       -290.4733488471672445
  Basis Set: CC-PVTZ
  Basis Set:
  @DF-RHF Final Energy:  -290.47428809948360
    Total Energy =                       -290.4742880994838288
  @DF-RHF Final Energy:  -290.47451341783221
    Total Energy =                       -290.4745134178318722
  @DF-RHF Final Energy:  -290.47464099966174
    Total Energy =                       -290.4746409996618013
  @DF-RHF Final Energy:  -290.47469790066714
    Total Energy =                       -290.4746979006671381
  Basis Set: CC-PVTZ
  Basis Set:
  @DF-RHF Final Energy:  -290.47473877225781
    Total Energy =                       -290.4747387722579788
  Basis Set: CC-PVTZ
  Basis Set:
  Basis Set: CC-PVTZ
  Basis Set:
  @DF-RHF Final Energy:  -290.47475187960526
    Total Energy =                       -290.4747518796052077
  Basis Set: CC-PVTZ
  Basis Set:
  Basis Set: CC-PVTZ
  Basis Set:
  @DF-RHF Final Energy:  -290.47475503010821
    Total Energy =                       -290.4747550301082697
  Basis Set: CC-PVTZ
  Basis Set:
  Charge       = 0
  Multiplicity = 1
  Basis Set: CC-PVTZ
  Basis Set:

    Orbital Energies (a.u.)
    -----------------------

    Doubly Occupied:

       1A    -15.531976     2A    -11.239386     3A    -11.239241
       4A    -11.238367     5A    -11.204658     6A    -11.204364
       7A    -11.200992     8A     -1.224489     9A     -1.028473
      10A     -1.019700    11A     -0.959092    12A     -0.855301
      13A     -0.833870    14A     -0.774698    15A     -0.661400
      16A     -0.643589    17A     -0.607058    18A     -0.602125
      19A     -0.568651    20A     -0.559922    21A     -0.539669
      22A     -0.531291    23A     -0.513630    24A     -0.498318
      25A     -0.492524    26A     -0.474309    27A     -0.468515
      28A     -0.464124    29A     -0.340716

  @DF-RHF Final Energy:  -290.47475526654966

   => Energetics <=

    Nuclear Repulsion Energy =            339.2826522509094502
    One-Electron Energy =               -1064.4739102937296593
    Two-Electron Energy =                 434.7165027762707723
    DFT Exchange-Correlation Energy =       0.0000000000000000
    Empirical Dispersion Energy =           0.0000000000000000
    PCM Polarization Energy =               0.0000000000000000
    EFP Energy =                            0.0000000000000000
    Total Energy =                       -290.4747552665494368
    Molecular point group: c1
  Basis Set: CC-PVTZ
  Basis Set:

  -Total Gradient:
     Atom            X                  Y                   Z
    ------   -----------------  -----------------  -----------------
       1       -0.000008708331     0.000001837830    -0.000006280256
       2       -0.000012761983    -0.000009162138     0.000000082856
       3       -0.000069070703    -0.000337407509     0.000109505641
       4        0.000001967982    -0.000007697561     0.000000055487
       5       -0.000001716554     0.000005643097     0.000001796538
       6        0.000107300732     0.000338971809    -0.000044585300
       7       -0.000000470626    -0.000004130491     0.000001435859
       8       -0.000002510170    -0.000002772467     0.000003155776
       9       -0.000029146628     0.000299487012    -0.000200897147
      10        0.000015226641     0.000010656476    -0.000040517001
      11       -0.000018130444    -0.000305356604     0.000180442528
      12        0.000000766272    -0.000003285494    -0.000001642571
      13        0.000001376768    -0.000003060393     0.000000964310
      14       -0.000008162233     0.000011198817    -0.000015925034
      15        0.000005727335     0.000005323469    -0.000010079976
      16        0.000012411654    -0.000014151849    -0.000007331273
      17       -0.000007629684    -0.000009903576     0.000018373136
      18        0.000013466179     0.000006803606     0.000001927926
      19       -0.000004765575     0.000005979029    -0.000006517215
      20       -0.000003189155     0.000006284958     0.000009618917
      21        0.000014825978     0.000010306901     0.000006832201
      22       -0.000006807455    -0.000005564924    -0.000000415398

  **** Optimization is complete! (in 12 steps) ****
    Final optimized geometry and variables:
    Molecular point group: c1

    Geometry (in Angstrom), charge = 0, multiplicity = 1:

    H            2.914983780149    -0.781375789898     1.732708580042
    C            2.209158773297    -0.782882158593     0.909430698859
    C            0.966679567086     0.009125897417     1.292487345290
    H            1.948714980262    -1.809517298630     0.682337691823
    H            2.714157844671    -0.364438587628     0.047708515262
    N           -0.065909651003    -0.004090391658     0.273157718257
    H            0.551523404854    -0.432806332881     2.189224355309
    H            1.257601633008     1.031225537268     1.556242858295
    C           -1.363724048899     0.389553287427     0.789586096459
    C            0.309989328493     0.695232575964    -0.952901149077
    C           -2.523864886576    -0.064504793742    -0.085544028502
    H           -1.424659890981     1.471800651633     0.941383504176
    H           -1.483771360178    -0.063565913441     1.765353392177
    C            0.453923977152    -0.226742165237    -2.157789015802
    H            1.242210109617     1.230986282626    -0.801163211331
    H           -0.427885486120     1.457997048501    -1.179440255542
    H           -2.496221094987     0.386452955982    -1.069900798339
    H           -2.505383844126    -1.140573744416    -0.207786791562
    H           -3.465846425649     0.214002086660     0.374122104995
    H            1.214191270769    -0.977708756903    -1.984386175279
    H           -0.476232225931    -0.741635857368    -2.363009977505
    H            0.731296623519     0.340442509001    -3.041057143693

  Mulliken Charges: (a.u.)
   Center  Symbol    Alpha    Beta     Spin     Total
       1     H     0.44788  0.44788  0.00000  0.10424
       2     C     3.15061  3.15061  0.00000 -0.30121
       3     C     3.03766  3.03766  0.00000 -0.07532
       4     H     0.45020  0.45020  0.00000  0.09959
       5     H     0.45394  0.45394  0.00000  0.09211
       6     N     3.61554  3.61554  0.00000 -0.23108
       7     H     0.45464  0.45464  0.00000  0.09073
       8     H     0.46883  0.46883  0.00000  0.06235
       9     C     3.03832  3.03832  0.00000 -0.07664
      10     C     3.06748  3.06748  0.00000 -0.13495
      11     C     3.14856  3.14856  0.00000 -0.29712
      12     H     0.46814  0.46814  0.00000  0.06372
      13     H     0.45458  0.45458  0.00000  0.09085
      14     C     3.12960  3.12960  0.00000 -0.25919
      15     H     0.44943  0.44943  0.00000  0.10114
      16     H     0.44864  0.44864  0.00000  0.10271
      17     H     0.45440  0.45440  0.00000  0.09120
      18     H     0.45052  0.45052  0.00000  0.09896
      19     H     0.44871  0.44871  0.00000  0.10257
      20     H     0.45278  0.45278  0.00000  0.09445
      21     H     0.45269  0.45269  0.00000  0.09462
      22     H     0.45686  0.45686  0.00000  0.08628

   Total alpha = 29.00000, Total beta = 29.00000, Total charge = -0.00000
