  ==> Input File <==

--------------------------------------------------------------------------
set {
	reference rhf
	basis 6-31G*
}

set_num_threads( 4 )
memory 2 gb

molecule MOL {
0 1

H	 3.089270	 -1.380733	 0.000000
O	 2.178328	 -1.639175	 0.000000
C	 1.368216	 -0.558384	 0.000000
C	 1.803740	 0.698088	 -0.401128
C	 0.061378	 -0.736336	 0.419448
H	 2.821152	 0.834419	 -0.727198
C	 0.933057	 1.774767	 -0.382590
H	 -0.276312	 -1.706327	 0.729545
C	 -0.803854	 0.346802	 0.434989
H	 1.281568	 2.742305	 -0.695302
C	 -0.374686	 1.606040	 0.035108
C	 -2.209167	 0.162613	 0.884478
H	 -1.052684	 2.440961	 0.050305
O	 -2.671680	 -0.872091	 1.245055
H	 -2.821796	 1.069011	 0.865034

	symmetry c1
}
set optking {
	frozen_dihedral = ("
		4 3 2 1
	")
}

ee = optimize('scf')
oeprop('DIPOLE', 'QUADRUPOLE', 'MULLIKEN_CHARGES')
f=open( 'psi4out.xyz', 'w' )
f.write( "15  " )
f.write( str(ee) + "\n" )
f.write( MOL.save_string_xyz() )
f.close()
--------------------------------------------------------------------------

    Molecular point group: c1
  Charge       = 0
  Multiplicity = 1
  Basis Set: 6-31G*
  Basis Set:
  @DF-RHF Final Energy:  -418.28565049753740
    Total Energy =                       -418.2856504975372900
    Molecular point group: c1
  Basis Set: 6-31G*
  Basis Set:
  Basis Set: 6-31G*
  Basis Set:
  @DF-RHF Final Energy:  -418.28567423820527
    Total Energy =                       -418.2856742382049333
  Basis Set: 6-31G*
  Basis Set:
  Basis Set: 6-31G*
  Basis Set:
  @DF-RHF Final Energy:  -418.28571897174726
    Total Energy =                       -418.2857189717467463
  Basis Set: 6-31G*
  Basis Set:
  Basis Set: 6-31G*
  Basis Set:
  @DF-RHF Final Energy:  -418.28570090268187
    Total Energy =                       -418.2857009026813557
  Basis Set: 6-31G*
  Basis Set:
  Charge       = 0
  Multiplicity = 1
  Basis Set: 6-31G*
  Basis Set:

    Orbital Energies (a.u.)
    -----------------------

    Doubly Occupied:

       1A    -20.600047     2A    -20.564380     3A    -11.332478
       4A    -11.311769     5A    -11.253127     6A    -11.251749
       7A    -11.250050     8A    -11.246991     9A    -11.239840
      10A     -1.419396    11A     -1.404942    12A     -1.169689
      13A     -1.048725    14A     -1.027090    15A     -0.899699
      16A     -0.845629    17A     -0.812423    18A     -0.736122
      19A     -0.701767    20A     -0.685543    21A     -0.639652
      22A     -0.636023    23A     -0.612294    24A     -0.604361
      25A     -0.568211    26A     -0.550198    27A     -0.542444
      28A     -0.512192    29A     -0.486273    30A     -0.423525
      31A     -0.353375    32A     -0.327382

  @DF-RHF Final Energy:  -418.28572312061050

   => Energetics <=

    Nuclear Repulsion Energy =            403.0965027260442071
    One-Electron Energy =               -1368.6496801785685875
    Two-Electron Energy =                 547.2674543319143368
    DFT Exchange-Correlation Energy =       0.0000000000000000
    Empirical Dispersion Energy =           0.0000000000000000
    PCM Polarization Energy =               0.0000000000000000
    EFP Energy =                            0.0000000000000000
    Total Energy =                       -418.2857231206099868
    Molecular point group: c1
  Basis Set: 6-31G*
  Basis Set:

  -Total Gradient:
     Atom            X                  Y                   Z
    ------   -----------------  -----------------  -----------------
       1        0.000031201509    -0.000000912883     0.001507497308
       2       -0.000280449248    -0.000082144645    -0.002448187795
       3        0.000700351278     0.000365436515     0.001938927091
       4       -0.000325797730    -0.000343773143    -0.001022336989
       5       -0.000136677027     0.000073906742     0.000041139502
       6        0.000002011339     0.000013807622     0.000004449476
       7       -0.000130248792     0.000033402009    -0.000006734613
       8        0.000005819041    -0.000009341565    -0.000008399337
       9        0.000041945750    -0.000132892747     0.000016049814
      10        0.000010706416    -0.000003596909    -0.000004644076
      11        0.000095606553     0.000094513445    -0.000014500079
      12       -0.000013116794    -0.000016208160    -0.000016734801
      13       -0.000002762337    -0.000004891755     0.000002045896
      14        0.000000706630     0.000009426070     0.000003085459
      15        0.000000703419     0.000003269412     0.000008343144

  **** Optimization is complete! (in 5 steps) ****
    Final optimized geometry and variables:
    Molecular point group: c1

    Geometry (in Angstrom), charge = 0, multiplicity = 1:

    H            3.053412588918    -1.411785168897    -0.290160334862
    O            2.142155078112    -1.668365767777    -0.269134937517
    C            1.333893798780    -0.583830010284    -0.248757994487
    C            1.767607098713     0.670449608747    -0.659459985411
    C            0.025971895765    -0.762801743901     0.164186931543
    H            2.782751150350     0.802793455167    -0.993566709018
    C            0.897436903051     1.747191839533    -0.642323401240
    H           -0.311240626493    -1.732104937893     0.476879310523
    C           -0.842330355179     0.318890694632     0.170695263664
    H            1.244952902804     2.713937859758    -0.958353383143
    C           -0.411919226150     1.577433702339    -0.228728467598
    C           -2.248894525431     0.134307208301     0.615166651692
    H           -1.090724170889     2.411826661992    -0.217738817278
    O           -2.711018436729    -0.899543492172     0.979071823315
    H           -2.863451017276     1.039203981275     0.589118777445

  Mulliken Charges: (a.u.)
   Center  Symbol    Alpha    Beta     Spin     Total
       1     H     0.27091  0.27091  0.00000  0.45817
       2     O     4.37687  4.37687  0.00000 -0.75373
       3     C     2.79746  2.79746  0.00000  0.40508
       4     C     3.13165  3.13165  0.00000 -0.26331
       5     C     3.11276  3.11276  0.00000 -0.22553
       6     H     0.39804  0.39804  0.00000  0.20392
       7     C     3.09569  3.09569  0.00000 -0.19138
       8     H     0.37028  0.37028  0.00000  0.25943
       9     C     3.04639  3.04639  0.00000 -0.09278
      10     H     0.39297  0.39297  0.00000  0.21407
      11     C     3.11446  3.11446  0.00000 -0.22892
      12     C     2.83258  2.83258  0.00000  0.33483
      13     H     0.39312  0.39312  0.00000  0.21377
      14     O     4.24498  4.24498  0.00000 -0.48996
      15     H     0.42183  0.42183  0.00000  0.15633

   Total alpha = 32.00000, Total beta = 32.00000, Total charge = -0.00000
