  ==> Input File <==

--------------------------------------------------------------------------
set {
	reference rhf
	basis 6-31G*
}

set_num_threads( 1 )
memory 2 gb

molecule MOL {
0 1

H	 5.290045	 0.585324	 1.041588
C	 4.711899	 0.066501	 0.283239
C	 3.227392	 0.036878	 0.644539
H	 4.872447	 0.576875	 -0.661792
H	 5.114879	 -0.938330	 0.189844
C	 2.383301	 -0.694274	 -0.401759
H	 2.865189	 1.053816	 0.755200
H	 3.102262	 -0.448878	 1.611014
C	 0.894848	 -0.755909	 -0.058282
H	 2.502643	 -0.213232	 -1.366124
H	 2.752040	 -1.712051	 -0.507607
C	 0.169600	 0.576866	 -0.172154
H	 0.389545	 -1.442504	 -0.735797
H	 0.742648	 -1.162213	 0.939180
C	 -1.181045	 0.701995	 0.511084
O	 0.630568	 1.489292	 -0.789724
C	 -2.285934	 -0.139295	 -0.145128
H	 -1.449051	 1.751551	 0.493206
H	 -1.071135	 0.403303	 1.551943
C	 -3.651768	 0.085446	 0.506485
H	 -2.346596	 0.110469	 -1.202272
H	 -2.034737	 -1.195320	 -0.088721
C	 -4.759797	 -0.746382	 -0.137905
H	 -3.908762	 1.140117	 0.445781
H	 -3.588286	 -0.154158	 1.565709
H	 -4.868882	 -0.505166	 -1.191300
H	 -4.548009	 -1.809175	 -0.062213
H	 -5.715422	 -0.564821	 0.343442

	symmetry c1
}
set optking {
	frozen_dihedral = ("
		10 6 3 2,
		12 15 17 21
	")
}

ee = energy('scf')
oeprop('DIPOLE', 'QUADRUPOLE', 'MULLIKEN_CHARGES')
f=open( 'psi4out.xyz', 'w' )
f.write( "28  " )
f.write( str(ee) + "\n" )
f.write( MOL.save_string_xyz() )
f.close()
--------------------------------------------------------------------------

    Molecular point group: c1

    Geometry (in Angstrom), charge = 0, multiplicity = 1:

       Center              X                  Y                   Z               Mass
    ------------   -----------------  -----------------  -----------------  -----------------
           H          5.274047688144     0.523107330951     1.021358301993     1.007825032070
           C          4.695901688144     0.004284330951     0.263009301993    12.000000000000
           C          3.211394688144    -0.025338669049     0.624309301993    12.000000000000
           H          4.856449688144     0.514658330951    -0.682021698007     1.007825032070
           H          5.098881688144    -1.000546669049     0.169614301993     1.007825032070
           C          2.367303688144    -0.756490669049    -0.421988698007    12.000000000000
           H          2.849191688144     0.991599330951     0.734970301993     1.007825032070
           H          3.086264688144    -0.511094669049     1.590784301993     1.007825032070
           C          0.878850688144    -0.818125669049    -0.078511698007    12.000000000000
           H          2.486645688144    -0.275448669049    -1.386353698007     1.007825032070
           H          2.736042688144    -1.774267669049    -0.527836698007     1.007825032070
           C          0.153602688144     0.514649330951    -0.192383698007    12.000000000000
           H          0.373547688144    -1.504720669049    -0.756026698007     1.007825032070
           H          0.726650688144    -1.224429669049     0.918950301993     1.007825032070
           C         -1.197042311856     0.639778330951     0.490854301993    12.000000000000
           O          0.614570688144     1.427075330951    -0.809953698007    15.994914619560
           C         -2.301931311856    -0.201511669049    -0.165357698007    12.000000000000
           H         -1.465048311856     1.689334330951     0.472976301993     1.007825032070
           H         -1.087132311856     0.341086330951     1.531713301993     1.007825032070
           C         -3.667765311856     0.023229330951     0.486255301993    12.000000000000
           H         -2.362593311856     0.048252330951    -1.222501698007     1.007825032070
           H         -2.050734311856    -1.257536669049    -0.108950698007     1.007825032070
           C         -4.775794311856    -0.808598669049    -0.158134698007    12.000000000000
           H         -3.924759311856     1.077900330951     0.425551301993     1.007825032070
           H         -3.604283311856    -0.216374669049     1.545479301993     1.007825032070
           H         -4.884879311856    -0.567382669049    -1.211529698007     1.007825032070
           H         -4.564006311856    -1.871391669049    -0.082442698007     1.007825032070
           H         -5.731419311856    -0.627037669049     0.323212301993     1.007825032070

  Charge       = 0
  Multiplicity = 1
  Basis Set: 6-31G*
  Basis Set:

    Orbital Energies (a.u.)
    -----------------------

    Doubly Occupied:

       1A    -20.548071     2A    -11.322044     3A    -11.232504
       4A    -11.229852     5A    -11.228662     6A    -11.225986
       7A    -11.216442     8A    -11.216185     9A    -11.212320
      10A    -11.205725    11A     -1.393188    12A     -1.094711
      13A     -1.077496    14A     -1.022488    15A     -0.990825
      16A     -0.907737    17A     -0.872610    18A     -0.809210
      19A     -0.799321    20A     -0.723194    21A     -0.669241
      22A     -0.652359    23A     -0.627145    24A     -0.619936
      25A     -0.609452    26A     -0.588405    27A     -0.575854
      28A     -0.575160    29A     -0.542758    30A     -0.532959
      31A     -0.520719    32A     -0.504358    33A     -0.501668
      34A     -0.484542    35A     -0.478346    36A     -0.475671
      37A     -0.471746    38A     -0.465011    39A     -0.455012
      40A     -0.392165

  @DF-RHF Final Energy:  -426.16914531108580

   => Energetics <=

    Nuclear Repulsion Energy =            530.6844245532540754
    One-Electron Energy =               -1629.5649763946339590
    Two-Electron Energy =                 672.7114065302946528
    DFT Exchange-Correlation Energy =       0.0000000000000000
    Empirical Dispersion Energy =           0.0000000000000000
    PCM Polarization Energy =               0.0000000000000000
    EFP Energy =                            0.0000000000000000
    Total Energy =                       -426.1691453110852308

  Mulliken Charges: (a.u.)
   Center  Symbol    Alpha    Beta     Spin     Total
       1     H     0.41934  0.41934  0.00000  0.16131
       2     C     3.24011  3.24011  0.00000 -0.48023
       3     C     3.15639  3.15639  0.00000 -0.31278
       4     H     0.41830  0.41830  0.00000  0.16339
       5     H     0.42362  0.42362  0.00000  0.15277
       6     C     3.14922  3.14922  0.00000 -0.29844
       7     H     0.41048  0.41048  0.00000  0.17905
       8     H     0.42767  0.42767  0.00000  0.14467
       9     C     3.21146  3.21146  0.00000 -0.42292
      10     H     0.40659  0.40659  0.00000  0.18681
      11     H     0.42192  0.42192  0.00000  0.15615
      12     C     2.73316  2.73316  0.00000  0.53368
      13     H     0.40305  0.40305  0.00000  0.19390
      14     H     0.41321  0.41321  0.00000  0.17357
      15     C     3.20034  3.20034  0.00000 -0.40069
      16     O     4.26644  4.26644  0.00000 -0.53288
      17     C     3.16310  3.16310  0.00000 -0.32619
      18     H     0.40000  0.40000  0.00000  0.20001
      19     H     0.41432  0.41432  0.00000  0.17135
      20     C     3.15188  3.15188  0.00000 -0.30376
      21     H     0.41264  0.41264  0.00000  0.17473
      22     H     0.41897  0.41897  0.00000  0.16207
      23     C     3.24039  3.24039  0.00000 -0.48078
      24     H     0.41833  0.41833  0.00000  0.16334
      25     H     0.42150  0.42150  0.00000  0.15700
      26     H     0.41945  0.41945  0.00000  0.16110
      27     H     0.42120  0.42120  0.00000  0.15759
      28     H     0.41691  0.41691  0.00000  0.16618

   Total alpha = 40.00000, Total beta = 40.00000, Total charge =  0.00000
