  ==> Input File <==

--------------------------------------------------------------------------
set {
	reference rhf
	basis 6-31G*
}

set_num_threads( 1 )
memory 2 gb

molecule MOL {
0 1

H	 2.990738	 -0.997854	 -0.723113
N	 3.092854	 -0.246221	 -0.068770
C	 1.865559	 0.531981	 0.018834
H	 3.847669	 0.324625	 -0.399253
C	 0.645745	 -0.382037	 -0.029944
H	 1.841966	 1.207024	 -0.831236
H	 1.815756	 1.155410	 0.915079
C	 -0.679275	 0.379305	 0.025956
H	 0.698998	 -0.976915	 -0.937203
H	 0.693479	 -1.083846	 0.802235
C	 -1.903357	 -0.536963	 -0.023547
H	 -0.726309	 1.082987	 -0.803784
H	 -0.717680	 0.977832	 0.934877
C	 -3.225172	 0.228290	 0.028445
H	 -1.867824	 -1.134999	 -0.931459
H	 -1.860449	 -1.239604	 0.805977
H	 -3.313397	 0.915643	 -0.808262
H	 -4.073500	 -0.448134	 -0.008893
H	 -3.306061	 0.809945	 0.942516

	symmetry c1
}
set optking {
	frozen_dihedral = ("
		6 3 5 9,
		12 8 5 9,
		12 8 11 15
	")
}

ee = energy('scf')
oeprop('DIPOLE', 'QUADRUPOLE', 'MULLIKEN_CHARGES')
f=open( 'psi4out.xyz', 'w' )
f.write( "19  " )
f.write( str(ee) + "\n" )
f.write( MOL.save_string_xyz() )
f.close()
--------------------------------------------------------------------------

    Molecular point group: c1

    Geometry (in Angstrom), charge = 0, multiplicity = 1:

       Center              X                  Y                   Z               Mass
    ------------   -----------------  -----------------  -----------------  -----------------
           H          2.993680061583    -0.995509794229    -0.702715270418     1.007825032070
           N          3.095796061583    -0.243876794229    -0.048372270418    14.003074004780
           C          1.868501061583     0.534325205771     0.039231729582    12.000000000000
           H          3.850611061583     0.326969205771    -0.378855270418     1.007825032070
           C          0.648687061583    -0.379692794229    -0.009546270418    12.000000000000
           H          1.844908061583     1.209368205771    -0.810838270418     1.007825032070
           H          1.818698061583     1.157754205771     0.935476729582     1.007825032070
           C         -0.676332938417     0.381649205771     0.046353729582    12.000000000000
           H          0.701940061583    -0.974570794229    -0.916805270418     1.007825032070
           H          0.696421061583    -1.081501794229     0.822632729582     1.007825032070
           C         -1.900414938417    -0.534618794229    -0.003149270418    12.000000000000
           H         -0.723366938417     1.085331205771    -0.783386270418     1.007825032070
           H         -0.714737938417     0.980176205771     0.955274729582     1.007825032070
           C         -3.222229938417     0.230634205771     0.048842729582    12.000000000000
           H         -1.864881938417    -1.132654794229    -0.911061270418     1.007825032070
           H         -1.857506938417    -1.237259794229     0.826374729582     1.007825032070
           H         -3.310454938417     0.917987205771    -0.787864270418     1.007825032070
           H         -4.070557938417    -0.445789794229     0.011504729582     1.007825032070
           H         -3.303118938417     0.812289205771     0.962913729582     1.007825032070

  Charge       = 0
  Multiplicity = 1
  Basis Set: 6-31G*
  Basis Set:

    Orbital Energies (a.u.)
    -----------------------

    Doubly Occupied:

       1A    -15.529730     2A    -11.239839     3A    -11.215964
       4A    -11.215299     5A    -11.214282     6A    -11.208928
       7A     -1.176553     8A     -1.074932     9A     -0.999795
      10A     -0.900848    11A     -0.815892    12A     -0.792770
      13A     -0.656501    14A     -0.647837    15A     -0.613095
      16A     -0.596634    17A     -0.565235    18A     -0.544799
      19A     -0.540111    20A     -0.498290    21A     -0.486805
      22A     -0.468218    23A     -0.463663    24A     -0.449181
      25A     -0.376076

  @DF-RHF Final Energy:  -251.34823364979229

   => Energetics <=

    Nuclear Repulsion Energy =            245.8670492386575575
    One-Electron Energy =                -825.8479781772175556
    Two-Electron Energy =                 328.6326952887679909
    DFT Exchange-Correlation Energy =       0.0000000000000000
    Empirical Dispersion Energy =           0.0000000000000000
    PCM Polarization Energy =               0.0000000000000000
    EFP Energy =                            0.0000000000000000
    Total Energy =                       -251.3482336497920642

  Mulliken Charges: (a.u.)
   Center  Symbol    Alpha    Beta     Spin     Total
       1     H     0.33427  0.33427  0.00000  0.33146
       2     N     3.92492  3.92492  0.00000 -0.84985
       3     C     3.05147  3.05147  0.00000 -0.10294
       4     H     0.33362  0.33362  0.00000  0.33276
       5     C     3.16066  3.16066  0.00000 -0.32132
       6     H     0.43478  0.43478  0.00000  0.13044
       7     H     0.42049  0.42049  0.00000  0.15903
       8     C     3.15404  3.15404  0.00000 -0.30808
       9     H     0.42709  0.42709  0.00000  0.14583
      10     H     0.41419  0.41419  0.00000  0.17163
      11     C     3.15124  3.15124  0.00000 -0.30247
      12     H     0.42390  0.42390  0.00000  0.15220
      13     H     0.42228  0.42228  0.00000  0.15543
      14     C     3.23947  3.23947  0.00000 -0.47894
      15     H     0.42319  0.42319  0.00000  0.15361
      16     H     0.42190  0.42190  0.00000  0.15621
      17     H     0.42197  0.42197  0.00000  0.15607
      18     H     0.41907  0.41907  0.00000  0.16187
      19     H     0.42147  0.42147  0.00000  0.15706

   Total alpha = 25.00000, Total beta = 25.00000, Total charge =  0.00000
