  ==> Input File <==

--------------------------------------------------------------------------
set {
	reference rhf
	basis 6-31G*
}

set_num_threads( 4 )
memory 2 gb

molecule MOL {
0 1

H	 3.089270	 -1.380733	 0.000000
O	 2.178328	 -1.639175	 0.000000
C	 1.368216	 -0.558384	 0.000000
C	 0.318652	 -0.415067	 -0.898431
C	 1.614294	 0.427659	 0.939466
H	 0.128860	 -1.183601	 -1.628752
C	 -0.483398	 0.713057	 -0.856911
H	 2.424668	 0.318206	 1.634008
C	 0.806598	 1.553924	 0.974273
H	 -1.292636	 0.812798	 -1.557313
C	 -0.244705	 1.703468	 0.078634
C	 1.065421	 2.617096	 1.981023
H	 -0.866442	 2.580560	 0.112671
O	 1.937864	 2.583015	 2.788629
H	 0.380802	 3.469533	 1.937471

	symmetry c1
}
set optking {
	frozen_dihedral = ("
		4 3 2 1
	")
}

ee = optimize('scf')
oeprop('DIPOLE', 'QUADRUPOLE', 'MULLIKEN_CHARGES')
f=open( 'psi4out.xyz', 'w' )
f.write( "15  " )
f.write( str(ee) + "\n" )
f.write( MOL.save_string_xyz() )
f.close()
--------------------------------------------------------------------------

    Molecular point group: c1
  Charge       = 0
  Multiplicity = 1
  Basis Set: 6-31G*
  Basis Set:
  @DF-RHF Final Energy:  -418.28309839344263
    Total Energy =                       -418.2830983934427422
    Molecular point group: c1
  Basis Set: 6-31G*
  Basis Set:
  Basis Set: 6-31G*
  Basis Set:
  @DF-RHF Final Energy:  -418.28456639325015
    Total Energy =                       -418.2845663932506568
  Basis Set: 6-31G*
  Basis Set:
  Basis Set: 6-31G*
  Basis Set:
  @DF-RHF Final Energy:  -418.28326825885597
    Total Energy =                       -418.2832682588557418
  Basis Set: 6-31G*
  Basis Set:
  Basis Set: 6-31G*
  Basis Set:
  @DF-RHF Final Energy:  -418.28469217217878
    Total Energy =                       -418.2846921721792341
  Basis Set: 6-31G*
  Basis Set:
  Basis Set: 6-31G*
  Basis Set:
  @DF-RHF Final Energy:  -418.28470625437279
    Total Energy =                       -418.2847062543729635
  Basis Set: 6-31G*
  Basis Set:
  Charge       = 0
  Multiplicity = 1
  Basis Set: 6-31G*
  Basis Set:

    Orbital Energies (a.u.)
    -----------------------

    Doubly Occupied:

       1A    -20.592520     2A    -20.566347     3A    -11.334947
       4A    -11.307008     5A    -11.252902     6A    -11.251445
       7A    -11.250305     8A    -11.246637     9A    -11.245021
      10A     -1.410133    11A     -1.406874    12A     -1.170206
      13A     -1.049298    14A     -1.026162    15A     -0.899168
      16A     -0.849720    17A     -0.797461    18A     -0.749209
      19A     -0.699493    20A     -0.671250    21A     -0.658842
      22A     -0.630231    23A     -0.617692    24A     -0.607146
      25A     -0.558868    26A     -0.548185    27A     -0.532301
      28A     -0.509257    29A     -0.486105    30A     -0.425460
      31A     -0.352600    32A     -0.335498

  @DF-RHF Final Energy:  -418.28470884532982

   => Energetics <=

    Nuclear Repulsion Energy =            402.9019716204115298
    One-Electron Energy =               -1368.2967795314195882
    Two-Electron Energy =                 547.1100990656779004
    DFT Exchange-Correlation Energy =       0.0000000000000000
    Empirical Dispersion Energy =           0.0000000000000000
    PCM Polarization Energy =               0.0000000000000000
    EFP Energy =                            0.0000000000000000
    Total Energy =                       -418.2847088453301012
    Molecular point group: c1
  Basis Set: 6-31G*
  Basis Set:

  -Total Gradient:
     Atom            X                  Y                   Z
    ------   -----------------  -----------------  -----------------
       1       -0.000052115885     0.000099637808    -0.002727568756
       2        0.000755189036     0.000269690344     0.002791152679
       3       -0.002117336819    -0.001233971643     0.001122070803
       4        0.001304334362     0.000809153428    -0.001241112914
       5        0.000092370196    -0.000062798075     0.000056658094
       6        0.000035000261    -0.000034156111     0.000007955009
       7       -0.000001855040     0.000170938163     0.000013164685
       8       -0.000031790482     0.000033356999    -0.000021280264
       9        0.000080434724     0.000014105095     0.000006060679
      10        0.000016577343    -0.000016439943     0.000007372632
      11       -0.000076769360    -0.000109686615    -0.000064611289
      12       -0.000047722987     0.000033130387    -0.000034277416
      13        0.000023273689     0.000021995966     0.000051192087
      14        0.000016658202    -0.000001139769     0.000018585772
      15        0.000003752756     0.000006183966     0.000014638191

  **** Optimization is complete! (in 6 steps) ****
    Final optimized geometry and variables:
    Molecular point group: c1

    Geometry (in Angstrom), charge = 0, multiplicity = 1:

    H            2.056317305200    -2.212715643393    -0.646069528522
    O            1.134953352473    -2.433117963215    -0.631102071102
    C            0.373959595019    -1.305300543213    -0.571424463391
    C           -0.668736355460    -1.169409787067    -1.480490696391
    C            0.609326058238    -0.320743735496     0.366178084176
    H           -0.826689193537    -1.947559584067    -2.203938973754
    C           -1.483697417729    -0.053911191429    -1.437790050028
    H            1.407805261126    -0.417401028721     1.078497673483
    C           -0.203509097054     0.808041099569     0.395794844703
    H           -2.291521539535     0.043046945472    -2.139993185095
    C           -1.252050236618     0.941669791589    -0.500210208198
    C            0.049733964222     1.873750465989     1.398091935773
    H           -1.881205206844     1.813953620044    -0.469344956634
    O            0.934428561335     1.852650515085     2.193983797569
    H           -0.647531108864     2.716085680603     1.364498871717

  Mulliken Charges: (a.u.)
   Center  Symbol    Alpha    Beta     Spin     Total
       1     H     0.26960  0.26960  0.00000  0.46081
       2     O     4.38382  4.38382  0.00000 -0.76765
       3     C     2.80787  2.80787  0.00000  0.38426
       4     C     3.10919  3.10919  0.00000 -0.21838
       5     C     3.12156  3.12156  0.00000 -0.24313
       6     H     0.38613  0.38613  0.00000  0.22775
       7     C     3.09959  3.09959  0.00000 -0.19919
       8     H     0.37685  0.37685  0.00000  0.24631
       9     C     3.04931  3.04931  0.00000 -0.09861
      10     H     0.39255  0.39255  0.00000  0.21491
      11     C     3.11036  3.11036  0.00000 -0.22073
      12     C     2.83208  2.83208  0.00000  0.33585
      13     H     0.39239  0.39239  0.00000  0.21522
      14     O     4.24766  4.24766  0.00000 -0.49532
      15     H     0.42104  0.42104  0.00000  0.15791

   Total alpha = 32.00000, Total beta = 32.00000, Total charge = -0.00000
