  ==> Input File <==

--------------------------------------------------------------------------
set {
	reference rhf
	basis cc-pvtz
}

set_num_threads( 4 )
memory 2 gb

molecule MOL {
0 1

H	 -3.937044	 -1.231643	 -0.923610
C	 -2.871662	 -1.106095	 -0.960699
C	 -2.250501	 -0.833805	 -2.166377
C	 -2.124395	 -1.216994	 0.196572
H	 -2.831164	 -0.747866	 -3.064232
C	 -0.881445	 -0.672605	 -2.213239
H	 -2.607062	 -1.428179	 1.131081
C	 -0.753455	 -1.055846	 0.151274
H	 -0.384349	 -0.461428	 -3.138095
C	 -0.127897	 -0.782988	 -1.054851
H	 -0.171817	 -1.141096	 1.045678
C	 1.348186	 -0.600280	 -1.158368
O	 1.968286	 -0.725612	 -0.000027
O	 1.914103	 -0.366276	 -2.173336
C	 3.373556	 -0.568203	 0.000011
H	 3.695416	 -0.031588	 -0.879663
H	 3.782700	 -1.565294	 -0.000152
H	 3.695405	 -0.031851	 0.879862

	symmetry c1
}
set optking {
	frozen_dihedral = ("
		12 13 15 16
	")
}

ee = optimize('scf')
oeprop('DIPOLE', 'QUADRUPOLE', 'MULLIKEN_CHARGES')
f=open( 'psi4out.xyz', 'w' )
f.write( "18  " )
f.write( str(ee) + "\n" )
f.write( MOL.save_string_xyz() )
f.close()
--------------------------------------------------------------------------

    Molecular point group: c1
  Charge       = 0
  Multiplicity = 1
  Basis Set: CC-PVTZ
  Basis Set:
  @DF-RHF Final Energy:  -457.50735103044701
    Total Energy =                       -457.5073510304466708
    Molecular point group: c1
  Basis Set: CC-PVTZ
  Basis Set:
  Basis Set: CC-PVTZ
  Basis Set:
  @DF-RHF Final Energy:  -457.50812954870707
    Total Energy =                       -457.5081295487076432
  Basis Set: CC-PVTZ
  Basis Set:
  Basis Set: CC-PVTZ
  Basis Set:
  @DF-RHF Final Energy:  -457.50825900403248
    Total Energy =                       -457.5082590040328796
  Basis Set: CC-PVTZ
  Basis Set:
  Basis Set: CC-PVTZ
  Basis Set:
  @DF-RHF Final Energy:  -457.50845118859394
    Total Energy =                       -457.5084511885936536
  Basis Set: CC-PVTZ
  Basis Set:
  Basis Set: CC-PVTZ
  Basis Set:
  @DF-RHF Final Energy:  -457.50857458659732
    Total Energy =                       -457.5085745865974332
  Basis Set: CC-PVTZ
  Basis Set:
  Charge       = 0
  Multiplicity = 1
  Basis Set: CC-PVTZ
  Basis Set:

    Orbital Energies (a.u.)
    -----------------------

    Doubly Occupied:

       1A    -20.600208     2A    -20.533859     3A    -11.372919
       4A    -11.280216     5A    -11.244607     6A    -11.243236
       7A    -11.242319     8A    -11.239695     9A    -11.235756
      10A    -11.234992    11A     -1.475054    12A     -1.369044
      13A     -1.170427    14A     -1.051628    15A     -1.028734
      16A     -0.981434    17A     -0.862845    18A     -0.838120
      19A     -0.780677    20A     -0.745107    21A     -0.688324
      22A     -0.679704    23A     -0.676164    24A     -0.634269
      25A     -0.629809    26A     -0.600996    27A     -0.587945
      28A     -0.569531    29A     -0.527690    30A     -0.520127
      31A     -0.509887    32A     -0.501672    33A     -0.461257
      34A     -0.449624    35A     -0.350024    36A     -0.345933

  @DF-RHF Final Energy:  -457.50857496965330

   => Energetics <=

    Nuclear Repulsion Energy =            493.7098999075432175
    One-Electron Energy =               -1601.9092884006149689
    Two-Electron Energy =                 650.6908135234183419
    DFT Exchange-Correlation Energy =       0.0000000000000000
    Empirical Dispersion Energy =           0.0000000000000000
    PCM Polarization Energy =               0.0000000000000000
    EFP Energy =                            0.0000000000000000
    Total Energy =                       -457.5085749696532957
    Molecular point group: c1
  Basis Set: CC-PVTZ
  Basis Set:

  -Total Gradient:
     Atom            X                  Y                   Z
    ------   -----------------  -----------------  -----------------
       1        0.000002025810    -0.000001492558    -0.000000622750
       2       -0.000001261114    -0.000000220308    -0.000011960757
       3       -0.000001180039     0.000012108770     0.000002603806
       4        0.000022609800     0.000003803898     0.000003263205
       5        0.000005353004     0.000002818944    -0.000001662593
       6        0.000026414992    -0.000016936331    -0.000006633394
       7        0.000007956763     0.000002339878     0.000001573332
       8        0.000024405292    -0.000010592659    -0.000021587887
       9        0.000001277842     0.000003413929    -0.000009105018
      10        0.000029385575     0.000013125668     0.000032173155
      11        0.000019080031     0.000003293265     0.000019146956
      12       -0.000017290056     0.001154743336     0.000233391661
      13        0.000170498953    -0.001999188746    -0.000412679492
      14       -0.000074945462     0.000012732033    -0.000077085404
      15       -0.000349499706     0.001934116348     0.000967698096
      16        0.000138620604    -0.001123738621    -0.000694996516
      17       -0.000007713485    -0.000011538388     0.000002435030
      18        0.000004261206     0.000021211542    -0.000025951428

  **** Optimization is complete! (in 6 steps) ****
    Final optimized geometry and variables:
    Molecular point group: c1

    Geometry (in Angstrom), charge = 0, multiplicity = 1:

    H           -4.024355088955    -0.435141214082     0.035834897634
    C           -2.958795368830    -0.314289776752    -0.011465157207
    C           -2.347865165308    -0.045514103926    -1.223217482032
    C           -2.200822565286    -0.427818697903     1.138512721024
    H           -2.936590149227     0.042409520376    -2.115685316201
    C           -0.978614965563     0.109402980659    -1.283229581919
    H           -2.675176635332    -0.636365806681     2.077900181595
    C           -0.829550258453    -0.272704056985     1.080043191374
    H           -0.489687142767     0.317574591005    -2.213117509875
    C           -0.214296365873    -0.003206520927    -0.131994465309
    H           -0.240070184819    -0.360206793285     1.969050050011
    C            1.262327889100     0.173859123546    -0.251444552037
    O            1.886756106608     0.040540189340     0.904250227602
    O            1.812426761477     0.407103359835    -1.274835113778
    C            3.290629561773     0.211372361552     0.951343400153
    H            3.639915990326     0.765787694974     0.097591468051
    H            3.764291562915    -0.760474151803     0.965000037162
    H            3.513089509550     0.735767436146     1.867321351057

  Mulliken Charges: (a.u.)
   Center  Symbol    Alpha    Beta     Spin     Total
       1     H     0.42034  0.42034  0.00000  0.15933
       2     C     3.06975  3.06975  0.00000 -0.13951
       3     C     3.07554  3.07554  0.00000 -0.15108
       4     C     3.07487  3.07487  0.00000 -0.14974
       5     H     0.42047  0.42047  0.00000  0.15907
       6     C     3.07593  3.07593  0.00000 -0.15185
       7     H     0.42197  0.42197  0.00000  0.15607
       8     C     3.08194  3.08194  0.00000 -0.16388
       9     H     0.40642  0.40642  0.00000  0.18716
      10     C     3.01781  3.01781  0.00000 -0.03562
      11     H     0.41121  0.41121  0.00000  0.17759
      12     C     2.77565  2.77565  0.00000  0.44870
      13     O     4.14979  4.14979  0.00000 -0.29959
      14     O     4.21154  4.21154  0.00000 -0.42308
      15     C     3.04078  3.04078  0.00000 -0.08156
      16     H     0.44196  0.44196  0.00000  0.11608
      17     H     0.45499  0.45499  0.00000  0.09003
      18     H     0.44906  0.44906  0.00000  0.10188

   Total alpha = 36.00000, Total beta = 36.00000, Total charge =  0.00000
