  ==> Input File <==

--------------------------------------------------------------------------
set {
	reference rhf
	basis 6-31G*
}

set_num_threads( 1 )
memory 2 gb

molecule MOL {
0 1

H	 2.147616	 4.802053	 0.683383
C	 2.544442	 4.375348	 1.612939
C	 1.563954	 3.546699	 2.403253
O	 3.670709	 4.580376	 1.931115
C	 0.895055	 2.457139	 1.553732
H	 2.082308	 3.124760	 3.256474
H	 0.800514	 4.226744	 2.779223
C	 1.863111	 1.367272	 1.086444
H	 0.098702	 2.005915	 2.138114
H	 0.414519	 2.915895	 0.690954
C	 1.180775	 0.282413	 0.250794
H	 2.334527	 0.913428	 1.955720
H	 2.668624	 1.813213	 0.506078
C	 2.148627	 -0.814315	 -0.201312
H	 0.370927	 -0.152006	 0.831448
H	 0.720108	 0.738111	 -0.624711
C	 3.580890	 -0.659131	 0.322722
H	 2.166869	 -0.852443	 -1.289387
H	 1.762857	 -1.776509	 0.128956
C	 4.324889	 0.564933	 -0.213704
H	 4.142010	 -1.551473	 0.056605
H	 3.564836	 -0.624694	 1.410140
H	 4.342616	 0.565491	 -1.300421
H	 3.866655	 1.493402	 0.110242
H	 5.353900	 0.572371	 0.132816

	symmetry c1
}
set optking {
	frozen_dihedral = ("
		6 3 5 8,
		6 3 2 4,
		3 5 8 12,
		12 8 11 14,
		20 17 14 18
	")
}

ee = energy('scf')
oeprop('DIPOLE', 'QUADRUPOLE', 'MULLIKEN_CHARGES')
f=open( 'psi4out.xyz', 'w' )
f.write( "25  " )
f.write( str(ee) + "\n" )
f.write( MOL.save_string_xyz() )
f.close()
--------------------------------------------------------------------------

    Molecular point group: c1

    Geometry (in Angstrom), charge = 0, multiplicity = 1:

       Center              X                  Y                   Z               Mass
    ------------   -----------------  -----------------  -----------------  -----------------
           H         -0.295867882539     3.045390480884    -0.286189875974     1.007825032070
           C          0.100958117461     2.618685480884     0.643366124026    12.000000000000
           C         -0.879529882539     1.790036480884     1.433680124026    12.000000000000
           O          1.227225117461     2.823713480884     0.961542124026    15.994914619560
           C         -1.548428882539     0.700476480884     0.584159124026    12.000000000000
           H         -0.361175882539     1.368097480884     2.286901124026     1.007825032070
           H         -1.642969882539     2.470081480884     1.809650124026     1.007825032070
           C         -0.580372882539    -0.389390519116     0.116871124026    12.000000000000
           H         -2.344781882539     0.249252480884     1.168541124026     1.007825032070
           H         -2.028964882539     1.159232480884    -0.278618875974     1.007825032070
           C         -1.262708882539    -1.474249519116    -0.718778875974    12.000000000000
           H         -0.108956882539    -0.843234519116     0.986147124026     1.007825032070
           H          0.225140117461     0.056550480884    -0.463494875974     1.007825032070
           C         -0.294856882539    -2.570977519116    -1.170884875974    12.000000000000
           H         -2.072556882539    -1.908668519116    -0.138124875974     1.007825032070
           H         -1.723375882539    -1.018551519116    -1.594283875974     1.007825032070
           C          1.137406117461    -2.415793519116    -0.646850875974    12.000000000000
           H         -0.276614882539    -2.609105519116    -2.258959875974     1.007825032070
           H         -0.680626882539    -3.533171519116    -0.840616875974     1.007825032070
           C          1.881405117461    -1.191729519116    -1.183276875974    12.000000000000
           H          1.698526117461    -3.308135519116    -0.912967875974     1.007825032070
           H          1.121352117461    -2.381356519116     0.440567124026     1.007825032070
           H          1.899132117461    -1.191171519116    -2.269993875974     1.007825032070
           H          1.423171117461    -0.263260519116    -0.859330875974     1.007825032070
           H          2.910416117461    -1.184291519116    -0.836756875974     1.007825032070

  Charge       = 0
  Multiplicity = 1
  Basis Set: 6-31G*
  Basis Set:

    Orbital Energies (a.u.)
    -----------------------

    Doubly Occupied:

       1A    -20.562620     2A    -11.326442     3A    -11.234056
       4A    -11.232276     5A    -11.218474     6A    -11.216608
       7A    -11.216207     8A    -11.215279     9A    -11.202794
      10A     -1.402626    11A     -1.108163    12A     -1.068149
      13A     -1.003941    14A     -0.952234    15A     -0.876542
      16A     -0.825644    17A     -0.788953    18A     -0.772978
      19A     -0.668590    20A     -0.662174    21A     -0.634676
      22A     -0.630512    23A     -0.609099    24A     -0.592272
      25A     -0.566136    26A     -0.556581    27A     -0.541854
      28A     -0.522449    29A     -0.512089    30A     -0.497809
      31A     -0.491803    32A     -0.477635    33A     -0.450000
      34A     -0.444998    35A     -0.430121    36A     -0.408841

  @DF-RHF Final Energy:  -387.08352142925963

   => Energetics <=

    Nuclear Repulsion Energy =            463.0851129590529922
    One-Electron Energy =               -1442.4941988451691941
    Two-Electron Energy =                 592.3255644568589560
    DFT Exchange-Correlation Energy =       0.0000000000000000
    Empirical Dispersion Energy =           0.0000000000000000
    PCM Polarization Energy =               0.0000000000000000
    EFP Energy =                            0.0000000000000000
    Total Energy =                       -387.0835214292571891

  Mulliken Charges: (a.u.)
   Center  Symbol    Alpha    Beta     Spin     Total
       1     H     0.43227  0.43227  0.00000  0.13546
       2     C     2.83303  2.83303  0.00000  0.33394
       3     C     3.20743  3.20743  0.00000 -0.41486
       4     O     4.23767  4.23767  0.00000 -0.47534
       5     C     3.16214  3.16214  0.00000 -0.32428
       6     H     0.40037  0.40037  0.00000  0.19927
       7     H     0.40676  0.40676  0.00000  0.18648
       8     C     3.15992  3.15992  0.00000 -0.31984
       9     H     0.41457  0.41457  0.00000  0.17087
      10     H     0.42092  0.42092  0.00000  0.15817
      11     C     3.15369  3.15369  0.00000 -0.30737
      12     H     0.41667  0.41667  0.00000  0.16667
      13     H     0.42382  0.42382  0.00000  0.15235
      14     C     3.15664  3.15664  0.00000 -0.31327
      15     H     0.41953  0.41953  0.00000  0.16093
      16     H     0.42073  0.42073  0.00000  0.15855
      17     C     3.16182  3.16182  0.00000 -0.32364
      18     H     0.42059  0.42059  0.00000  0.15883
      19     H     0.41892  0.41892  0.00000  0.16216
      20     C     3.24237  3.24237  0.00000 -0.48474
      21     H     0.41700  0.41700  0.00000  0.16600
      22     H     0.42036  0.42036  0.00000  0.15928
      23     H     0.42280  0.42280  0.00000  0.15440
      24     H     0.41320  0.41320  0.00000  0.17361
      25     H     0.41681  0.41681  0.00000  0.16637

   Total alpha = 36.00000, Total beta = 36.00000, Total charge =  0.00000
