  ==> Input File <==

--------------------------------------------------------------------------
set {
	reference rhf
	basis 6-31G*
}

set_num_threads( 4 )
memory 2 gb

molecule MOL {
0 1

H	 -3.419533	 -0.306918	 1.148286
C	 -3.359283	 -0.198583	 0.058215
C	 -2.613999	 1.021153	 -0.420748
O	 -3.861185	 -1.008937	 -0.651130
C	 -1.220012	 1.144545	 0.209990
H	 -2.560268	 0.986274	 -1.502693
H	 -3.210465	 1.889619	 -0.143891
C	 -0.252658	 0.041456	 -0.226725
H	 -0.806706	 2.112904	 -0.055987
H	 -1.312975	 1.142970	 1.294938
C	 1.180775	 0.282413	 0.250794
H	 -0.266029	 -0.034465	 -1.312038
H	 -0.597733	 -0.921000	 0.146291
C	 2.148627	 -0.814315	 -0.201312
H	 1.516199	 1.249228	 -0.115937
H	 1.192670	 0.346017	 1.338083
C	 3.580890	 -0.659131	 0.322722
H	 2.166869	 -0.852443	 -1.289387
H	 1.762857	 -1.776509	 0.128956
C	 4.324889	 0.564933	 -0.213704
H	 4.142010	 -1.551473	 0.056605
H	 3.564836	 -0.624694	 1.410140
H	 4.342616	 0.565491	 -1.300421
H	 3.866655	 1.493402	 0.110242
H	 5.353900	 0.572371	 0.132816

	symmetry c1
}
set optking {
	frozen_dihedral = ("
		3 5 8 12
	")
}

ee = optimize('scf')
oeprop('DIPOLE', 'QUADRUPOLE', 'MULLIKEN_CHARGES')
f=open( 'psi4out.xyz', 'w' )
f.write( "25  " )
f.write( str(ee) + "\n" )
f.write( MOL.save_string_xyz() )
f.close()
--------------------------------------------------------------------------

    Molecular point group: c1
  Charge       = 0
  Multiplicity = 1
  Basis Set: 6-31G*
  Basis Set:
  @DF-RHF Final Energy:  -387.12185824154056
    Total Energy =                       -387.1218582415406217
    Molecular point group: c1
  Basis Set: 6-31G*
  Basis Set:
  Basis Set: 6-31G*
  Basis Set:
  @DF-RHF Final Energy:  -387.12145835695992
    Total Energy =                       -387.1214583569595789
  Basis Set: 6-31G*
  Basis Set:
  Basis Set: 6-31G*
  Basis Set:
  @DF-RHF Final Energy:  -387.12166873159663
    Total Energy =                       -387.1216687315968557
  Basis Set: 6-31G*
  Basis Set:
  Basis Set: 6-31G*
  Basis Set:
  @DF-RHF Final Energy:  -387.12183863222248
    Total Energy =                       -387.1218386322220795
  Basis Set: 6-31G*
  Basis Set:
  @DF-RHF Final Energy:  -387.12188163809378
    Total Energy =                       -387.1218816380936687
  Basis Set: 6-31G*
  Basis Set:
  @DF-RHF Final Energy:  -387.12187270148803
    Total Energy =                       -387.1218727014875185
  Basis Set: 6-31G*
  Basis Set:
  Basis Set: 6-31G*
  Basis Set:
  @DF-RHF Final Energy:  -387.12188479414687
    Total Energy =                       -387.1218847941469221
  Basis Set: 6-31G*
  Basis Set:
  Basis Set: 6-31G*
  Basis Set:
  @DF-RHF Final Energy:  -387.12188838427471
    Total Energy =                       -387.1218883842749392
  Basis Set: 6-31G*
  Basis Set:
  Charge       = 0
  Multiplicity = 1
  Basis Set: 6-31G*
  Basis Set:

    Orbital Energies (a.u.)
    -----------------------

    Doubly Occupied:

       1A    -20.561858     2A    -11.326041     3A    -11.235353
       4A    -11.234689     5A    -11.223961     6A    -11.219992
       7A    -11.218094     8A    -11.217031     9A    -11.210714
      10A     -1.401780    11A     -1.103950    12A     -1.069747
      13A     -1.013368    14A     -0.942448    15A     -0.875367
      16A     -0.821136    17A     -0.787599    18A     -0.781523
      19A     -0.664644    20A     -0.661427    21A     -0.632768
      22A     -0.626195    23A     -0.600259    24A     -0.595416
      25A     -0.576202    26A     -0.548316    27A     -0.536844
      28A     -0.524831    29A     -0.508068    30A     -0.495082
      31A     -0.492105    32A     -0.479244    33A     -0.464569
      34A     -0.459181    35A     -0.441372    36A     -0.409275

  @DF-RHF Final Energy:  -387.12188843508426

   => Energetics <=

    Nuclear Repulsion Energy =            439.0249831336256534
    One-Electron Energy =               -1394.3728536029589122
    Two-Electron Energy =                 568.2259820342488865
    DFT Exchange-Correlation Energy =       0.0000000000000000
    Empirical Dispersion Energy =           0.0000000000000000
    PCM Polarization Energy =               0.0000000000000000
    EFP Energy =                            0.0000000000000000
    Total Energy =                       -387.1218884350843155
    Molecular point group: c1
  Basis Set: 6-31G*
  Basis Set:

  -Total Gradient:
     Atom            X                  Y                   Z
    ------   -----------------  -----------------  -----------------
       1       -0.000001477790    -0.000001126235    -0.000000001978
       2        0.000005895328    -0.000005148810     0.000000106798
       3        0.000298196283     0.000565723698    -0.000758052800
       4       -0.000005486718     0.000000592940    -0.000000363907
       5       -0.000636647833    -0.001001304499     0.001083749906
       6       -0.000002457068     0.000001570166    -0.000000359635
       7       -0.000001134547     0.000000276957    -0.000001583442
       8        0.001338831377     0.001350686566    -0.000408620111
       9       -0.000000241384    -0.000001876308    -0.000001904645
      10        0.000001652494     0.000002011532     0.000001765566
      11        0.000017978947     0.000011833456    -0.000008925762
      12       -0.000992858012    -0.000917918490     0.000078736911
      13       -0.000005367705     0.000002627639    -0.000001398129
      14       -0.000007351302    -0.000014039125     0.000025807703
      15        0.000030643925     0.000023676216     0.000005827372
      16       -0.000010302262    -0.000011296528    -0.000006933724
      17        0.000008385721    -0.000004344496    -0.000025369219
      18       -0.000011601641    -0.000003798942     0.000005656337
      19        0.000008356685    -0.000005770449     0.000011063111
      20       -0.000010670020     0.000003083160     0.000008010993
      21       -0.000002630147    -0.000001765816    -0.000007970817
      22        0.000000540224    -0.000004557238    -0.000003553506
      23        0.000003056559    -0.000003376070     0.000002115534
      24       -0.000023831992     0.000011594047    -0.000001891400
      25       -0.000001479108     0.000002646631     0.000004088845

  **** Optimization is complete! (in 9 steps) ****
    Final optimized geometry and variables:
    Molecular point group: c1

    Geometry (in Angstrom), charge = 0, multiplicity = 1:

    H           -3.403343101771    -0.377333327457     1.244901201479
    C           -3.346104315294    -0.251532864512     0.156457681449
    C           -2.619207476659     0.986035000439    -0.304795513340
    O           -3.842146091310    -1.055516048160    -0.564288540151
    C           -1.220996300206     1.114509111315     0.315707185790
    H           -2.572830159643     0.971728271043    -1.387482068558
    H           -3.223116115127     1.842256234692    -0.007055905979
    C           -0.249679772494     0.019464355293    -0.134042548769
    H           -0.818999300135     2.086767900111     0.045078685465
    H           -1.300885041700     1.112064745759     1.401261471183
    C            1.183413703915     0.256250765523     0.345183639570
    H           -0.269054867492    -0.052920867165    -1.219475930589
    H           -0.594428036542    -0.946432722680     0.231456419202
    C            2.146085656445    -0.851037314811    -0.091936218586
    H            1.525792336560     1.217408395207    -0.029623666484
    H            1.191821016274     0.330439551961     1.431799670534
    C            3.578087049817    -0.697647478827     0.433228166123
    H            2.166657612256    -0.900953291508    -1.179386588264
    H            1.754383771091    -1.807486686339     0.247721870185
    C            4.328496951233     0.518913470496    -0.111880055156
    H            4.135710473030    -1.594793949623     0.176283708716
    H            3.559590213732    -0.653757563948     1.520353053868
    H            4.352861071775     0.507649646556    -1.198286160044
    H            3.871062425323     1.452279761524     0.199273592352
    H            5.355338286620     0.527447419124     0.240422152621

  Mulliken Charges: (a.u.)
   Center  Symbol    Alpha    Beta     Spin     Total
       1     H     0.43267  0.43267  0.00000  0.13465
       2     C     2.83078  2.83078  0.00000  0.33845
       3     C     3.20847  3.20847  0.00000 -0.41695
       4     O     4.23775  4.23775  0.00000 -0.47549
       5     C     3.16622  3.16622  0.00000 -0.33244
       6     H     0.39967  0.39967  0.00000  0.20066
       7     H     0.40670  0.40670  0.00000  0.18660
       8     C     3.15510  3.15510  0.00000 -0.31021
       9     H     0.41317  0.41317  0.00000  0.17367
      10     H     0.41912  0.41912  0.00000  0.16176
      11     C     3.15417  3.15417  0.00000 -0.30834
      12     H     0.41739  0.41739  0.00000  0.16522
      13     H     0.41919  0.41919  0.00000  0.16161
      14     C     3.15313  3.15313  0.00000 -0.30625
      15     H     0.42061  0.42061  0.00000  0.15877
      16     H     0.42376  0.42376  0.00000  0.15249
      17     C     3.15277  3.15277  0.00000 -0.30553
      18     H     0.42281  0.42281  0.00000  0.15438
      19     H     0.42076  0.42076  0.00000  0.15847
      20     C     3.24139  3.24139  0.00000 -0.48278
      21     H     0.41993  0.41993  0.00000  0.16014
      22     H     0.42332  0.42332  0.00000  0.15337
      23     H     0.42180  0.42180  0.00000  0.15639
      24     H     0.42068  0.42068  0.00000  0.15864
      25     H     0.41864  0.41864  0.00000  0.16271

   Total alpha = 36.00000, Total beta = 36.00000, Total charge =  0.00000
