                              Psi4 1.0.54 Driver

  ==> Input File <==

--------------------------------------------------------------------------
set {
	reference rhf
	basis cc-pvtz
}

set_num_threads( 4 )
memory 2 gb

molecule MOL {
0 1

H	 -2.016790	 1.495190	 3.873231
O	 -1.320148	 0.933619	 3.587709
C	 -1.177145	 1.011903	 2.194210
C	 -0.046826	 0.094713	 1.773182
H	 -2.099457	 0.714496	 1.699576
H	 -0.957659	 2.033484	 1.890849
C	 0.196029	 0.106276	 0.266738
H	 -0.279499	 -0.912196	 2.105170
H	 0.853866	 0.395554	 2.298698
C	 1.330220	 -0.826136	 -0.155230
H	 -0.720701	 -0.172296	 -0.243868
H	 0.430349	 1.118812	 -0.054895
C	 2.719700	 -0.407669	 0.328325
H	 1.339388	 -0.911200	 -1.239363
H	 1.119001	 -1.821953	 0.224128
C	 3.241564	 0.893452	 -0.276737
H	 3.418299	 -1.204729	 0.093035
H	 2.711776	 -0.323368	 1.411960
H	 3.254204	 0.841071	 -1.360784
H	 2.634460	 1.745075	 0.005842
H	 4.254264	 1.092401	 0.054971

	symmetry c1
}
set optking {
	frozen_dihedral = ("
		4 7 10 14
	")
}

ee,wfn = optimize('scf', return_wfn=True)
oeprop( wfn, 'DIPOLE', 'QUADRUPOLE', 'MULLIKEN_CHARGES')
f=open( 'psi4out.xyz', 'w' )
f.write( "21  " )
f.write( str(ee) + "\n" )
f.write( MOL.save_string_xyz() )
f.close()
--------------------------------------------------------------------------

    Molecular point group: c1
  Charge       = 0
  Multiplicity = 1
  Basis Set: CC-PVTZ
  Basis Set:
  @DF-RHF Final Energy:  -310.33086118458499
    Total Energy =                       -310.3308611845848759
    Molecular point group: c1
  Basis Set: CC-PVTZ
  Basis Set:
  Basis Set: CC-PVTZ
  Basis Set:
  @DF-RHF Final Energy:  -310.33120148606559
    Total Energy =                       -310.3312014860655381
  Basis Set: CC-PVTZ
  Basis Set:
  Basis Set: CC-PVTZ
  Basis Set:
  @DF-RHF Final Energy:  -310.33144386896481
    Total Energy =                       -310.3314438689648114
  Basis Set: CC-PVTZ
  Basis Set:
  Basis Set: CC-PVTZ
  Basis Set:
  @DF-RHF Final Energy:  -310.33144241657413
    Total Energy =                       -310.3314424165740775
  Basis Set: CC-PVTZ
  Basis Set:
  Basis Set: CC-PVTZ
  Basis Set:
  @DF-RHF Final Energy:  -310.33144933037795
    Total Energy =                       -310.3314493303781774
  Basis Set: CC-PVTZ
  Basis Set:
  Charge       = 0
  Multiplicity = 1
  Basis Set: CC-PVTZ
  Basis Set:

    Orbital Energies (a.u.)
    -----------------------

    Doubly Occupied:

       1A    -20.545501     2A    -11.265122     3A    -11.213263
       4A    -11.211959     5A    -11.211364     6A    -11.208705
       7A    -11.205521     8A     -1.363357     9A     -1.087026
      10A     -1.031711    11A     -0.956670    12A     -0.876123
      13A     -0.818758    14A     -0.766697    15A     -0.693969
      16A     -0.661061    17A     -0.627776    18A     -0.615843
      19A     -0.576084    20A     -0.559944    21A     -0.556272
      22A     -0.527416    23A     -0.500812    24A     -0.491843
      25A     -0.480989    26A     -0.457563    27A     -0.449502
      28A     -0.447298    29A     -0.437365

  @DF-RHF Final Energy:  -310.33144998323672

   => Energetics <=

    Nuclear Repulsion Energy =            318.0757895540828599
    One-Electron Energy =               -1051.1234535345472523
    Two-Electron Energy =                 422.7162139972278965
    DFT Exchange-Correlation Energy =       0.0000000000000000
    Empirical Dispersion Energy =           0.0000000000000000
    PCM Polarization Energy =               0.0000000000000000
    EFP Energy =                            0.0000000000000000
    Total Energy =                       -310.3314499832365527
    Molecular point group: c1
  Basis Set: CC-PVTZ
  Basis Set:

  -Total Gradient:
     Atom            X                  Y                   Z
    ------   -----------------  -----------------  -----------------
       1       -0.000001397850     0.000002907280    -0.000001449809
       2        0.000005647112    -0.000012574509     0.000006430668
       3       -0.000010186478     0.000009161867    -0.000008167552
       4       -0.000481764793    -0.000517937361    -0.000093626308
       5       -0.000004680642    -0.000002162375    -0.000004879379
       6        0.000004774831     0.000000796912    -0.000003588842
       7        0.000544280245     0.000555520580     0.000127744998
       8        0.000004692407    -0.000007771450    -0.000002351611
       9        0.000011504265     0.000003097438     0.000003558840
      10        0.000570570071     0.000708141642    -0.000074875528
      11       -0.000010967882     0.000004892254    -0.000002106917
      12        0.000005081075     0.000006048688     0.000004282102
      13       -0.000005596601     0.000003912277    -0.000002500350
      14       -0.000635425392    -0.000742404892     0.000045521945
      15       -0.000002881349    -0.000012146652     0.000002127273
      16        0.000007361876    -0.000011477082    -0.000003155115
      17        0.000002785722     0.000011561906    -0.000001640110
      18       -0.000006502628     0.000007488527     0.000000530379
      19       -0.000005184609    -0.000004853405    -0.000002484102
      20       -0.000008121520    -0.000004933680     0.000009409551
      21        0.000016012140     0.000002732036     0.000001219869

  **** Optimization is complete! (in 6 steps) ****
    Final optimized geometry and variables:
    Molecular point group: c1

    Geometry (in Angstrom), charge = 0, multiplicity = 1:

    H           -2.737207703120     1.194673186510     2.714716218644
    O           -2.019075015830     0.655589278354     2.439385564877
    C           -1.869962424172     0.724362527495     1.046019943821
    C           -0.705462791963    -0.157174691857     0.641411679627
    H           -2.778147351162     0.390039856221     0.549010381992
    H           -1.684163642449     1.749851454488     0.733276420724
    C           -0.454586783489    -0.139372516759    -0.864612939598
    H           -0.910389107279    -1.171066468171     0.970830021344
    H            0.172585045778     0.175434956952     1.183235686924
    C            0.647311005809    -1.094650947513    -1.331472846401
    H           -1.373652160047    -0.417008223453    -1.374044104676
    H           -0.230827902911     0.873111085816    -1.186530461427
    C            2.071620209122    -0.763327459317    -0.878420795443
    H            0.626891865307    -1.140237432346    -2.417085716882
    H            0.401315902272    -2.095960410395    -0.988132163359
    C            2.614689398385     0.562186515372    -1.406423526868
    H            2.723314959578    -1.564234905521    -1.213977392741
    H            2.127388411965    -0.769316792906     0.205182872613
    H            2.564548099083     0.600926649446    -2.489972820896
    H            2.062108251637     1.410411537941    -1.020126250708
    H            3.651747921685     0.693546259680    -1.119493937218

  Mulliken Charges: (a.u.)
   Center  Symbol    Alpha    Beta     Spin     Total
       1     H     0.39741  0.39741  0.00000  0.20518
       2     O     4.19495  4.19495  0.00000 -0.38990
       3     C     2.96367  2.96367  0.00000  0.07266
       4     C     3.08654  3.08654  0.00000 -0.17308
       5     H     0.47358  0.47358  0.00000  0.05285
       6     H     0.47462  0.47462  0.00000  0.05076
       7     C     3.11408  3.11408  0.00000 -0.22815
       8     H     0.45036  0.45036  0.00000  0.09929
       9     H     0.45006  0.45006  0.00000  0.09988
      10     C     3.10103  3.10103  0.00000 -0.20206
      11     H     0.44630  0.44630  0.00000  0.10739
      12     H     0.45170  0.45170  0.00000  0.09661
      13     C     3.09481  3.09481  0.00000 -0.18962
      14     H     0.44773  0.44773  0.00000  0.10454
      15     H     0.44886  0.44886  0.00000  0.10229
      16     C     3.15202  3.15202  0.00000 -0.30405
      17     H     0.44623  0.44623  0.00000  0.10755
      18     H     0.45063  0.45063  0.00000  0.09875
      19     H     0.45479  0.45479  0.00000  0.09041
      20     H     0.45453  0.45453  0.00000  0.09093
      21     H     0.44611  0.44611  0.00000  0.10778

   Total alpha = 29.00000, Total beta = 29.00000, Total charge =  0.00000

*** Psi4 exiting successfully. Buy a developer a beer!
