  ==> Input File <==

--------------------------------------------------------------------------
set {
	reference rhf
	basis 6-31G*
}

set_num_threads( 4 )
memory 2 gb

molecule MOL {
0 1

H	 -0.516344	 1.550786	 2.886715
C	 -1.161511	 0.683844	 2.697527
C	 -2.026096	 0.789316	 1.467088
O	 -1.145016	 -0.245669	 3.437449
C	 -1.220012	 1.144545	 0.209990
H	 -2.563403	 -0.144078	 1.345495
H	 -2.757938	 1.573607	 1.656697
C	 -0.252658	 0.041456	 -0.226725
H	 -1.915902	 1.354328	 -0.596864
H	 -0.669750	 2.068198	 0.382713
C	 1.180775	 0.282413	 0.250794
H	 -0.266029	 -0.034465	 -1.312038
H	 -0.597733	 -0.921000	 0.146291
C	 2.148627	 -0.814315	 -0.201312
H	 1.516199	 1.249228	 -0.115937
H	 1.192670	 0.346017	 1.338083
C	 3.580890	 -0.659131	 0.322722
H	 2.166869	 -0.852443	 -1.289387
H	 1.762857	 -1.776509	 0.128956
C	 4.324889	 0.564933	 -0.213704
H	 4.142010	 -1.551473	 0.056605
H	 3.564836	 -0.624694	 1.410140
H	 4.342616	 0.565491	 -1.300421
H	 3.866655	 1.493402	 0.110242
H	 5.353900	 0.572371	 0.132816

	symmetry c1
}
set optking {
	frozen_dihedral = ("
		3 5 8 12
	")
}

ee = optimize('scf')
oeprop('DIPOLE', 'QUADRUPOLE', 'MULLIKEN_CHARGES')
f=open( 'psi4out.xyz', 'w' )
f.write( "25  " )
f.write( str(ee) + "\n" )
f.write( MOL.save_string_xyz() )
f.close()
--------------------------------------------------------------------------

    Molecular point group: c1
  Charge       = 0
  Multiplicity = 1
  Basis Set: 6-31G*
  Basis Set:
  @DF-RHF Final Energy:  -387.11726285781225
    Total Energy =                       -387.1172628578115109
    Molecular point group: c1
  Basis Set: 6-31G*
  Basis Set:
  Basis Set: 6-31G*
  Basis Set:
  @DF-RHF Final Energy:  -387.11721365368436
    Total Energy =                       -387.1172136536847574
  Basis Set: 6-31G*
  Basis Set:
  Basis Set: 6-31G*
  Basis Set:
  @DF-RHF Final Energy:  -387.11423452437617
    Total Energy =                       -387.1142345243758882
  Basis Set: 6-31G*
  Basis Set:
  Basis Set: 6-31G*
  Basis Set:
  @DF-RHF Final Energy:  -387.11772810096170
    Total Energy =                       -387.1177281009616991
  Basis Set: 6-31G*
  Basis Set:
  @DF-RHF Final Energy:  -387.11779726120653
    Total Energy =                       -387.1177972612065332
  @DF-RHF Final Energy:  -387.11778306465584
    Total Energy =                       -387.1177830646558959
  Basis Set: 6-31G*
  Basis Set:
  @DF-RHF Final Energy:  -387.11781407231467
    Total Energy =                       -387.1178140723150136
  Basis Set: 6-31G*
  Basis Set:
  Basis Set: 6-31G*
  Basis Set:
  @DF-RHF Final Energy:  -387.11780727306109
    Total Energy =                       -387.1178072730604072
  Basis Set: 6-31G*
  Basis Set:
  Basis Set: 6-31G*
  Basis Set:
  @DF-RHF Final Energy:  -387.11781564064040
    Total Energy =                       -387.1178156406410835
  Basis Set: 6-31G*
  Basis Set:
  Charge       = 0
  Multiplicity = 1
  Basis Set: 6-31G*
  Basis Set:

    Orbital Energies (a.u.)
    -----------------------

    Doubly Occupied:

       1A    -20.562180     2A    -11.326122     3A    -11.235480
       4A    -11.234772     5A    -11.222301     6A    -11.218261
       7A    -11.215469     8A    -11.214671     9A    -11.208879
      10A     -1.401936    11A     -1.101246    12A     -1.067135
      13A     -1.010538    14A     -0.942138    15A     -0.878180
      16A     -0.816012    17A     -0.788061    18A     -0.778762
      19A     -0.666260    20A     -0.652004    21A     -0.643503
      22A     -0.615680    23A     -0.613425    24A     -0.574818
      25A     -0.572002    26A     -0.561394    27A     -0.532164
      28A     -0.520216    29A     -0.509418    30A     -0.505422
      31A     -0.484823    32A     -0.472519    33A     -0.458800
      34A     -0.456881    35A     -0.442306    36A     -0.408524

  @DF-RHF Final Energy:  -387.11781634131103

   => Energetics <=

    Nuclear Repulsion Energy =            451.0679255842337625
    One-Electron Energy =               -1418.5468830167087617
    Two-Electron Energy =                 580.3611410911640860
    DFT Exchange-Correlation Energy =       0.0000000000000000
    Empirical Dispersion Energy =           0.0000000000000000
    PCM Polarization Energy =               0.0000000000000000
    EFP Energy =                            0.0000000000000000
    Total Energy =                       -387.1178163413109132
    Molecular point group: c1
  Basis Set: 6-31G*
  Basis Set:

  -Total Gradient:
     Atom            X                  Y                   Z
    ------   -----------------  -----------------  -----------------
       1        0.000012486561    -0.000002283742     0.000017545360
       2       -0.000017351456    -0.000025531404    -0.000017025240
       3       -0.001066074566    -0.000653825314    -0.000878655004
       4        0.000015972029     0.000000613612     0.000038330500
       5        0.001130310403     0.000600697383     0.001227877996
       6       -0.000015146074     0.000014842941    -0.000003079924
       7        0.000008082199     0.000005773333     0.000002272771
       8        0.001405431374     0.001452812701    -0.000491695842
       9        0.000015273341    -0.000008051028    -0.000013647716
      10       -0.000000211693    -0.000002660774    -0.000008721804
      11        0.000056572220     0.000016881913    -0.000013566573
      12       -0.001503900205    -0.001424107149     0.000132262680
      13       -0.000020636620     0.000017879501     0.000003196879
      14       -0.000005058145    -0.000003300524     0.000005164713
      15        0.000013613653     0.000024960475     0.000010125996
      16       -0.000007041948    -0.000009858453    -0.000006821473
      17        0.000000575934    -0.000006347523    -0.000010260647
      18        0.000003162644    -0.000018048599    -0.000006847999
      19       -0.000010682108     0.000007856968     0.000008398365
      20       -0.000008551841     0.000004306531     0.000005180773
      21       -0.000001637851     0.000009765000    -0.000007956597
      22        0.000007722674    -0.000013413017     0.000001705790
      23        0.000001791972    -0.000004691347     0.000006286499
      24       -0.000014422058     0.000009944116    -0.000003344074
      25       -0.000000280436     0.000005784404     0.000003274570

  **** Optimization is complete! (in 10 steps) ****
    Final optimized geometry and variables:
    Molecular point group: c1

    Geometry (in Angstrom), charge = 0, multiplicity = 1:

    H           -1.297720660308     1.422917373456     2.120162658750
    C           -1.830321715037     0.503234045931     1.849352011819
    C           -2.676239792977     0.597205813442     0.606435856535
    O           -1.715838184511    -0.472250102940     2.519116619389
    C           -1.861904144351     0.950807135558    -0.650263552826
    H           -3.199566748416    -0.342753022989     0.477246150859
    H           -3.417297749564     1.376684288057     0.777252955187
    C           -0.859951139798    -0.137413311186    -1.086247469226
    H           -2.573704692539     1.127531870107    -1.449947820160
    H           -1.345525215483     1.896330423912    -0.498442358246
    C            0.577830933240     0.095490500822    -0.612318044508
    H           -0.868686822204    -0.213915198462    -2.170208409731
    H           -1.202533619252    -1.104161914649    -0.724274390205
    C            1.532272905929    -1.011326317410    -1.067763012881
    H            0.917617988505     1.058556693965    -0.984909216277
    H            0.604718949422     0.157880015585     0.473793184691
    C            2.969793094613    -0.867227340325    -0.555303601757
    H            1.541999829520    -1.052720880548    -2.156045885058
    H            1.140086896006    -1.968058285915    -0.730250773298
    C            3.718956474794     0.351799553751    -1.096695080635
    H            3.521841856159    -1.763728547444    -0.826181729903
    H            2.961620526784    -0.833896573726     0.532048650457
    H            3.732454359840     0.350903201800    -2.183440873221
    H            3.268073075058     1.283857744195    -0.772190039041
    H            4.749299417523     0.353645372382    -0.754624495482

  Mulliken Charges: (a.u.)
   Center  Symbol    Alpha    Beta     Spin     Total
       1     H     0.43197  0.43197  0.00000  0.13606
       2     C     2.83018  2.83018  0.00000  0.33965
       3     C     3.20769  3.20769  0.00000 -0.41538
       4     O     4.23925  4.23925  0.00000 -0.47849
       5     C     3.16755  3.16755  0.00000 -0.33510
       6     H     0.39981  0.39981  0.00000  0.20038
       7     H     0.40930  0.40930  0.00000  0.18140
       8     C     3.15993  3.15993  0.00000 -0.31985
       9     H     0.41073  0.41073  0.00000  0.17854
      10     H     0.41763  0.41763  0.00000  0.16475
      11     C     3.15822  3.15822  0.00000 -0.31644
      12     H     0.41751  0.41751  0.00000  0.16497
      13     H     0.41380  0.41380  0.00000  0.17240
      14     C     3.15334  3.15334  0.00000 -0.30667
      15     H     0.42147  0.42147  0.00000  0.15706
      16     H     0.42035  0.42035  0.00000  0.15930
      17     C     3.15318  3.15318  0.00000 -0.30636
      18     H     0.42458  0.42458  0.00000  0.15085
      19     H     0.41873  0.41873  0.00000  0.16255
      20     C     3.24120  3.24120  0.00000 -0.48239
      21     H     0.42031  0.42031  0.00000  0.15938
      22     H     0.42090  0.42090  0.00000  0.15821
      23     H     0.42259  0.42259  0.00000  0.15481
      24     H     0.42114  0.42114  0.00000  0.15772
      25     H     0.41867  0.41867  0.00000  0.16266

   Total alpha = 36.00000, Total beta = 36.00000, Total charge = -0.00000
