  ==> Input File <==

--------------------------------------------------------------------------
set {
	reference rhf
	basis 6-31G*
}

set_num_threads( 1 )
memory 2 gb

molecule MOL {
0 1

H	 -2.686060	 0.364365	 0.646619
O	 -2.035884	 -0.060112	 0.102722
C	 -0.955155	 0.788182	 -0.092531
C	 0.353668	 0.040312	 -0.004810
H	 -0.985057	 1.290372	 -1.054184
H	 -0.974469	 1.533190	 0.688632
F	 0.394464	 -0.937475	 -0.903053
F	 1.368604	 0.853376	 -0.249821
F	 0.546173	 -0.502608	 1.179981

	symmetry c1
}
set optking {
	frozen_dihedral = ("
		7 4 3 5
	")
}

ee = energy('scf')
oeprop('DIPOLE', 'QUADRUPOLE', 'MULLIKEN_CHARGES')
f=open( 'psi4out.xyz', 'w' )
f.write( "9  " )
f.write( str(ee) + "\n" )
f.write( MOL.save_string_xyz() )
f.close()
--------------------------------------------------------------------------

    Molecular point group: c1

    Geometry (in Angstrom), charge = 0, multiplicity = 1:

       Center              X                  Y                   Z               Mass
    ------------   -----------------  -----------------  -----------------  -----------------
           H         -2.680143994987     0.353898241784     0.633888794290     1.007825032070
           O         -2.029967994987    -0.070578758216     0.089991794290    15.994914619560
           C         -0.949238994987     0.777715241784    -0.105261205710    12.000000000000
           C          0.359584005013     0.029845241784    -0.017540205710    12.000000000000
           H         -0.979140994987     1.279905241784    -1.066914205710     1.007825032070
           H         -0.968552994987     1.522723241784     0.675901794290     1.007825032070
           F          0.400380005013    -0.947941758216    -0.915783205710    18.998403224000
           F          1.374520005013     0.842909241784    -0.262551205710    18.998403224000
           F          0.552089005013    -0.513074758216     1.167250794290    18.998403224000

  Charge       = 0
  Multiplicity = 1
  Basis Set: 6-31G*
  Basis Set:

    Orbital Energies (a.u.)
    -----------------------

    Doubly Occupied:

       1A    -26.340762     2A    -26.335826     3A    -26.329356
       4A    -20.588436     5A    -11.498005     6A    -11.310240
       7A     -1.733683     8A     -1.634748     9A     -1.626734
      10A     -1.401567    11A     -1.047345    12A     -0.917436
      13A     -0.824889    14A     -0.823072    15A     -0.785911
      16A     -0.736143    17A     -0.706816    18A     -0.695589
      19A     -0.665845    20A     -0.649991    21A     -0.637652
      22A     -0.634877    23A     -0.597404    24A     -0.526931
      25A     -0.478165

  @DF-RHF Final Energy:  -450.65783538530457

   => Energetics <=

    Nuclear Repulsion Energy =            276.1599616070260481
    One-Electron Energy =               -1174.5808493733441082
    Two-Electron Energy =                 447.7630523810134946
    DFT Exchange-Correlation Energy =       0.0000000000000000
    Empirical Dispersion Energy =           0.0000000000000000
    PCM Polarization Energy =               0.0000000000000000
    EFP Energy =                            0.0000000000000000
    Total Energy =                       -450.6578353853045655

  Mulliken Charges: (a.u.)
   Center  Symbol    Alpha    Beta     Spin     Total
       1     H     0.27070  0.27070  0.00000  0.45860
       2     O     4.36282  4.36282  0.00000 -0.72565
       3     C     3.05280  3.05280  0.00000 -0.10559
       4     C     2.45422  2.45422  0.00000  1.09156
       5     H     0.40665  0.40665  0.00000  0.18670
       6     H     0.41292  0.41292  0.00000  0.17417
       7     F     4.68094  4.68094  0.00000 -0.36188
       8     F     4.68224  4.68224  0.00000 -0.36449
       9     F     4.67670  4.67670  0.00000 -0.35341

   Total alpha = 25.00000, Total beta = 25.00000, Total charge =  0.00000
