  ==> Input File <==

--------------------------------------------------------------------------
set {
	reference rhf
	basis 6-31G*
}

set_num_threads( 1 )
memory 2 gb

molecule MOL {
0 1

H	 1.032673	 -2.499859	 2.549089
O	 1.208862	 -2.100186	 1.702936
C	 0.411965	 -1.039805	 1.572693
C	 0.624473	 -0.343591	 0.253101
O	 -0.356888	 -0.719974	 2.419799
C	 -0.265902	 0.883932	 0.072916
H	 1.679026	 -0.095505	 0.191913
H	 0.445941	 -1.076498	 -0.529667
C	 -1.728698	 0.646073	 0.462102
H	 -0.209144	 1.219470	 -0.958188
H	 0.135059	 1.692851	 0.673903
C	 -2.482460	 -0.343073	 -0.431425
H	 -2.245265	 1.602650	 0.432430
H	 -1.779332	 0.308348	 1.496285
C	 -3.960546	 -0.461025	 -0.060175
H	 -2.395034	 -0.026811	 -1.468912
H	 -2.024850	 -1.327147	 -0.371646
H	 -4.472726	 -1.168004	 -0.705284
H	 -4.465146	 0.496508	 -0.151489
H	 -4.081218	 -0.800940	 0.964585

	symmetry c1
}
set optking {
	frozen_dihedral = ("
		16 12 9 6,
		12 9 6 10,
		5 3 4 7,
		1 2 3 5
	")
}

ee = energy('scf')
oeprop('DIPOLE', 'QUADRUPOLE', 'MULLIKEN_CHARGES')
f=open( 'psi4out.xyz', 'w' )
f.write( "20  " )
f.write( str(ee) + "\n" )
f.write( MOL.save_string_xyz() )
f.close()
--------------------------------------------------------------------------

    Molecular point group: c1

    Geometry (in Angstrom), charge = 0, multiplicity = 1:

       Center              X                  Y                   Z               Mass
    ------------   -----------------  -----------------  -----------------  -----------------
           H          1.839940350301    -2.028766883763     1.769367584182     1.007825032070
           O          2.016129350301    -1.629093883763     0.923214584182    15.994914619560
           C          1.219232350301    -0.568712883763     0.792971584182    12.000000000000
           C          1.431740350301     0.127501116237    -0.526620415818    12.000000000000
           O          0.450379350301    -0.248881883763     1.640077584182    15.994914619560
           C          0.541365350301     1.355024116237    -0.706805415818    12.000000000000
           H          2.486293350301     0.375587116237    -0.587808415818     1.007825032070
           H          1.253208350301    -0.605405883763    -1.309388415818     1.007825032070
           C         -0.921430649699     1.117165116237    -0.317619415818    12.000000000000
           H          0.598123350301     1.690562116237    -1.737909415818     1.007825032070
           H          0.942326350301     2.163943116237    -0.105818415818     1.007825032070
           C         -1.675192649699     0.128019116237    -1.211146415818    12.000000000000
           H         -1.437997649699     2.073742116237    -0.347291415818     1.007825032070
           H         -0.972064649699     0.779440116237     0.716563584182     1.007825032070
           C         -3.153278649699     0.010067116237    -0.839896415818    12.000000000000
           H         -1.587766649699     0.444281116237    -2.248633415818     1.007825032070
           H         -1.217582649699    -0.856054883763    -1.151367415818     1.007825032070
           H         -3.665458649699    -0.696911883763    -1.485005415818     1.007825032070
           H         -3.657878649699     0.967600116237    -0.931210415818     1.007825032070
           H         -3.273950649699    -0.329847883763     0.184863584182     1.007825032070

  Charge       = 0
  Multiplicity = 1
  Basis Set: 6-31G*
  Basis Set:

    Orbital Energies (a.u.)
    -----------------------

    Doubly Occupied:

       1A    -20.615313     2A    -20.554176     3A    -11.384969
       4A    -11.241049     5A    -11.222270     6A    -11.211368
       7A    -11.204273     8A    -11.198818     9A     -1.478490
      10A     -1.371001    11A     -1.091185    12A     -1.034931
      13A     -0.954699    14A     -0.867531    15A     -0.811268
      16A     -0.774922    17A     -0.706389    18A     -0.687477
      19A     -0.664164    20A     -0.629579    21A     -0.602625
      22A     -0.591210    23A     -0.570781    24A     -0.548857
      25A     -0.528811    26A     -0.513314    27A     -0.503418
      28A     -0.482808    29A     -0.473411    30A     -0.457275
      31A     -0.447773    32A     -0.421919

  @DF-RHF Final Energy:  -383.93897766053709

   => Energetics <=

    Nuclear Repulsion Energy =            393.7063397023803759
    One-Electron Energy =               -1303.5985155257139922
    Two-Electron Energy =                 525.9531981627968662
    DFT Exchange-Correlation Energy =       0.0000000000000000
    Empirical Dispersion Energy =           0.0000000000000000
    PCM Polarization Energy =               0.0000000000000000
    EFP Energy =                            0.0000000000000000
    Total Energy =                       -383.9389776605368070

  Mulliken Charges: (a.u.)
   Center  Symbol    Alpha    Beta     Spin     Total
       1     H     0.26782  0.26782  0.00000  0.46435
       2     O     4.35096  4.35096  0.00000 -0.70192
       3     C     2.62021  2.62021  0.00000  0.75958
       4     C     3.21523  3.21523  0.00000 -0.43045
       5     O     4.28095  4.28095  0.00000 -0.56189
       6     C     3.15575  3.15575  0.00000 -0.31151
       7     H     0.39511  0.39511  0.00000  0.20978
       8     H     0.39643  0.39643  0.00000  0.20714
       9     C     3.17277  3.17277  0.00000 -0.34554
      10     H     0.41711  0.41711  0.00000  0.16579
      11     H     0.41381  0.41381  0.00000  0.17238
      12     C     3.15165  3.15165  0.00000 -0.30331
      13     H     0.42539  0.42539  0.00000  0.14922
      14     H     0.38148  0.38148  0.00000  0.23704
      15     C     3.23873  3.23873  0.00000 -0.47746
      16     H     0.42655  0.42655  0.00000  0.14690
      17     H     0.42826  0.42826  0.00000  0.14347
      18     H     0.42106  0.42106  0.00000  0.15789
      19     H     0.42188  0.42188  0.00000  0.15624
      20     H     0.41885  0.41885  0.00000  0.16230

   Total alpha = 32.00000, Total beta = 32.00000, Total charge =  0.00000
