                              Psi4 1.0.54 Driver

  ==> Input File <==

--------------------------------------------------------------------------
set {
	reference rhf
	basis cc-pvtz
}

set_num_threads( 4 )
memory 2 gb

molecule MOL {
0 1

O	 -2.081319	 -0.951530	 -0.502732
N	 -1.613558	 0.006676	 0.014756
C	 -0.329345	 -0.171618	 0.743966
O	 -2.068523	 1.100482	 -0.024385
C	 -0.443899	 0.436204	 2.136272
H	 0.421714	 0.323426	 0.151293
H	 -0.153127	 -1.233518	 0.783300
C	 0.854422	 0.273922	 2.922525
H	 -0.691422	 1.487128	 2.042196
H	 -1.259332	 -0.044666	 2.664070
C	 0.764239	 0.867992	 4.323749
H	 1.666666	 0.748785	 2.380121
H	 1.104663	 -0.780545	 2.992432
H	 0.547930	 1.929779	 4.284823
H	 -0.019798	 0.390586	 4.900886
H	 1.696504	 0.738663	 4.859769

	symmetry c1
}
set optking {
	frozen_dihedral = ("
		5 3 2 1
	")
}

ee,wfn = optimize('scf', return_wfn=True)
oeprop( wfn, 'DIPOLE', 'QUADRUPOLE', 'MULLIKEN_CHARGES')
f=open( 'psi4out.xyz', 'w' )
f.write( "16  " )
f.write( str(ee) + "\n" )
f.write( MOL.save_string_xyz() )
f.close()
--------------------------------------------------------------------------

    Molecular point group: c1
  Charge       = 0
  Multiplicity = 1
  Basis Set: CC-PVTZ
  Basis Set:
  @DF-RHF Final Energy:  -360.90864516777742
    Total Energy =                       -360.9086451677775358
    Molecular point group: c1
  Basis Set: CC-PVTZ
  Basis Set:
  Basis Set: CC-PVTZ
  Basis Set:
  @DF-RHF Final Energy:  -360.90867190929634
    Total Energy =                       -360.9086719092966860
  Basis Set: CC-PVTZ
  Basis Set:
  Basis Set: CC-PVTZ
  Basis Set:
  @DF-RHF Final Energy:  -360.89993360978377
    Total Energy =                       -360.8999336097838864
  Basis Set: CC-PVTZ
  Basis Set:
  Basis Set: CC-PVTZ
  Basis Set:
  @DF-RHF Final Energy:  -360.90737861961554
    Total Energy =                       -360.9073786196154288
  Basis Set: CC-PVTZ
  Basis Set:
  Basis Set: CC-PVTZ
  Basis Set:
  @DF-RHF Final Energy:  -360.90894476721940
    Total Energy =                       -360.9089447672192250
  Basis Set: CC-PVTZ
  Basis Set:
  Basis Set: CC-PVTZ
  Basis Set:
  @DF-RHF Final Energy:  -360.90903651520506
    Total Energy =                       -360.9090365152051163
  Basis Set: CC-PVTZ
  Basis Set:
  Basis Set: CC-PVTZ
  Basis Set:
  @DF-RHF Final Energy:  -360.90904716939349
    Total Energy =                       -360.9090471693934319
  Basis Set: CC-PVTZ
  Basis Set:
  Charge       = 0
  Multiplicity = 1
  Basis Set: CC-PVTZ
  Basis Set:

    Orbital Energies (a.u.)
    -----------------------

    Doubly Occupied:

       1A    -20.591609     2A    -20.588750     3A    -15.837002
       4A    -11.297103     5A    -11.247121     6A    -11.240749
       7A    -11.225031     8A     -1.635971     9A     -1.420042
      10A     -1.135162    11A     -1.059417    12A     -0.948871
      13A     -0.843517    14A     -0.825690    15A     -0.759401
      16A     -0.742633    17A     -0.729502    18A     -0.674395
      19A     -0.615351    20A     -0.605998    21A     -0.566693
      22A     -0.539173    23A     -0.518583    24A     -0.503058
      25A     -0.495747    26A     -0.485904    27A     -0.469516
      28A     -0.453511

  @DF-RHF Final Energy:  -360.90904741459252

   => Energetics <=

    Nuclear Repulsion Energy =            312.6481741662428817
    One-Electron Energy =               -1111.0034457274550732
    Two-Electron Energy =                 437.4462241466195564
    DFT Exchange-Correlation Energy =       0.0000000000000000
    Empirical Dispersion Energy =           0.0000000000000000
    PCM Polarization Energy =               0.0000000000000000
    EFP Energy =                            0.0000000000000000
    Total Energy =                       -360.9090474145926919
    Molecular point group: c1
  Basis Set: CC-PVTZ
  Basis Set:

  -Total Gradient:
     Atom            X                  Y                   Z
    ------   -----------------  -----------------  -----------------
       1        0.000310133340     0.000157137200    -0.000453781081
       2       -0.000350058958     0.000002797284     0.000603230297
       3       -0.000116760855    -0.000453311106     0.000007162496
       4       -0.000022169253    -0.000048451833    -0.000046466332
       5        0.000188856692     0.000361850771    -0.000121457369
       6        0.000002208719    -0.000006426680     0.000003310308
       7        0.000007868051     0.000017423912     0.000008989236
       8       -0.000024087125    -0.000020544050    -0.000003883975
       9       -0.000001638084    -0.000007083844    -0.000000415362
      10        0.000003771043    -0.000011226854     0.000000241304
      11        0.000009778335     0.000017245229    -0.000000420158
      12       -0.000008619396    -0.000006396574    -0.000001089309
      13       -0.000000708524    -0.000008215395     0.000007106563
      14       -0.000005685298     0.000002596584     0.000003199931
      15        0.000005770799    -0.000004918858    -0.000003506928
      16        0.000001340516     0.000007524217    -0.000002219620

  **** Optimization is complete! (in 8 steps) ****
    Final optimized geometry and variables:
    Molecular point group: c1

    Geometry (in Angstrom), charge = 0, multiplicity = 1:

    O           -1.320060757668    -1.114902494099    -1.911518185245
    N           -0.844469434603    -0.172066471202    -1.374931326975
    C            0.385991896826    -0.394356977077    -0.562626662237
    O           -1.254473294486     0.937780696149    -1.449719693382
    C            0.265571126254     0.215133315306     0.824090972840
    H            1.180019080761     0.069923985971    -1.130434893786
    H            0.530769890372    -1.460340259274    -0.540353377310
    C            1.526722230478    -0.037507523152     1.647130011099
    H            0.084560058194     1.276970973801     0.732217356480
    H           -0.594041408598    -0.214596457925     1.328223143074
    C            1.437838967896     0.561890110905     3.046187792068
    H            2.384796100250     0.381478956830     1.129202801337
    H            1.704920708157    -1.106163405950     1.723024677686
    H            1.291754632273     1.635372657047     3.002598001309
    H            0.609018363743     0.136905542527     3.601434344133
    H            2.344708787313     0.372503094574     3.607407929321

  Mulliken Charges: (a.u.)
   Center  Symbol    Alpha    Beta     Spin     Total
       1     O     4.16933  4.16933  0.00000 -0.33866
       2     N     3.27632  3.27632  0.00000  0.44737
       3     C     3.04344  3.04344  0.00000 -0.08687
       4     O     4.17344  4.17344  0.00000 -0.34689
       5     C     3.10013  3.10013  0.00000 -0.20026
       6     H     0.43672  0.43672  0.00000  0.12655
       7     H     0.43141  0.43141  0.00000  0.13718
       8     C     3.09389  3.09389  0.00000 -0.18778
       9     H     0.43264  0.43264  0.00000  0.13473
      10     H     0.44369  0.44369  0.00000  0.11263
      11     C     3.14802  3.14802  0.00000 -0.29604
      12     H     0.45121  0.45121  0.00000  0.09757
      13     H     0.45065  0.45065  0.00000  0.09870
      14     H     0.45156  0.45156  0.00000  0.09689
      15     H     0.45213  0.45213  0.00000  0.09574
      16     H     0.44543  0.44543  0.00000  0.10914

   Total alpha = 28.00000, Total beta = 28.00000, Total charge = -0.00000

*** Psi4 exiting successfully. Buy a developer a beer!
