  ==> Input File <==

--------------------------------------------------------------------------
set {
	reference rhf
	basis 6-31G*
}

set_num_threads( 4 )
memory 2 gb

molecule MOL {
0 1

O	 -1.793666	 -0.358241	 -1.565067
C	 -1.578732	 0.370508	 -0.651284
C	 -2.326288	 1.645863	 -0.370255
O	 -0.632575	 0.154573	 0.251549
H	 -1.637009	 2.482426	 -0.372186
H	 -3.088142	 1.792538	 -1.121188
H	 -2.778900	 1.595787	 0.613306
C	 0.160891	 -1.019931	 0.106212
C	 1.589627	 -0.672828	 0.480843
H	 0.089836	 -1.367806	 -0.916050
H	 -0.238459	 -1.792301	 0.749618
C	 2.246377	 0.346236	 -0.452210
H	 2.163194	 -1.597435	 0.473358
H	 1.604769	 -0.303424	 1.502885
C	 3.691736	 0.652107	 -0.061850
H	 2.219579	 -0.032311	 -1.472055
H	 1.666466	 1.263317	 -0.447249
H	 4.134505	 1.377213	 -0.737283
H	 4.305508	 -0.243868	 -0.089969
H	 3.748266	 1.059562	 0.943567

	symmetry c1
}
set optking {
	frozen_dihedral = ("
		2 4 8 10
	")
}

ee = optimize('scf')
oeprop('DIPOLE', 'QUADRUPOLE', 'MULLIKEN_CHARGES')
f=open( 'psi4out.xyz', 'w' )
f.write( "20  " )
f.write( str(ee) + "\n" )
f.write( MOL.save_string_xyz() )
f.close()
--------------------------------------------------------------------------

    Molecular point group: c1
  Charge       = 0
  Multiplicity = 1
  Basis Set: 6-31G*
  Basis Set:
  @DF-RHF Final Energy:  -383.94371778194829
    Total Energy =                       -383.9437177819480667
    Molecular point group: c1
  Basis Set: 6-31G*
  Basis Set:
  Basis Set: 6-31G*
  Basis Set:
  @DF-RHF Final Energy:  -383.94377680245827
    Total Energy =                       -383.9437768024580464
  Basis Set: 6-31G*
  Basis Set:
  Basis Set: 6-31G*
  Basis Set:
  @DF-RHF Final Energy:  -383.94406630102907
    Total Energy =                       -383.9440663010290109
  Basis Set: 6-31G*
  Basis Set:
  Basis Set: 6-31G*
  Basis Set:
  @DF-RHF Final Energy:  -383.94418578745393
    Total Energy =                       -383.9441857874543302
  Basis Set: 6-31G*
  Basis Set:
  Basis Set: 6-31G*
  Basis Set:
  @DF-RHF Final Energy:  -383.94422038227259
    Total Energy =                       -383.9442203822725332
  Basis Set: 6-31G*
  Basis Set:
  Basis Set: 6-31G*
  Basis Set:
  @DF-RHF Final Energy:  -383.94421888096883
    Total Energy =                       -383.9442188809687195
  Basis Set: 6-31G*
  Basis Set:
  Basis Set: 6-31G*
  Basis Set:
  @DF-RHF Final Energy:  -383.94422381086247
    Total Energy =                       -383.9442238108622405
  Basis Set: 6-31G*
  Basis Set:
  Charge       = 0
  Multiplicity = 1
  Basis Set: 6-31G*
  Basis Set:

    Orbital Energies (a.u.)
    -----------------------

    Doubly Occupied:

       1A    -20.601185     2A    -20.543533     3A    -11.375482
       4A    -11.281296     5A    -11.232894     6A    -11.225486
       7A    -11.221259     8A    -11.213738     9A     -1.465840
      10A     -1.362552    11A     -1.085820    12A     -1.028546
      13A     -0.981322    14A     -0.883006    15A     -0.809855
      16A     -0.774692    17A     -0.692147    18A     -0.679524
      19A     -0.665475    20A     -0.632644    21A     -0.602147
      22A     -0.593954    23A     -0.572927    24A     -0.548713
      25A     -0.539721    26A     -0.537023    27A     -0.507807
      28A     -0.485084    29A     -0.479413    30A     -0.474246
      31A     -0.444176    32A     -0.437202

  @DF-RHF Final Energy:  -383.94422386689075

   => Energetics <=

    Nuclear Repulsion Energy =            387.6037244247398803
    One-Electron Energy =               -1291.1384823896157741
    Two-Electron Energy =                 519.5905340979850280
    DFT Exchange-Correlation Energy =       0.0000000000000000
    Empirical Dispersion Energy =           0.0000000000000000
    PCM Polarization Energy =               0.0000000000000000
    EFP Energy =                            0.0000000000000000
    Total Energy =                       -383.9442238668908658
    Molecular point group: c1
  Basis Set: 6-31G*
  Basis Set:

  -Total Gradient:
     Atom            X                  Y                   Z
    ------   -----------------  -----------------  -----------------
       1       -0.000008060928     0.000008699470    -0.000018716166
       2        0.000762922141     0.000617010867    -0.000667368722
       3        0.000007283400     0.000000156291    -0.000008054659
       4       -0.001380327129    -0.001091446844     0.001089906560
       5       -0.000001387487    -0.000005514449    -0.000002116521
       6       -0.000000081858     0.000001471925    -0.000001927031
       7       -0.000000366888    -0.000000664025     0.000003584368
       8        0.001675646136     0.001276207670    -0.000740520923
       9        0.000000960156    -0.000012292528    -0.000011247731
      10       -0.001059173825    -0.000796615236     0.000352058598
      11        0.000010170611    -0.000008528592    -0.000004165739
      12       -0.000006778381     0.000011874060     0.000011226141
      13        0.000003367977    -0.000001856181     0.000004312387
      14       -0.000004007878     0.000002096964    -0.000006014542
      15        0.000003748494    -0.000006450770    -0.000005828737
      16       -0.000001950447     0.000002164496     0.000003188232
      17       -0.000002375413     0.000003624658     0.000002030836
      18        0.000002810504    -0.000003376048    -0.000002969021
      19       -0.000000526455    -0.000000777968     0.000005366450
      20       -0.000001872727     0.000004216242    -0.000002743781

  **** Optimization is complete! (in 8 steps) ****
    Final optimized geometry and variables:
    Molecular point group: c1

    Geometry (in Angstrom), charge = 0, multiplicity = 1:

    O           -2.027491016510    -0.505464242668    -1.272298546486
    C           -1.764896888312     0.219458384954    -0.368200987207
    C           -2.482318259972     1.507616074402    -0.065903193992
    O           -0.798212800333    -0.004683028659     0.512001675327
    H           -1.780266680301     2.333023329276    -0.091676975705
    H           -3.265813018570     1.665018082777    -0.791978989050
    H           -2.903202188265     1.465941170554     0.932038254861
    C            0.021764257122    -1.163356473368     0.372695895151
    C            1.443487575614    -0.808819260148     0.770011533347
    H           -0.040937600517    -1.525411695874    -0.641536123594
    H           -0.381113217683    -1.926275991402     1.027841934308
    C            2.114594346005     0.197693415145    -0.165796139059
    H            2.018209759862    -1.732787123099     0.786489573970
    H            1.440530661470    -0.424428483774     1.786505026877
    C            3.552628635560     0.512601922522     0.244298405901
    H            2.104858006915    -0.193677416766    -1.180825843415
    H            1.534356952380     1.115092454139    -0.181995987947
    H            4.005454147515     1.228033453907    -0.434726035712
    H            4.168248380718    -0.382509540105     0.240210110983
    H            3.591352381272     0.935403142216     1.244187620696

  Mulliken Charges: (a.u.)
   Center  Symbol    Alpha    Beta     Spin     Total
       1     O     4.28266  4.28266  0.00000 -0.56532
       2     C     2.61929  2.61929  0.00000  0.76143
       3     C     3.28234  3.28234  0.00000 -0.56469
       4     O     4.30973  4.30973  0.00000 -0.61946
       5     H     0.40125  0.40125  0.00000  0.19751
       6     H     0.39707  0.39707  0.00000  0.20587
       7     H     0.40038  0.40038  0.00000  0.19924
       8     C     3.00918  3.00918  0.00000 -0.01836
       9     C     3.16282  3.16282  0.00000 -0.32564
      10     H     0.39743  0.39743  0.00000  0.20513
      11     H     0.41319  0.41319  0.00000  0.17363
      12     C     3.15596  3.15596  0.00000 -0.31193
      13     H     0.41898  0.41898  0.00000  0.16205
      14     H     0.41441  0.41441  0.00000  0.17117
      15     C     3.24018  3.24018  0.00000 -0.48035
      16     H     0.42042  0.42042  0.00000  0.15917
      17     H     0.41546  0.41546  0.00000  0.16908
      18     H     0.41732  0.41732  0.00000  0.16536
      19     H     0.42137  0.42137  0.00000  0.15725
      20     H     0.42057  0.42057  0.00000  0.15886

   Total alpha = 32.00000, Total beta = 32.00000, Total charge = -0.00000
