  ==> Input File <==

--------------------------------------------------------------------------
set {
	reference rhf
	basis 6-31G*
}

set_num_threads( 4 )
memory 2 gb

molecule MOL {
0 1

O	 0.340857	 0.953951	 -1.385850
C	 0.335202	 -0.040783	 -0.734533
C	 1.477635	 -1.022968	 -0.632422
O	 -0.698257	 -0.426125	 0.001050
C	 2.688647	 -0.619427	 -1.464029
H	 1.098202	 -1.995163	 -0.932613
H	 1.733274	 -1.116101	 0.418882
H	 2.432874	 -0.543915	 -2.513907
H	 3.478224	 -1.355507	 -1.356467
H	 3.073930	 0.342996	 -1.149987
C	 -1.853104	 0.406779	 0.000512
C	 -3.066105	 -0.499277	 -0.000959
H	 -1.828410	 1.043074	 -0.873618
H	 -1.829857	 1.042383	 0.875188
H	 -3.071820	 -1.133106	 -0.880383
H	 -3.972708	 0.097145	 -0.001528
H	 -3.073405	 -1.133813	 0.877999

	symmetry c1
}
set optking {
	frozen_dihedral = ("
		2 4 11 13
	")
}

ee = optimize('scf')
oeprop('DIPOLE', 'QUADRUPOLE', 'MULLIKEN_CHARGES')
f=open( 'psi4out.xyz', 'w' )
f.write( "17  " )
f.write( str(ee) + "\n" )
f.write( MOL.save_string_xyz() )
f.close()
--------------------------------------------------------------------------

    Molecular point group: c1
  Charge       = 0
  Multiplicity = 1
  Basis Set: 6-31G*
  Basis Set:
  @DF-RHF Final Energy:  -344.90990134661996
    Total Energy =                       -344.9099013466196197
    Molecular point group: c1
  Basis Set: 6-31G*
  Basis Set:
  Basis Set: 6-31G*
  Basis Set:
  @DF-RHF Final Energy:  -344.91006547932363
    Total Energy =                       -344.9100654793235208
  Basis Set: 6-31G*
  Basis Set:
  Basis Set: 6-31G*
  Basis Set:
  @DF-RHF Final Energy:  -344.91014380583078
    Total Energy =                       -344.9101438058313533
  Basis Set: 6-31G*
  Basis Set:
  Basis Set: 6-31G*
  Basis Set:
  @DF-RHF Final Energy:  -344.91029767797590
    Total Energy =                       -344.9102976779761320
  Basis Set: 6-31G*
  Basis Set:
  Basis Set: 6-31G*
  Basis Set:
  @DF-RHF Final Energy:  -344.91040500399583
    Total Energy =                       -344.9104050039960612
  Basis Set: 6-31G*
  Basis Set:
  Charge       = 0
  Multiplicity = 1
  Basis Set: 6-31G*
  Basis Set:

    Orbital Energies (a.u.)
    -----------------------

    Doubly Occupied:

       1A    -20.600240     2A    -20.543887     3A    -11.372439
       4A    -11.283748     5A    -11.237095     6A    -11.222388
       7A    -11.215382     8A     -1.465559     9A     -1.362359
      10A     -1.069706    11A     -1.031338    12A     -0.912042
      13A     -0.848803    14A     -0.770637    15A     -0.699635
      16A     -0.684195    17A     -0.662202    18A     -0.628401
      19A     -0.589221    20A     -0.569876    21A     -0.557034
      22A     -0.528013    23A     -0.519940    24A     -0.514302
      25A     -0.499951    26A     -0.493234    27A     -0.449557
      28A     -0.435739

  @DF-RHF Final Energy:  -344.91040532243005

   => Energetics <=

    Nuclear Repulsion Energy =            314.7854707181353433
    One-Electron Energy =               -1093.8579007292344158
    Two-Electron Energy =                 434.1620246886689642
    DFT Exchange-Correlation Energy =       0.0000000000000000
    Empirical Dispersion Energy =           0.0000000000000000
    PCM Polarization Energy =               0.0000000000000000
    EFP Energy =                            0.0000000000000000
    Total Energy =                       -344.9104053224301083
    Molecular point group: c1
  Basis Set: 6-31G*
  Basis Set:

  -Total Gradient:
     Atom            X                  Y                   Z
    ------   -----------------  -----------------  -----------------
       1        0.000019590213     0.000005148575    -0.000009699274
       2       -0.000461510910    -0.000582197265    -0.000902445920
       3       -0.000016255548    -0.000009308520    -0.000004385727
       4        0.000726247160     0.001062050327     0.001566292220
       5        0.000000259812     0.000010014205     0.000005757619
       6       -0.000013641527     0.000003431931     0.000004294901
       7        0.000007312836     0.000002351280    -0.000003735932
       8       -0.000002803013    -0.000002812668     0.000008961637
       9       -0.000003631674    -0.000000517286    -0.000001424671
      10        0.000009788272     0.000010470402    -0.000001884127
      11       -0.000933795104    -0.001427389791    -0.001363524873
      12        0.000033078886    -0.000012729060     0.000027475125
      13        0.000610409937     0.000981322910     0.000661613645
      14        0.000013612873    -0.000041222225    -0.000004754836
      15        0.000011977146     0.000016152681     0.000007051376
      16        0.000014070659     0.000005654972     0.000001540996
      17       -0.000014710018    -0.000020420467     0.000008867842

  **** Optimization is complete! (in 6 steps) ****
    Final optimized geometry and variables:
    Molecular point group: c1

    Geometry (in Angstrom), charge = 0, multiplicity = 1:

    O            0.504870544877     1.147325530592    -0.782117270920
    C            0.467445672909     0.148924659140    -0.137893427916
    C            1.590513979493    -0.855098735368    -0.028656424293
    O           -0.576968890329    -0.229421732354     0.587369234800
    C            2.819364174372    -0.469069664544    -0.842189701488
    H            1.196879759219    -1.818271511552    -0.339255991958
    H            1.831050140171    -0.959061555047     1.025156132086
    H            2.578599039353    -0.382236719235    -1.894713686530
    H            3.593527162131    -1.220610084034    -0.729401822938
    H            3.218582100610     0.483939384370    -0.517016078716
    C           -1.755161437195     0.572502376288     0.588110443810
    C           -2.955811022133    -0.350430577431     0.626619378207
    H           -1.756390478999     1.209600458711    -0.281474016961
    H           -1.720492872298     1.204033113347     1.467436686663
    H           -2.989404396826    -0.973288411157    -0.260306346287
    H           -3.869885892162     0.233171016369     0.670868842656
    H           -2.918928731876    -0.995820057686     1.496808104979

  Mulliken Charges: (a.u.)
   Center  Symbol    Alpha    Beta     Spin     Total
       1     O     4.28577  4.28577  0.00000 -0.57153
       2     C     2.60600  2.60600  0.00000  0.78801
       3     C     3.20553  3.20553  0.00000 -0.41105
       4     O     4.31415  4.31415  0.00000 -0.62831
       5     C     3.23874  3.23874  0.00000 -0.47748
       6     H     0.40109  0.40109  0.00000  0.19782
       7     H     0.40059  0.40059  0.00000  0.19882
       8     H     0.41017  0.41017  0.00000  0.17966
       9     H     0.41837  0.41837  0.00000  0.16325
      10     H     0.40995  0.40995  0.00000  0.18010
      11     C     3.00865  3.00865  0.00000 -0.01729
      12     C     3.24707  3.24707  0.00000 -0.49414
      13     H     0.39696  0.39696  0.00000  0.20608
      14     H     0.41517  0.41517  0.00000  0.16966
      15     H     0.41326  0.41326  0.00000  0.17349
      16     H     0.41695  0.41695  0.00000  0.16610
      17     H     0.41159  0.41159  0.00000  0.17682

   Total alpha = 28.00000, Total beta = 28.00000, Total charge = -0.00000
