  ==> Input File <==

--------------------------------------------------------------------------
set {
	reference rhf
	basis 6-31G*
}

set_num_threads( 1 )
memory 2 gb

molecule MOL {
0 1

O	 0.625848	 1.349995	 -0.000749
C	 0.486307	 0.169203	 0.000779
C	 1.608116	 -0.841643	 0.000302
O	 -0.698257	 -0.426125	 0.001050
C	 2.990107	 -0.200498	 -0.000684
H	 1.468623	 -1.481519	 -0.865924
H	 1.469683	 -1.481289	 0.866878
H	 3.129736	 0.423364	 -0.875135
H	 3.757882	 -0.966877	 -0.001197
H	 3.130964	 0.423383	 0.873533
C	 -0.753317	 -1.781736	 -0.431023
C	 -2.196700	 -2.229342	 -0.338263
H	 -0.108335	 -2.378984	 0.198960
H	 -0.379547	 -1.844450	 -1.443917
H	 -2.557681	 -2.155411	 0.681240
H	 -2.284597	 -3.262100	 -0.659718
H	 -2.830467	 -1.618044	 -0.970649

	symmetry c1
}
set optking {
	frozen_dihedral = ("
		2 4 11 13,
		4 2 3 6
	")
}

ee = energy('scf')
oeprop('DIPOLE', 'QUADRUPOLE', 'MULLIKEN_CHARGES')
f=open( 'psi4out.xyz', 'w' )
f.write( "17  " )
f.write( str(ee) + "\n" )
f.write( MOL.save_string_xyz() )
f.close()
--------------------------------------------------------------------------

    Molecular point group: c1

    Geometry (in Angstrom), charge = 0, multiplicity = 1:

       Center              X                  Y                   Z               Mass
    ------------   -----------------  -----------------  -----------------  -----------------
           O          0.338884903900     1.921036637312     0.111283731436    15.994914619560
           C          0.199343903900     0.740244637312     0.112811731436    12.000000000000
           C          1.321152903900    -0.270601362688     0.112334731436    12.000000000000
           O         -0.985220096100     0.144916637312     0.113082731436    15.994914619560
           C          2.703143903900     0.370543637312     0.111348731436    12.000000000000
           H          1.181659903900    -0.910477362688    -0.753891268564     1.007825032070
           H          1.182719903900    -0.910247362688     0.978910731436     1.007825032070
           H          2.842772903900     0.994405637312    -0.763102268564     1.007825032070
           H          3.470918903900    -0.395835362688     0.110835731436     1.007825032070
           H          2.844000903900     0.994424637312     0.985565731436     1.007825032070
           C         -1.040280096100    -1.210694362688    -0.318990268564    12.000000000000
           C         -2.483663096100    -1.658300362688    -0.226230268564    12.000000000000
           H         -0.395298096100    -1.807942362688     0.310992731436     1.007825032070
           H         -0.666510096100    -1.273408362688    -1.331884268564     1.007825032070
           H         -2.844644096100    -1.584369362688     0.793272731436     1.007825032070
           H         -2.571560096100    -2.691058362688    -0.547685268564     1.007825032070
           H         -3.117430096100    -1.047002362688    -0.858616268564     1.007825032070

  Charge       = 0
  Multiplicity = 1
  Basis Set: 6-31G*
  Basis Set:

    Orbital Energies (a.u.)
    -----------------------

    Doubly Occupied:

       1A    -20.602839     2A    -20.543546     3A    -11.373427
       4A    -11.301145     5A    -11.243301     6A    -11.229852
       7A    -11.218997     8A     -1.466149     9A     -1.368018
      10A     -1.064600    11A     -1.050796    12A     -0.906431
      13A     -0.886597    14A     -0.768309    15A     -0.708374
      16A     -0.702716    17A     -0.658455    18A     -0.632077
      19A     -0.595702    20A     -0.575538    21A     -0.560631
      22A     -0.544223    23A     -0.527670    24A     -0.518074
      25A     -0.511120    26A     -0.499817    27A     -0.447795
      28A     -0.429017

  @DF-RHF Final Energy:  -344.88601369156453

   => Energetics <=

    Nuclear Repulsion Energy =            318.6951107070839839
    One-Electron Energy =               -1101.2917871722729615
    Two-Electron Energy =                 437.7106627736251880
    DFT Exchange-Correlation Energy =       0.0000000000000000
    Empirical Dispersion Energy =           0.0000000000000000
    PCM Polarization Energy =               0.0000000000000000
    EFP Energy =                            0.0000000000000000
    Total Energy =                       -344.8860136915637327

  Mulliken Charges: (a.u.)
   Center  Symbol    Alpha    Beta     Spin     Total
       1     O     4.27254  4.27254  0.00000 -0.54508
       2     C     2.59215  2.59215  0.00000  0.81571
       3     C     3.24214  3.24214  0.00000 -0.48428
       4     O     4.30501  4.30501  0.00000 -0.61002
       5     C     3.23363  3.23363  0.00000 -0.46725
       6     H     0.40217  0.40217  0.00000  0.19566
       7     H     0.39909  0.39909  0.00000  0.20182
       8     H     0.40882  0.40882  0.00000  0.18236
       9     H     0.41965  0.41965  0.00000  0.16070
      10     H     0.40796  0.40796  0.00000  0.18407
      11     C     3.01474  3.01474  0.00000 -0.02948
      12     C     3.24354  3.24354  0.00000 -0.48707
      13     H     0.41447  0.41447  0.00000  0.17106
      14     H     0.41285  0.41285  0.00000  0.17431
      15     H     0.40783  0.40783  0.00000  0.18433
      16     H     0.41735  0.41735  0.00000  0.16530
      17     H     0.40606  0.40606  0.00000  0.18788

   Total alpha = 28.00000, Total beta = 28.00000, Total charge = -0.00000
