  ==> Input File <==

--------------------------------------------------------------------------
set {
	reference rhf
	basis 6-31G*
}

set_num_threads( 1 )
memory 2 gb

molecule MOL {
0 1

O	 3.828900	 -0.860527	 2.457488
C	 3.023177	 -0.921300	 1.585607
C	 1.525332	 -0.869442	 1.766054
O	 3.347903	 -1.046386	 0.304773
C	 1.101931	 -0.713075	 3.224957
H	 1.158057	 -0.057880	 1.146645
H	 1.116374	 -1.779972	 1.335491
C	 -0.415065	 -0.764112	 3.436177
H	 1.496378	 0.220513	 3.614756
H	 1.568227	 -1.500912	 3.806595
C	 -1.191807	 0.404148	 2.822214
H	 -0.605580	 -0.783480	 4.506716
H	 -0.804382	 -1.702461	 3.043821
C	 -2.684985	 0.365489	 3.153762
H	 -0.768525	 1.341906	 3.178950
H	 -1.072211	 0.406669	 1.741167
C	 -3.472133	 1.525302	 2.541094
H	 -2.813870	 0.376192	 4.234738
H	 -3.106610	 -0.576625	 2.806841
C	 -4.961713	 1.481428	 2.880104
H	 -3.051492	 2.467528	 2.885932
H	 -3.348071	 1.513685	 1.460235
H	 -5.492307	 2.315793	 2.431871
H	 -5.120891	 1.526791	 3.953789
H	 -5.419517	 0.565301	 2.517613
C	 4.728119	 -1.109107	 -0.004993
H	 4.882018	 -1.033965	 -1.071845
H	 5.068212	 -2.067527	 0.355250
H	 5.265056	 -0.311663	 0.488280

	symmetry c1
}
set optking {
	frozen_dihedral = ("
		21 17 14 11,
		17 14 11 15,
		15 11 8 5,
		6 3 5 9,
		11 8 5 9,
		1 2 4 26,
		6 3 2 1
	")
}

ee = energy('scf')
oeprop('DIPOLE', 'QUADRUPOLE', 'MULLIKEN_CHARGES')
f=open( 'psi4out.xyz', 'w' )
f.write( "29  " )
f.write( str(ee) + "\n" )
f.write( MOL.save_string_xyz() )
f.close()
--------------------------------------------------------------------------

    Molecular point group: c1

    Geometry (in Angstrom), charge = 0, multiplicity = 1:

       Center              X                  Y                   Z               Mass
    ------------   -----------------  -----------------  -----------------  -----------------
           O          3.351503523325    -0.627922881227     0.283268829348    15.994914619560
           C          2.545780523325    -0.688695881227    -0.588612170652    12.000000000000
           C          1.047935523325    -0.636837881227    -0.408165170652    12.000000000000
           O          2.870506523325    -0.813781881227    -1.869446170652    15.994914619560
           C          0.624534523325    -0.480470881227     1.050737829348    12.000000000000
           H          0.680660523325     0.174724118773    -1.027574170652     1.007825032070
           H          0.638977523325    -1.547367881227    -0.838728170652     1.007825032070
           C         -0.892461476675    -0.531507881227     1.261957829348    12.000000000000
           H          1.018981523325     0.453117118773     1.440536829348     1.007825032070
           H          1.090830523325    -1.268307881227     1.632375829348     1.007825032070
           C         -1.669203476675     0.636752118773     0.647994829348    12.000000000000
           H         -1.082976476675    -0.550875881227     2.332496829348     1.007825032070
           H         -1.281778476675    -1.469856881227     0.869601829348     1.007825032070
           C         -3.162381476675     0.598093118773     0.979542829348    12.000000000000
           H         -1.245921476675     1.574510118773     1.004730829348     1.007825032070
           H         -1.549607476675     0.639273118773    -0.433052170652     1.007825032070
           C         -3.949529476675     1.757906118773     0.366874829348    12.000000000000
           H         -3.291266476675     0.608796118773     2.060518829348     1.007825032070
           H         -3.584006476675    -0.344020881227     0.632621829348     1.007825032070
           C         -5.439109476675     1.714032118773     0.705884829348    12.000000000000
           H         -3.528888476675     2.700132118773     0.711712829348     1.007825032070
           H         -3.825467476675     1.746289118773    -0.713984170652     1.007825032070
           H         -5.969703476675     2.548397118773     0.257651829348     1.007825032070
           H         -5.598287476675     1.759395118773     1.779569829348     1.007825032070
           H         -5.896913476675     0.797905118773     0.343393829348     1.007825032070
           C          4.250722523325    -0.876502881227    -2.179212170652    12.000000000000
           H          4.404621523325    -0.801360881227    -3.246064170652     1.007825032070
           H          4.590815523325    -1.834922881227    -1.818969170652     1.007825032070
           H          4.787659523325    -0.079058881227    -1.685939170652     1.007825032070

  Charge       = 0
  Multiplicity = 1
  Basis Set: 6-31G*
  Basis Set:

    Orbital Energies (a.u.)
    -----------------------

    Doubly Occupied:

       1A    -20.602430     2A    -20.544976     3A    -11.372401
       4A    -11.280360     5A    -11.234787     6A    -11.219122
       7A    -11.217637     8A    -11.215979     9A    -11.215841
      10A    -11.214453    11A    -11.209040    12A     -1.468893
      13A     -1.362292    14A     -1.098074    15A     -1.066800
      16A     -1.019387    17A     -0.976848    18A     -0.928384
      19A     -0.861572    20A     -0.799200    21A     -0.790424
      22A     -0.762836    23A     -0.700513    24A     -0.684140
      25A     -0.672139    26A     -0.651231    27A     -0.629300
      28A     -0.605804    29A     -0.595570    30A     -0.581473
      31A     -0.567131    32A     -0.548994    33A     -0.532296
      34A     -0.528139    35A     -0.514262    36A     -0.511376
      37A     -0.496414    38A     -0.477812    39A     -0.470139
      40A     -0.462389    41A     -0.458936    42A     -0.454478
      43A     -0.441332    44A     -0.435547

  @DF-RHF Final Energy:  -501.04236925101452

   => Energetics <=

    Nuclear Repulsion Energy =            610.2752079344724052
    One-Electron Energy =               -1891.6730048309602807
    Two-Electron Energy =                 780.3554276454724459
    DFT Exchange-Correlation Energy =       0.0000000000000000
    Empirical Dispersion Energy =           0.0000000000000000
    PCM Polarization Energy =               0.0000000000000000
    EFP Energy =                            0.0000000000000000
    Total Energy =                       -501.0423692510153160

  Mulliken Charges: (a.u.)
   Center  Symbol    Alpha    Beta     Spin     Total
       1     O     4.28590  4.28590  0.00000 -0.57180
       2     C     2.60473  2.60473  0.00000  0.79054
       3     C     3.20964  3.20964  0.00000 -0.41929
       4     O     4.30834  4.30834  0.00000 -0.61667
       5     C     3.15384  3.15384  0.00000 -0.30769
       6     H     0.39871  0.39871  0.00000  0.20257
       7     H     0.40125  0.40125  0.00000  0.19751
       8     C     3.15662  3.15662  0.00000 -0.31325
       9     H     0.41309  0.41309  0.00000  0.17383
      10     H     0.40873  0.40873  0.00000  0.18253
      11     C     3.15507  3.15507  0.00000 -0.31015
      12     H     0.41822  0.41822  0.00000  0.16357
      13     H     0.42385  0.42385  0.00000  0.15229
      14     C     3.15030  3.15030  0.00000 -0.30060
      15     H     0.42261  0.42261  0.00000  0.15478
      16     H     0.42359  0.42359  0.00000  0.15283
      17     C     3.15146  3.15146  0.00000 -0.30293
      18     H     0.42332  0.42332  0.00000  0.15335
      19     H     0.42397  0.42397  0.00000  0.15206
      20     C     3.23935  3.23935  0.00000 -0.47870
      21     H     0.42280  0.42280  0.00000  0.15440
      22     H     0.42342  0.42342  0.00000  0.15315
      23     H     0.41923  0.41923  0.00000  0.16154
      24     H     0.42155  0.42155  0.00000  0.15691
      25     H     0.42183  0.42183  0.00000  0.15635
      26     C     3.09372  3.09372  0.00000 -0.18744
      27     H     0.40763  0.40763  0.00000  0.18473
      28     H     0.41146  0.41146  0.00000  0.17709
      29     H     0.40576  0.40576  0.00000  0.18848

   Total alpha = 44.00000, Total beta = 44.00000, Total charge = -0.00000
