                              Psi4 1.0.54 Driver

  ==> Input File <==

--------------------------------------------------------------------------
set {
	reference rhf
	basis cc-pvtz
}

set_num_threads( 4 )
memory 2 gb

molecule MOL {
0 1

H	 -0.939693	 0.000281	 1.681345
O	 -0.046262	 -0.000157	 1.387678
C	 -0.000837	 0.000006	 -0.025491
C	 0.734218	 -1.246815	 -0.513631
C	 -1.422342	 0.043378	 -0.582795
C	 0.765161	 1.260015	 -0.404718
H	 0.816694	 -1.256555	 -1.594323
H	 0.206218	 -2.147011	 -0.213741
H	 1.730629	 -1.284261	 -0.091462
H	 -1.418802	 0.080930	 -1.666015
H	 -1.980021	 -0.839086	 -0.283926
H	 -1.945300	 0.914870	 -0.209322
H	 0.853216	 1.349570	 -1.481061
H	 1.759723	 1.236639	 0.022495
H	 0.255309	 2.136715	 -0.025689

	symmetry c1
}
set optking {
	frozen_dihedral = ("
		4 3 2 1
	")
}

ee,wfn = optimize('scf', return_wfn=True)
oeprop( wfn, 'DIPOLE', 'QUADRUPOLE', 'MULLIKEN_CHARGES')
f=open( 'psi4out.xyz', 'w' )
f.write( "15  " )
f.write( str(ee) + "\n" )
f.write( MOL.save_string_xyz() )
f.close()
--------------------------------------------------------------------------

    Molecular point group: c1
  Charge       = 0
  Multiplicity = 1
  Basis Set: CC-PVTZ
  Basis Set:
  @DF-RHF Final Energy:  -232.24412154257755
    Total Energy =                       -232.2441215425774317
    Molecular point group: c1
  Basis Set: CC-PVTZ
  Basis Set:
  Basis Set: CC-PVTZ
  Basis Set:
  @DF-RHF Final Energy:  -232.22446604261725
    Total Energy =                       -232.2244660426172800
  Basis Set: CC-PVTZ
  Basis Set:
  Basis Set: CC-PVTZ
  Basis Set:
  @DF-RHF Final Energy:  -232.24443327283700
    Total Energy =                       -232.2444332728369432
  Basis Set: CC-PVTZ
  Basis Set:
  Basis Set: CC-PVTZ
  Basis Set:
  @DF-RHF Final Energy:  -232.24471712728464
    Total Energy =                       -232.2447171272847299
  Basis Set: CC-PVTZ
  Basis Set:
  Basis Set: CC-PVTZ
  Basis Set:
  @DF-RHF Final Energy:  -232.24471971276196
    Total Energy =                       -232.2447197127618210
  Basis Set: CC-PVTZ
  Basis Set:
  Basis Set: CC-PVTZ
  Basis Set:
  @DF-RHF Final Energy:  -232.24472254355481
    Total Energy =                       -232.2447225435547580
  Basis Set: CC-PVTZ
  Basis Set:
  Charge       = 0
  Multiplicity = 1
  Basis Set: CC-PVTZ
  Basis Set:

    Orbital Energies (a.u.)
    -----------------------

    Doubly Occupied:

       1A    -20.540208     2A    -11.281155     3A    -11.216397
       4A    -11.203377     5A    -11.203351     6A     -1.362718
       7A     -1.065769     8A     -0.946435     9A     -0.936548
      10A     -0.778600    11A     -0.671847    12A     -0.624578
      13A     -0.622814    14A     -0.576450    15A     -0.557390
      16A     -0.534856    17A     -0.517058    18A     -0.511322
      19A     -0.503134    20A     -0.458307    21A     -0.426420

  @DF-RHF Final Energy:  -232.24472292743508

   => Energetics <=

    Nuclear Repulsion Energy =            200.5690537316078235
    One-Electron Energy =                -712.5500798424345703
    Two-Electron Energy =                 279.7363031833919536
    DFT Exchange-Correlation Energy =       0.0000000000000000
    Empirical Dispersion Energy =           0.0000000000000000
    PCM Polarization Energy =               0.0000000000000000
    EFP Energy =                            0.0000000000000000
    Total Energy =                       -232.2447229274347933
    Molecular point group: c1
  Basis Set: CC-PVTZ
  Basis Set:

  -Total Gradient:
     Atom            X                  Y                   Z
    ------   -----------------  -----------------  -----------------
       1       -0.000006474422     0.000049800316    -0.000022176609
       2        0.000026322867    -0.000066414989    -0.000005131786
       3       -0.000047345016    -0.000001098354     0.000005089329
       4        0.000022576691    -0.000000991370     0.000010305957
       5       -0.000002805571    -0.000022986022     0.000016879469
       6        0.000001102189     0.000019991250     0.000020914803
       7        0.000000789304    -0.000008930425    -0.000009544444
       8        0.000008687236    -0.000007143650     0.000002268472
       9        0.000006619123     0.000003058664    -0.000001668541
      10        0.000003269649    -0.000005870857    -0.000013305386
      11       -0.000009931674     0.000008972294     0.000006307700
      12       -0.000002382821     0.000019483954    -0.000007275782
      13       -0.000001873057    -0.000008658631    -0.000003902349
      14        0.000005793094     0.000009127602     0.000003305100
      15       -0.000004347591     0.000011660219    -0.000002065931

  **** Optimization is complete! (in 7 steps) ****
    Final optimized geometry and variables:
    Molecular point group: c1

    Geometry (in Angstrom), charge = 0, multiplicity = 1:

    H           -1.055949725746     0.369130703110     1.580759276698
    O           -0.149544339394     0.351802305660     1.339472296382
    C            0.004999938013    -0.006284337835    -0.023899125650
    C            0.841108438882    -1.281730026288    -0.068729046449
    C           -1.361797586726    -0.235294265369    -0.662341604498
    C            0.736845106962     1.140197470470    -0.714952093853
    H            1.041996456411    -1.584684672036    -1.090292930125
    H            0.325106504291    -2.090309792982     0.435130332254
    H            1.786587336774    -1.122649944092     0.434442784939
    H           -1.262384983268    -0.510680380010    -1.704882155614
    H           -1.893000450387    -1.034480305550    -0.155590930651
    H           -1.964759295817     0.665494254790    -0.611264783079
    H            0.936139909752     0.909009264061    -1.755401073065
    H            1.680260699593     1.330089482292    -0.218628544761
    H            0.146115356700     2.047362440234    -0.670561461413

  Mulliken Charges: (a.u.)
   Center  Symbol    Alpha    Beta     Spin     Total
       1     H     0.39168  0.39168  0.00000  0.21664
       2     O     4.21546  4.21546  0.00000 -0.43091
       3     C     2.88056  2.88056  0.00000  0.23887
       4     C     3.13958  3.13958  0.00000 -0.27915
       5     C     3.16361  3.16361  0.00000 -0.32721
       6     C     3.13953  3.13953  0.00000 -0.27906
       7     H     0.45955  0.45955  0.00000  0.08089
       8     H     0.45369  0.45369  0.00000  0.09263
       9     H     0.44796  0.44796  0.00000  0.10408
      10     H     0.45022  0.45022  0.00000  0.09957
      11     H     0.44863  0.44863  0.00000  0.10273
      12     H     0.44842  0.44842  0.00000  0.10317
      13     H     0.45957  0.45957  0.00000  0.08086
      14     H     0.44792  0.44792  0.00000  0.10416
      15     H     0.45363  0.45363  0.00000  0.09274

   Total alpha = 21.00000, Total beta = 21.00000, Total charge =  0.00000

*** Psi4 exiting successfully. Buy a developer a beer!
