  ==> Input File <==

--------------------------------------------------------------------------
set {
	reference rhf
	basis 6-31G*
}

set_num_threads( 4 )
memory 2 gb

molecule MOL {
0 1

O	 -2.447897	 0.713971	 -0.889890
C	 -1.921153	 0.064240	 -0.045697
C	 -2.615713	 -0.950783	 0.821287
O	 -0.632575	 0.154573	 0.251549
H	 -2.511087	 -0.674508	 1.864203
H	 -3.660879	 -1.000640	 0.554870
H	 -2.152385	 -1.921913	 0.690936
C	 0.160891	 -1.019931	 0.106212
C	 1.589627	 -0.672828	 0.480843
H	 0.089836	 -1.367806	 -0.916050
H	 -0.238459	 -1.792301	 0.749618
C	 2.246377	 0.346236	 -0.452210
H	 2.163194	 -1.597435	 0.473358
H	 1.604769	 -0.303424	 1.502885
C	 3.691736	 0.652107	 -0.061850
H	 2.219579	 -0.032311	 -1.472055
H	 1.666466	 1.263317	 -0.447249
H	 4.134505	 1.377213	 -0.737283
H	 4.305508	 -0.243868	 -0.089969
H	 3.748266	 1.059562	 0.943567

	symmetry c1
}
set optking {
	frozen_dihedral = ("
		1 2 4 8
	")
}

ee = optimize('scf')
oeprop('DIPOLE', 'QUADRUPOLE', 'MULLIKEN_CHARGES')
f=open( 'psi4out.xyz', 'w' )
f.write( "20  " )
f.write( str(ee) + "\n" )
f.write( MOL.save_string_xyz() )
f.close()
--------------------------------------------------------------------------

    Molecular point group: c1
  Charge       = 0
  Multiplicity = 1
  Basis Set: 6-31G*
  Basis Set:
  @DF-RHF Final Energy:  -383.92193165093602
    Total Energy =                       -383.9219316509359032
    Molecular point group: c1
  Basis Set: 6-31G*
  Basis Set:
  Basis Set: 6-31G*
  Basis Set:
  @DF-RHF Final Energy:  -383.92215228383640
    Total Energy =                       -383.9221522838364535
  Basis Set: 6-31G*
  Basis Set:
  Basis Set: 6-31G*
  Basis Set:
  @DF-RHF Final Energy:  -383.92505842312136
    Total Energy =                       -383.9250584231212997
  Basis Set: 6-31G*
  Basis Set:
  Basis Set: 6-31G*
  Basis Set:
  @DF-RHF Final Energy:  -383.92508409432008
    Total Energy =                       -383.9250840943202547
  Basis Set: 6-31G*
  Basis Set:
  @DF-RHF Final Energy:  -383.92613915612759
    Total Energy =                       -383.9261391561275332
  @DF-RHF Final Energy:  -383.92634925819374
    Total Energy =                       -383.9263492581935679
  @DF-RHF Final Energy:  -383.92637578358654
    Total Energy =                       -383.9263757835864226
  Basis Set: 6-31G*
  Basis Set:
  @DF-RHF Final Energy:  -383.92639550005737
    Total Energy =                       -383.9263955000573105
  Basis Set: 6-31G*
  Basis Set:
  Basis Set: 6-31G*
  Basis Set:
  @DF-RHF Final Energy:  -383.92640848847532
    Total Energy =                       -383.9264084884756585
  Basis Set: 6-31G*
  Basis Set:
  Basis Set: 6-31G*
  Basis Set:
  @DF-RHF Final Energy:  -383.92641491999683
    Total Energy =                       -383.9264149199968870
  Basis Set: 6-31G*
  Basis Set:
  Charge       = 0
  Multiplicity = 1
  Basis Set: 6-31G*
  Basis Set:

    Orbital Energies (a.u.)
    -----------------------

    Doubly Occupied:

       1A    -20.587696     2A    -20.552029     3A    -11.377098
       4A    -11.296359     5A    -11.239508     6A    -11.228716
       7A    -11.217816     8A    -11.211518     9A     -1.458706
      10A     -1.367321    11A     -1.083963    12A     -1.019291
      13A     -0.993685    14A     -0.884433    15A     -0.809533
      16A     -0.779890    17A     -0.696953    18A     -0.683582
      19A     -0.653971    20A     -0.635417    21A     -0.614094
      22A     -0.590946    23A     -0.581112    24A     -0.564770
      25A     -0.542994    26A     -0.524922    27A     -0.502708
      28A     -0.484504    29A     -0.477436    30A     -0.472741
      31A     -0.448115    32A     -0.435880

  @DF-RHF Final Energy:  -383.92641583906061

   => Energetics <=

    Nuclear Repulsion Energy =            384.9060236065582785
    One-Electron Energy =               -1285.6294657037733487
    Two-Electron Energy =                 516.7970262581546876
    DFT Exchange-Correlation Energy =       0.0000000000000000
    Empirical Dispersion Energy =           0.0000000000000000
    PCM Polarization Energy =               0.0000000000000000
    EFP Energy =                            0.0000000000000000
    Total Energy =                       -383.9264158390603825
    Molecular point group: c1
  Basis Set: 6-31G*
  Basis Set:

  -Total Gradient:
     Atom            X                  Y                   Z
    ------   -----------------  -----------------  -----------------
       1        0.000816846641    -0.002062978088    -0.002218766766
       2       -0.000928306645     0.003407183076     0.002043953384
       3        0.000025086995     0.000007666608     0.000001743957
       4       -0.000669749502    -0.002218327554     0.002544417320
       5        0.000001953850     0.000011592477    -0.000012830528
       6       -0.000006053187    -0.000005392650     0.000001923483
       7        0.000007911593    -0.000004905283    -0.000001936364
       8        0.000728518417     0.000886916383    -0.002369803258
       9       -0.000009282267     0.000001909818     0.000000556160
      10        0.000033598354    -0.000030860296     0.000006022140
      11       -0.000017547636     0.000017773859     0.000013249846
      12        0.000005949948     0.000010202082    -0.000006309065
      13       -0.000002637373    -0.000003251883    -0.000002046542
      14        0.000002623182    -0.000001382190    -0.000000334665
      15       -0.000000862753    -0.000003073280     0.000004337792
      16        0.000000494091    -0.000000291778     0.000003787351
      17        0.000003135562    -0.000016130926    -0.000011681013
      18       -0.000002718220     0.000004326018     0.000002820585
      19        0.000007326926     0.000001444823    -0.000002120582
      20        0.000003712026    -0.000002421217     0.000003016768

  **** Optimization is complete! (in 11 steps) ****
    Final optimized geometry and variables:
    Molecular point group: c1

    Geometry (in Angstrom), charge = 0, multiplicity = 1:

    O           -2.282257162174     0.926998425662    -0.844428191852
    C           -1.898079777642     0.158041734336    -0.033900788195
    C           -2.782527011357    -0.874105892338     0.622991468070
    O           -0.616941474049     0.174123542372     0.379844823022
    H           -2.625022358718    -0.879025822134     1.695122777618
    H           -3.815140235405    -0.653223599019     0.397161688583
    H           -2.548241372756    -1.865075614939     0.247414740614
    C            0.185229183310    -0.982380248297     0.195347351593
    C            1.630802699212    -0.602941584867     0.460243696412
    H            0.065315856091    -1.345510334174    -0.820871005343
    H           -0.130994185680    -1.763866541814     0.878707697387
    C            2.192085119353     0.412989735352    -0.535616352024
    H            2.222793189364    -1.515688668322     0.431721250595
    H            1.702451871790    -0.212076638186     1.471515167032
    C            3.644762183191     0.781365358925    -0.237321956078
    H            2.122138279183     0.003907726951    -1.541503486110
    H            1.575797854479     1.304606197741    -0.520998342491
    H            4.020141821460     1.500512606873    -0.958162716018
    H            4.290575913208    -0.091806819658    -0.274218458224
    H            3.742231399210     1.222870046284     0.750417807598

  Mulliken Charges: (a.u.)
   Center  Symbol    Alpha    Beta     Spin     Total
       1     O     4.24990  4.24990  0.00000 -0.49980
       2     C     2.62423  2.62423  0.00000  0.75154
       3     C     3.29861  3.29861  0.00000 -0.59722
       4     O     4.31324  4.31324  0.00000 -0.62647
       5     H     0.40097  0.40097  0.00000  0.19807
       6     H     0.39217  0.39217  0.00000  0.21565
       7     H     0.40385  0.40385  0.00000  0.19231
       8     C     3.00407  3.00407  0.00000 -0.00814
       9     C     3.16168  3.16168  0.00000 -0.32336
      10     H     0.41743  0.41743  0.00000  0.16513
      11     H     0.41903  0.41903  0.00000  0.16195
      12     C     3.15621  3.15621  0.00000 -0.31242
      13     H     0.41985  0.41985  0.00000  0.16030
      14     H     0.41206  0.41206  0.00000  0.17588
      15     C     3.24102  3.24102  0.00000 -0.48203
      16     H     0.42338  0.42338  0.00000  0.15324
      17     H     0.40237  0.40237  0.00000  0.19526
      18     H     0.41633  0.41633  0.00000  0.16734
      19     H     0.42330  0.42330  0.00000  0.15340
      20     H     0.42031  0.42031  0.00000  0.15938

   Total alpha = 32.00000, Total beta = 32.00000, Total charge =  0.00000
