  ==> Input File <==

--------------------------------------------------------------------------
set {
	reference rhf
	basis 6-31G*
}

set_num_threads( 4 )
memory 2 gb

molecule MOL {
0 1

H	 -2.763904	 -0.046560	 -1.526607
O	 -3.452007	 0.283848	 -0.965577
C	 -3.181085	 -0.079926	 0.364119
C	 -1.765924	 0.277073	 0.805136
H	 -3.327791	 -1.152017	 0.410903
H	 -3.905698	 0.375695	 1.036898
C	 -0.677594	 -0.417312	 -0.014550
H	 -1.637766	 1.358238	 0.744969
H	 -1.659588	 0.017670	 1.857098
C	 0.738335	 -0.034840	 0.421385
H	 -0.814977	 -0.178223	 -1.064632
H	 -0.802730	 -1.495410	 0.071702
C	 1.822265	 -0.738362	 -0.399735
H	 0.853533	 1.043532	 0.342250
H	 0.871597	 -0.279636	 1.474438
C	 3.258060	 -0.455774	 0.057203
H	 1.718003	 -0.459167	 -1.447053
H	 1.651028	 -1.811884	 -0.354513
C	 3.709143	 0.994797	 -0.123830
H	 3.930637	 -1.101717	 -0.501982
H	 3.365259	 -0.739518	 1.102287
H	 3.601178	 1.310569	 -1.158127
H	 4.753787	 1.110486	 0.148516
H	 3.135362	 1.678896	 0.492569

	symmetry c1
}
set optking {
	frozen_dihedral = ("
		1 2 3 5
	")
}

ee = optimize('scf')
oeprop('DIPOLE', 'QUADRUPOLE', 'MULLIKEN_CHARGES')
f=open( 'psi4out.xyz', 'w' )
f.write( "24  " )
f.write( str(ee) + "\n" )
f.write( MOL.save_string_xyz() )
f.close()
--------------------------------------------------------------------------

    Molecular point group: c1
  Charge       = 0
  Multiplicity = 1
  Basis Set: 6-31G*
  Basis Set:
  @DF-RHF Final Energy:  -349.24436200843076
    Total Energy =                       -349.2443620084307554
    Molecular point group: c1
  Basis Set: 6-31G*
  Basis Set:
  Basis Set: 6-31G*
  Basis Set:
  @DF-RHF Final Energy:  -349.24611004348344
    Total Energy =                       -349.2461100434835544
  Basis Set: 6-31G*
  Basis Set:
  Basis Set: 6-31G*
  Basis Set:
  @DF-RHF Final Energy:  -349.24669526777666
    Total Energy =                       -349.2466952677764311
  Basis Set: 6-31G*
  Basis Set:
  Basis Set: 6-31G*
  Basis Set:
  @DF-RHF Final Energy:  -349.24669111314580
    Total Energy =                       -349.2466911131456300
  Basis Set: 6-31G*
  Basis Set:
  Basis Set: 6-31G*
  Basis Set:
  @DF-RHF Final Energy:  -349.24670934898285
    Total Energy =                       -349.2467093489822787
  Basis Set: 6-31G*
  Basis Set:
  Basis Set: 6-31G*
  Basis Set:
  @DF-RHF Final Energy:  -349.24670819890537
    Total Energy =                       -349.2467081989056510
  Basis Set: 6-31G*
  Basis Set:
  Basis Set: 6-31G*
  Basis Set:
  @DF-RHF Final Energy:  -349.24670945538844
    Total Energy =                       -349.2467094553887250
  Basis Set: 6-31G*
  Basis Set:
  Charge       = 0
  Multiplicity = 1
  Basis Set: 6-31G*
  Basis Set:

    Orbital Energies (a.u.)
    -----------------------

    Doubly Occupied:

       1A    -20.551144     2A    -11.266497     3A    -11.223954
       4A    -11.218928     5A    -11.218408     6A    -11.218085
       7A    -11.217210     8A    -11.210268     9A     -1.358316
      10A     -1.094698    11A     -1.052032    12A     -0.988988
      13A     -0.920587    14A     -0.855229    15A     -0.800197
      16A     -0.782014    17A     -0.687397    18A     -0.654777
      19A     -0.628832    20A     -0.612039    21A     -0.605116
      22A     -0.589993    23A     -0.562318    24A     -0.537533
      25A     -0.527237    26A     -0.513359    27A     -0.493812
      28A     -0.484472    29A     -0.478538    30A     -0.464154
      31A     -0.458813    32A     -0.441888    33A     -0.425935

  @DF-RHF Final Energy:  -349.24671030266899

   => Energetics <=

    Nuclear Repulsion Energy =            384.2961138861838322
    One-Electron Energy =               -1234.8001179219668302
    Two-Electron Energy =                 501.2572937331141247
    DFT Exchange-Correlation Energy =       0.0000000000000000
    Empirical Dispersion Energy =           0.0000000000000000
    PCM Polarization Energy =               0.0000000000000000
    EFP Energy =                            0.0000000000000000
    Total Energy =                       -349.2467103026689301
    Molecular point group: c1
  Basis Set: 6-31G*
  Basis Set:

  -Total Gradient:
     Atom            X                  Y                   Z
    ------   -----------------  -----------------  -----------------
       1        0.000923422149     0.001453030211     0.000096495996
       2       -0.001517648698    -0.001709285325    -0.000113008910
       3        0.001971703721     0.000055687516    -0.000521801505
       4       -0.000002049753    -0.000040212513     0.000039386184
       5       -0.001392253246     0.000262390673     0.000499396068
       6        0.000005520859    -0.000020419653     0.000022757742
       7        0.000010588217    -0.000003908460    -0.000010243474
       8       -0.000019889828    -0.000009939944    -0.000000927490
       9        0.000000001385     0.000002663604     0.000006697031
      10        0.000008469917     0.000001298906    -0.000013682634
      11        0.000006436066    -0.000004630433    -0.000011822503
      12       -0.000000594374     0.000005169218    -0.000002301407
      13       -0.000001799275     0.000001659832     0.000007386636
      14        0.000003927890    -0.000002331702    -0.000005051914
      15        0.000005870167     0.000004684493     0.000000192232
      16       -0.000000101942    -0.000002965738     0.000006974699
      17        0.000001104859     0.000004157025     0.000001462303
      18       -0.000008632681     0.000000676554    -0.000001697510
      19        0.000001099495     0.000001783783     0.000000406168
      20       -0.000001884736     0.000000825879     0.000000127514
      21        0.000003510375    -0.000000954545     0.000000358096
      22        0.000001530307    -0.000000056016    -0.000000128173
      23       -0.000000800555     0.000000658057     0.000000832668
      24        0.000002469680     0.000000018578    -0.000001807811

  **** Optimization is complete! (in 8 steps) ****
    Final optimized geometry and variables:
    Molecular point group: c1

    Geometry (in Angstrom), charge = 0, multiplicity = 1:

    H           -2.922795107575    -0.072176147712    -1.533971831722
    O           -3.549152388706     0.272550080512    -0.914146371025
    C           -3.179898423686    -0.093402813262     0.390127047158
    C           -1.758731614068     0.313341866048     0.764272124677
    H           -3.320444664619    -1.163721747819     0.538771637610
    H           -3.883551744146     0.409817732942     1.040931918840
    C           -0.667100501293    -0.392321875219    -0.045189443507
    H           -1.664273645970     1.389955333065     0.647409042833
    H           -1.614605408480     0.096096725508     1.820940372707
    C            0.747217746040    -0.020548784796     0.406118631690
    H           -0.768411420693    -0.144846266200    -1.101013513421
    H           -0.798818949254    -1.470579692933     0.033171471988
    C            1.836714472540    -0.716882744360    -0.413507801719
    H            0.864096837268     1.058014826834     0.342676554126
    H            0.866649790316    -0.280813674820     1.456621995588
    C            3.267932264193    -0.448197850681     0.065634447062
    H            1.747449885925    -0.419933095524    -1.457443210069
    H            1.660040355533    -1.790303152825    -0.387472747845
    C            3.726958124012     1.003195614703    -0.085975037775
    H            3.944078259758    -1.088068723715    -0.495955072991
    H            3.360689444834    -0.749834912456     1.106990757686
    H            3.633628929481     1.336385914610    -1.116170983671
    H            4.768460175433     1.109476521113     0.201375487415
    H            3.148504632290     1.679703119783     0.534307709870

  Mulliken Charges: (a.u.)
   Center  Symbol    Alpha    Beta     Spin     Total
       1     H     0.27926  0.27926  0.00000  0.44149
       2     O     4.37325  4.37325  0.00000 -0.74649
       3     C     2.99135  2.99135  0.00000  0.01730
       4     C     3.16777  3.16777  0.00000 -0.33553
       5     H     0.43197  0.43197  0.00000  0.13605
       6     H     0.41514  0.41514  0.00000  0.16972
       7     C     3.16151  3.16151  0.00000 -0.32302
       8     H     0.41479  0.41479  0.00000  0.17043
       9     H     0.42209  0.42209  0.00000  0.15582
      10     C     3.15247  3.15247  0.00000 -0.30493
      11     H     0.42896  0.42896  0.00000  0.14208
      12     H     0.42191  0.42191  0.00000  0.15619
      13     C     3.15294  3.15294  0.00000 -0.30587
      14     H     0.41922  0.41922  0.00000  0.16155
      15     H     0.42286  0.42286  0.00000  0.15428
      16     C     3.15263  3.15263  0.00000 -0.30525
      17     H     0.42414  0.42414  0.00000  0.15172
      18     H     0.42226  0.42226  0.00000  0.15549
      19     C     3.24145  3.24145  0.00000 -0.48290
      20     H     0.42049  0.42049  0.00000  0.15901
      21     H     0.42303  0.42303  0.00000  0.15395
      22     H     0.42200  0.42200  0.00000  0.15601
      23     H     0.41871  0.41871  0.00000  0.16257
      24     H     0.41982  0.41982  0.00000  0.16035

   Total alpha = 33.00000, Total beta = 33.00000, Total charge = -0.00000
