                              Psi4 1.0.54 Driver

  ==> Input File <==

--------------------------------------------------------------------------
set {
	reference rhf
	basis cc-pvtz
}

set_num_threads( 4 )
memory 2 gb

molecule MOL {
0 1

H	 -2.644180	 -0.653737	 1.272255
C	 -2.092774	 -0.380414	 0.391915
O	 -0.808934	 -0.154049	 0.752536
F	 -2.163230	 -1.351640	 -0.507133
F	 -2.627232	 0.691260	 -0.169301
C	 0.085006	 0.250800	 -0.215074
C	 1.370439	 -0.548013	 -0.012993
Cl	 0.421658	 1.987697	 -0.091007
H	 -0.272219	 0.063284	 -1.212508
F	 1.617042	 -0.704147	 1.262873
F	 2.372453	 0.114851	 -0.540149
F	 1.316169	 -1.723727	 -0.576024

	symmetry c1
}
set optking {
	frozen_dihedral = ("
		10 7 6 9
	")
}

ee,wfn = optimize('scf', return_wfn=True)
oeprop( wfn, 'DIPOLE', 'QUADRUPOLE', 'MULLIKEN_CHARGES')
f=open( 'psi4out.xyz', 'w' )
f.write( "12  " )
f.write( str(ee) + "\n" )
f.write( MOL.save_string_xyz() )
f.close()
--------------------------------------------------------------------------

    Molecular point group: c1
  Charge       = 0
  Multiplicity = 1
  Basis Set: CC-PVTZ
  Basis Set:
  @DF-RHF Final Energy: -1146.61567237633153
    Total Energy =                      -1146.6156723763322134
    Molecular point group: c1
  Basis Set: CC-PVTZ
  Basis Set:
  Basis Set: CC-PVTZ
  Basis Set:
  @DF-RHF Final Energy: -1146.61722429237807
    Total Energy =                      -1146.6172242923769318
  Basis Set: CC-PVTZ
  Basis Set:
  Basis Set: CC-PVTZ
  Basis Set:
  @DF-RHF Final Energy: -1146.61809434530392
    Total Energy =                      -1146.6180943453043710
  Basis Set: CC-PVTZ
  Basis Set:
  Basis Set: CC-PVTZ
  Basis Set:
  @DF-RHF Final Energy: -1146.61818390398912
    Total Energy =                      -1146.6181839039888928
  Basis Set: CC-PVTZ
  Basis Set:
  Basis Set: CC-PVTZ
  Basis Set:
  @DF-RHF Final Energy: -1146.61819135981341
    Total Energy =                      -1146.6181913598136362
  Basis Set: CC-PVTZ
  Basis Set:
  Basis Set: CC-PVTZ
  Basis Set:
  @DF-RHF Final Energy: -1146.61819288399602
    Total Energy =                      -1146.6181928839960165
  Basis Set: CC-PVTZ
  Basis Set:
  Charge       = 0
  Multiplicity = 1
  Basis Set: CC-PVTZ
  Basis Set:

    Orbital Energies (a.u.)
    -----------------------

    Doubly Occupied:

       1A   -104.857456     2A    -26.356468     3A    -26.352952
       4A    -26.351934     5A    -26.342779     6A    -26.342584
       7A    -20.640058     8A    -11.520756     9A    -11.483139
      10A    -11.401243    11A    -10.583004    12A     -8.049808
      13A     -8.047808    14A     -8.047745    15A     -1.768074
      16A     -1.724160    17A     -1.664662    18A     -1.659081
      19A     -1.644231    20A     -1.485957    21A     -1.178201
      22A     -1.053374    23A     -0.989993    24A     -0.924286
      25A     -0.864101    26A     -0.858152    27A     -0.852114
      28A     -0.829223    29A     -0.817448    30A     -0.794361
      31A     -0.732894    32A     -0.731014    33A     -0.711941
      34A     -0.708391    35A     -0.684440    36A     -0.681328
      37A     -0.664889    38A     -0.663763    39A     -0.649940
      40A     -0.637724    41A     -0.598570    42A     -0.581632
      43A     -0.525740    44A     -0.478291    45A     -0.470682

  @DF-RHF Final Energy: -1146.61819370367016

   => Energetics <=

    Nuclear Repulsion Energy =            737.9491514334886233
    One-Electron Energy =               -3059.1219157042201005
    Two-Electron Energy =                1174.5545705670615462
    DFT Exchange-Correlation Energy =       0.0000000000000000
    Empirical Dispersion Energy =           0.0000000000000000
    PCM Polarization Energy =               0.0000000000000000
    EFP Energy =                            0.0000000000000000
    Total Energy =                      -1146.6181937036699310
    Molecular point group: c1
  Basis Set: CC-PVTZ
  Basis Set:

  -Total Gradient:
     Atom            X                  Y                   Z
    ------   -----------------  -----------------  -----------------
       1       -0.000012506146     0.000000519014     0.000002040679
       2        0.000052638453    -0.000071261450     0.000061058124
       3       -0.000075588846     0.000068996331     0.000019685067
       4       -0.000010430205     0.000017903570    -0.000025644790
       5       -0.000013516830    -0.000001607751    -0.000020836599
       6        0.003246605460     0.004055960625    -0.002649760602
       7        0.003082722595     0.004763853398     0.000363111141
       8        0.000046892204     0.000012199724     0.000014271561
       9       -0.003391629668    -0.004472383112     0.002175383018
      10       -0.002790004602    -0.004179958600     0.000100369122
      11       -0.000079826611     0.000015577760     0.000077769684
      12       -0.000055355791    -0.000209799416    -0.000117446419

  **** Optimization is complete! (in 7 steps) ****
    Final optimized geometry and variables:
    Molecular point group: c1

    Geometry (in Angstrom), charge = 0, multiplicity = 1:

    H           -2.686565407394    -0.606779473159     1.179115537487
    C           -2.102154019537    -0.340752088994     0.317917529296
    O           -0.827258578416    -0.139127397273     0.720155390469
    F           -2.161600176985    -1.308703373997    -0.586245556355
    F           -2.600711813600     0.741141450655    -0.257088652894
    C            0.106517388092     0.256486889999    -0.219104208676
    C            1.370555461929    -0.569380665312     0.044827412147
    CL           0.434275357222     1.990780143935    -0.099865713622
    H           -0.236592944945     0.028771090223    -1.212865987716
    F            1.619380718253    -0.689246073341     1.319666546631
    F            2.417090463050    -0.067952001402    -0.551312932091
    F            1.172869195520    -1.778852676671    -0.436447059804

  Mulliken Charges: (a.u.)
   Center  Symbol    Alpha    Beta     Spin     Total
       1     H     0.45199  0.45199  0.00000  0.09601
       2     C     2.74033  2.74033  0.00000  0.51934
       3     O     4.15524  4.15524  0.00000 -0.31047
       4     F     4.61834  4.61834  0.00000 -0.23669
       5     F     4.61518  4.61518  0.00000 -0.23037
       6     C     2.94238  2.94238  0.00000  0.11525
       7     C     2.66959  2.66959  0.00000  0.66083
       8    CL     8.57161  8.57161  0.00000 -0.14322
       9     H     0.43044  0.43044  0.00000  0.13911
      10     F     4.59910  4.59910  0.00000 -0.19820
      11     F     4.59811  4.59811  0.00000 -0.19622
      12     F     4.60768  4.60768  0.00000 -0.21536

   Total alpha = 45.00000, Total beta = 45.00000, Total charge =  0.00000

*** Psi4 exiting successfully. Buy a developer a beer!
