                              Psi4 1.0.54 Driver

  ==> Input File <==

--------------------------------------------------------------------------
set {
	reference rhf
	basis cc-pvtz
}

set_num_threads( 4 )
memory 2 gb

molecule MOL {
0 1

O	 -2.817697	 1.304178	 0.001046
C	 -2.664672	 0.129869	 0.003507
C	 -3.797908	 -0.860100	 -0.001145
O	 -1.481217	 -0.452708	 0.001092
H	 -4.408836	 -0.679689	 -0.875387
H	 -3.443486	 -1.878443	 -0.002770
H	 -4.412123	 -0.683688	 0.871605
C	 -0.332055	 0.384012	 -0.000250
C	 0.892252	 -0.506059	 -0.000295
H	 -0.360822	 1.020205	 -0.874146
H	 -0.359817	 1.021310	 0.872861
C	 2.188199	 0.299473	 -0.001416
H	 0.857046	 -1.152781	 -0.871031
H	 0.857910	 -1.151798	 0.871202
C	 3.437151	 -0.577593	 -0.000991
H	 2.209565	 0.950707	 -0.871712
H	 2.210062	 0.952234	 0.867721
C	 4.701786	 0.183204	 -0.384257
H	 3.292702	 -1.406493	 -0.688098
H	 3.565385	 -1.017339	 0.984030
H	 4.617534	 0.606360	 -1.379589
H	 5.568706	 -0.467068	 -0.374110
H	 4.892146	 0.998741	 0.305320

	symmetry c1
}
set optking {
	frozen_dihedral = ("
		19 15 12 16
	")
}

ee,wfn = optimize('scf', return_wfn=True)
oeprop( wfn, 'DIPOLE', 'QUADRUPOLE', 'MULLIKEN_CHARGES')
f=open( 'psi4out.xyz', 'w' )
f.write( "23  " )
f.write( str(ee) + "\n" )
f.write( MOL.save_string_xyz() )
f.close()
--------------------------------------------------------------------------

    Molecular point group: c1
  Charge       = 0
  Multiplicity = 1
  Basis Set: CC-PVTZ
  Basis Set:
  @DF-RHF Final Energy:  -423.13387546629923
    Total Energy =                       -423.1338754662988322
    Molecular point group: c1
  Basis Set: CC-PVTZ
  Basis Set:
  Basis Set: CC-PVTZ
  Basis Set:
  @DF-RHF Final Energy:  -423.13375845706616
    Total Energy =                       -423.1337584570661647
  Basis Set: CC-PVTZ
  Basis Set:
  Basis Set: CC-PVTZ
  Basis Set:
  @DF-RHF Final Energy:  -423.13350781420388
    Total Energy =                       -423.1335078142041084
  Basis Set: CC-PVTZ
  Basis Set:
  Basis Set: CC-PVTZ
  Basis Set:
  @DF-RHF Final Energy:  -423.13400917504356
    Total Energy =                       -423.1340091750439569
  Basis Set: CC-PVTZ
  Basis Set:
  Basis Set: CC-PVTZ
  Basis Set:
  @DF-RHF Final Energy:  -423.13402494770077
    Total Energy =                       -423.1340249477004818
  Basis Set: CC-PVTZ
  Basis Set:
  Basis Set: CC-PVTZ
  Basis Set:
  @DF-RHF Final Energy:  -423.13402786147020
    Total Energy =                       -423.1340278614707131
  Basis Set: CC-PVTZ
  Basis Set:
  Charge       = 0
  Multiplicity = 1
  Basis Set: CC-PVTZ
  Basis Set:

    Orbital Energies (a.u.)
    -----------------------

    Doubly Occupied:

       1A    -20.595993     2A    -20.529568     3A    -11.366448
       4A    -11.279499     5A    -11.230707     6A    -11.222573
       7A    -11.221253     8A    -11.219377     9A    -11.211181
      10A     -1.471220    11A     -1.364055    12A     -1.095113
      13A     -1.043223    14A     -1.004368    15A     -0.931835
      16A     -0.842805    17A     -0.803418    18A     -0.776226
      19A     -0.694713    20A     -0.688401    21A     -0.671409
      22A     -0.646271    23A     -0.607188    24A     -0.589697
      25A     -0.584364    26A     -0.568143    27A     -0.558785
      28A     -0.538764    29A     -0.524091    30A     -0.505790
      31A     -0.492646    32A     -0.479295    33A     -0.468677
      34A     -0.466806    35A     -0.455303    36A     -0.439024

  @DF-RHF Final Energy:  -423.13402794514406

   => Energetics <=

    Nuclear Repulsion Energy =            450.4327206360352989
    One-Electron Energy =               -1468.7570402710807684
    Two-Electron Energy =                 595.1902916899015281
    DFT Exchange-Correlation Energy =       0.0000000000000000
    Empirical Dispersion Energy =           0.0000000000000000
    PCM Polarization Energy =               0.0000000000000000
    EFP Energy =                            0.0000000000000000
    Total Energy =                       -423.1340279451438846
    Molecular point group: c1
  Basis Set: CC-PVTZ
  Basis Set:

  -Total Gradient:
     Atom            X                  Y                   Z
    ------   -----------------  -----------------  -----------------
       1       -0.000004019117     0.000010534406    -0.000002342631
       2        0.000010113195    -0.000023072537    -0.000001006050
       3       -0.000000316599     0.000006094582     0.000005957040
       4       -0.000019596842     0.000004814406    -0.000017491014
       5        0.000004427799    -0.000000978195     0.000001924096
       6       -0.000000500444    -0.000000393760    -0.000000495926
       7        0.000001464824     0.000000748485    -0.000004454075
       8        0.000011594361     0.000006228378     0.000036613424
       9       -0.000005829203    -0.000003891510     0.000002304354
      10       -0.000008576687    -0.000002329829    -0.000004459306
      11        0.000007397863    -0.000004021063    -0.000011382054
      12       -0.001942655749    -0.002840819781    -0.001379563902
      13        0.000003729058     0.000001792886     0.000004007022
      14       -0.000003529814     0.000002207913    -0.000002190383
      15        0.001730308265     0.002393536159    -0.002265431724
      16        0.001356183604     0.001997525436     0.001527845908
      17       -0.000003633049    -0.000002597481    -0.000000650213
      18        0.000010960730     0.000003448928    -0.000001368080
      19       -0.001140757667    -0.001550191831     0.002113516572
      20       -0.000003764242     0.000003002667    -0.000001800115
      21        0.000005634600    -0.000005541869     0.000011969291
      22       -0.000008363300     0.000011781306     0.000000256909
      23       -0.000000271590    -0.000007877698    -0.000011759144

  **** Optimization is complete! (in 7 steps) ****
    Final optimized geometry and variables:
    Molecular point group: c1

    Geometry (in Angstrom), charge = 0, multiplicity = 1:

    O           -2.814886001681     1.309652241591     0.078569624765
    C           -2.662994071283     0.135275307649     0.062029212703
    C           -3.797156873272    -0.853832850900     0.064155404689
    O           -1.480100935255    -0.447882007564     0.039855215533
    H           -4.421538892105    -0.663005876817    -0.798341051037
    H           -3.443728702290    -1.872387393630     0.045470181608
    H           -4.397408279439    -0.686820653941     0.948470752911
    C           -0.330697474789     0.388054535585     0.036047674060
    C            0.892852526304    -0.502523085993     0.008468764714
    H           -0.369102833663     1.036225332604    -0.828769088576
    H           -0.346814057464     1.013593640413     0.917923223324
    C            2.188512514933     0.301241920282    -0.007944695106
    H            0.843160089558    -1.142375392440    -0.866473527103
    H            0.873091496479    -1.155378152847     0.875464362457
    C            3.442095817856    -0.572081388318     0.026768342432
    H            2.219670588987     0.946714539950    -0.882251323855
    H            2.207495988910     0.973245623404     0.847068818430
    C            4.719159920558     0.191152766879    -0.302153382725
    H            3.320502019171    -1.410271352394    -0.653601295544
    H            3.532819344430    -1.014170248285     1.015362974102
    H            4.686058644366     0.594242756722    -1.308640537865
    H            5.589355951524    -0.450826278738    -0.230758561965
    H            4.864507292952     1.021809356015     0.380637307296

  Mulliken Charges: (a.u.)
   Center  Symbol    Alpha    Beta     Spin     Total
       1     O     4.20241  4.20241  0.00000 -0.40482
       2     C     2.81521  2.81521  0.00000  0.36959
       3     C     3.14003  3.14003  0.00000 -0.28007
       4     O     4.14464  4.14464  0.00000 -0.28927
       5     H     0.44210  0.44210  0.00000  0.11581
       6     H     0.44186  0.44186  0.00000  0.11628
       7     H     0.44213  0.44213  0.00000  0.11575
       8     C     2.97895  2.97895  0.00000  0.04211
       9     C     3.08107  3.08107  0.00000 -0.16214
      10     H     0.45405  0.45405  0.00000  0.09191
      11     H     0.45390  0.45390  0.00000  0.09221
      12     C     3.09833  3.09833  0.00000 -0.19667
      13     H     0.45060  0.45060  0.00000  0.09880
      14     H     0.45072  0.45072  0.00000  0.09856
      15     C     3.08506  3.08506  0.00000 -0.17012
      16     H     0.45334  0.45334  0.00000  0.09331
      17     H     0.45260  0.45260  0.00000  0.09481
      18     C     3.14903  3.14903  0.00000 -0.29805
      19     H     0.45435  0.45435  0.00000  0.09131
      20     H     0.45303  0.45303  0.00000  0.09394
      21     H     0.45455  0.45455  0.00000  0.09090
      22     H     0.44781  0.44781  0.00000  0.10438
      23     H     0.45426  0.45426  0.00000  0.09147

   Total alpha = 36.00000, Total beta = 36.00000, Total charge = -0.00000

*** Psi4 exiting successfully. Buy a developer a beer!
