                              Psi4 1.0.54 Driver

  ==> Input File <==

--------------------------------------------------------------------------
set {
	reference rhf
	basis cc-pvtz
}

set_num_threads( 4 )
memory 2 gb

molecule MOL {
0 1

O	 -2.817697	 1.304178	 0.001046
C	 -2.664672	 0.129869	 0.003507
C	 -3.797908	 -0.860100	 -0.001145
O	 -1.481217	 -0.452708	 0.001092
H	 -4.408836	 -0.679689	 -0.875387
H	 -3.443486	 -1.878443	 -0.002770
H	 -4.412123	 -0.683688	 0.871605
C	 -0.332055	 0.384012	 -0.000250
C	 0.892252	 -0.506059	 -0.000295
H	 -0.360822	 1.020205	 -0.874146
H	 -0.359817	 1.021310	 0.872861
C	 0.840635	 -1.554067	 -1.108166
H	 0.973762	 -0.992329	 0.966435
H	 1.776709	 0.112075	 -0.115667
C	 2.065970	 -2.463617	 -1.128116
H	 -0.053209	 -2.161769	 -0.991041
H	 0.747866	 -1.058890	 -2.071581
C	 2.015336	 -3.510268	 -2.235801
H	 2.158743	 -2.960352	 -0.166501
H	 2.959807	 -1.857467	 -1.245274
H	 1.149626	 -4.154750	 -2.126096
H	 2.898461	 -4.138294	 -2.222363
H	 1.956566	 -3.043308	 -3.213220

	symmetry c1
}
set optking {
	frozen_dihedral = ("
		13 9 8 10
	")
}

ee,wfn = optimize('scf', return_wfn=True)
oeprop( wfn, 'DIPOLE', 'QUADRUPOLE', 'MULLIKEN_CHARGES')
f=open( 'psi4out.xyz', 'w' )
f.write( "23  " )
f.write( str(ee) + "\n" )
f.write( MOL.save_string_xyz() )
f.close()
--------------------------------------------------------------------------

    Molecular point group: c1
  Charge       = 0
  Multiplicity = 1
  Basis Set: CC-PVTZ
  Basis Set:
  @DF-RHF Final Energy:  -423.13314907407818
    Total Energy =                       -423.1331490740788013
    Molecular point group: c1
  Basis Set: CC-PVTZ
  Basis Set:
  Basis Set: CC-PVTZ
  Basis Set:
  @DF-RHF Final Energy:  -423.13353638048301
    Total Energy =                       -423.1335363804827239
  Basis Set: CC-PVTZ
  Basis Set:
  Basis Set: CC-PVTZ
  Basis Set:
  @DF-RHF Final Energy:  -423.13294077349485
    Total Energy =                       -423.1329407734943970
  Basis Set: CC-PVTZ
  Basis Set:
  Basis Set: CC-PVTZ
  Basis Set:
  @DF-RHF Final Energy:  -423.13401663192332
    Total Energy =                       -423.1340166319238278
  Basis Set: CC-PVTZ
  Basis Set:
  Basis Set: CC-PVTZ
  Basis Set:
  @DF-RHF Final Energy:  -423.13403862884263
    Total Energy =                       -423.1340386288421769
  Basis Set: CC-PVTZ
  Basis Set:
  Basis Set: CC-PVTZ
  Basis Set:
  @DF-RHF Final Energy:  -423.13404238697655
    Total Energy =                       -423.1340423869768301
  Basis Set: CC-PVTZ
  Basis Set:
  Charge       = 0
  Multiplicity = 1
  Basis Set: CC-PVTZ
  Basis Set:

    Orbital Energies (a.u.)
    -----------------------

    Doubly Occupied:

       1A    -20.596568     2A    -20.530151     3A    -11.367099
       4A    -11.280049     5A    -11.231356     6A    -11.223579
       7A    -11.217352     8A    -11.216024     9A    -11.209426
      10A     -1.471980    11A     -1.364803    12A     -1.092778
      13A     -1.042517    14A     -1.003835    15A     -0.932153
      16A     -0.844093    17A     -0.804420    18A     -0.774412
      19A     -0.691541    20A     -0.687601    21A     -0.670115
      22A     -0.644683    23A     -0.608204    24A     -0.587613
      25A     -0.580699    26A     -0.570925    27A     -0.560570
      28A     -0.532531    29A     -0.530947    30A     -0.511660
      31A     -0.493452    32A     -0.475121    33A     -0.468165
      34A     -0.461460    35A     -0.450231    36A     -0.441476

  @DF-RHF Final Energy:  -423.13404296698008

   => Energetics <=

    Nuclear Repulsion Energy =            459.3127392687048882
    One-Electron Energy =               -1486.5543893306603422
    Two-Electron Energy =                 604.1076070949756058
    DFT Exchange-Correlation Energy =       0.0000000000000000
    Empirical Dispersion Energy =           0.0000000000000000
    PCM Polarization Energy =               0.0000000000000000
    EFP Energy =                            0.0000000000000000
    Total Energy =                       -423.1340429669797913
    Molecular point group: c1
  Basis Set: CC-PVTZ
  Basis Set:

  -Total Gradient:
     Atom            X                  Y                   Z
    ------   -----------------  -----------------  -----------------
       1        0.000018751344    -0.000061517166    -0.000012014608
       2        0.000043918870    -0.000016578534     0.000010139126
       3        0.000002096814     0.000020162616    -0.000042874134
       4       -0.000072666379     0.000049474327     0.000022420072
       5       -0.000004878934     0.000006373360     0.000024369637
       6       -0.000008224380     0.000000172221     0.000002884895
       7        0.000017649422    -0.000013172878     0.000001902507
       8       -0.001465270596    -0.001985924121    -0.001502514756
       9       -0.001560313608    -0.002068814479    -0.000744363319
      10        0.001479412838     0.001979275771     0.001328403909
      11        0.000001676290    -0.000026241452    -0.000008500526
      12       -0.000016154217     0.000010369481     0.000028129198
      13        0.001568949319     0.002081825239     0.000875486918
      14        0.000016626647     0.000001725139     0.000006741578
      15        0.000003047678     0.000011906098     0.000000203286
      16       -0.000005457981    -0.000007747813     0.000008025355
      17       -0.000005945329     0.000003227593    -0.000007004005
      18       -0.000006491181     0.000003884009     0.000006122928
      19       -0.000001891002    -0.000002746792     0.000000537090
      20       -0.000004316037     0.000000440759     0.000004772078
      21        0.000003589310     0.000005455034    -0.000000662591
      22       -0.000004682994     0.000007669711     0.000003669127
      23        0.000000574109     0.000000781877    -0.000005873766

  **** Optimization is complete! (in 7 steps) ****
    Final optimized geometry and variables:
    Molecular point group: c1

    Geometry (in Angstrom), charge = 0, multiplicity = 1:

    O           -2.200362930153     2.187492692586     0.487943291415
    C           -2.094728810037     1.009038908447     0.534299740394
    C           -3.266758527159     0.068112746210     0.609310030272
    O           -0.935879778570     0.378845572405     0.525327770832
    H           -3.893093721211     0.229410771265    -0.257814389187
    H           -2.954641063915    -0.963187401393     0.651433448255
    H           -3.849618192050     0.314175706578     1.486681203701
    C            0.244018437592     1.167251519159     0.459561209129
    C            1.453069867966     0.254192649145     0.463341536169
    H            0.218467297369     1.787349386652    -0.426331813541
    H            0.265771200032     1.832089282687     1.311831374431
    C            1.468636366778    -0.790066109722    -0.648179613362
    H            1.542372849670    -0.219567566643     1.436182246232
    H            2.324346599991     0.897196476496     0.366314060066
    C            2.743053375581    -1.629528676498    -0.654959460678
    H            0.608445530062    -1.441684871546    -0.544927854740
    H            1.362329109651    -0.290810549654    -1.608778538620
    C            2.761463801062    -2.677338465841    -1.762648937759
    H            2.852823941125    -2.121742147660     0.307558256003
    H            3.605014310020    -0.976664448572    -0.762810346588
    H            1.930835162415    -3.367799342784    -1.661537390887
    H            3.677388506690    -3.256417729164    -1.740065601726
    H            2.687233044656    -2.214039546740    -2.740879587201

  Mulliken Charges: (a.u.)
   Center  Symbol    Alpha    Beta     Spin     Total
       1     O     4.20260  4.20260  0.00000 -0.40519
       2     C     2.81154  2.81154  0.00000  0.37693
       3     C     3.13982  3.13982  0.00000 -0.27964
       4     O     4.14733  4.14733  0.00000 -0.29465
       5     H     0.44199  0.44199  0.00000  0.11603
       6     H     0.44226  0.44226  0.00000  0.11549
       7     H     0.44157  0.44157  0.00000  0.11686
       8     C     2.99357  2.99357  0.00000  0.01286
       9     C     3.08932  3.08932  0.00000 -0.17864
      10     H     0.45056  0.45056  0.00000  0.09887
      11     H     0.44539  0.44539  0.00000  0.10921
      12     C     3.08773  3.08773  0.00000 -0.17546
      13     H     0.45082  0.45082  0.00000  0.09835
      14     H     0.45236  0.45236  0.00000  0.09528
      15     C     3.08560  3.08560  0.00000 -0.17121
      16     H     0.44592  0.44592  0.00000  0.10817
      17     H     0.45564  0.45564  0.00000  0.08871
      18     C     3.14951  3.14951  0.00000 -0.29902
      19     H     0.45400  0.45400  0.00000  0.09201
      20     H     0.45465  0.45465  0.00000  0.09069
      21     H     0.45490  0.45490  0.00000  0.09020
      22     H     0.44808  0.44808  0.00000  0.10384
      23     H     0.45485  0.45485  0.00000  0.09031

   Total alpha = 36.00000, Total beta = 36.00000, Total charge =  0.00000

*** Psi4 exiting successfully. Buy a developer a beer!
