  ==> Input File <==

--------------------------------------------------------------------------
set {
	reference rhf
	basis 6-31G*
}

set_num_threads( 4 )
memory 2 gb

molecule MOL {
0 1

H	 -3.420663	 1.227371	 -1.044276
O	 -3.452007	 0.283848	 -0.965577
C	 -3.181085	 -0.079926	 0.364119
C	 -1.765924	 0.277073	 0.805136
H	 -3.327791	 -1.152017	 0.410903
H	 -3.905698	 0.375695	 1.036898
C	 -0.677594	 -0.417312	 -0.014550
H	 -1.637766	 1.358238	 0.744969
H	 -1.659588	 0.017670	 1.857098
C	 0.738335	 -0.034840	 0.421385
H	 -0.814977	 -0.178223	 -1.064632
H	 -0.802730	 -1.495410	 0.071702
C	 1.822265	 -0.738362	 -0.399735
H	 0.853533	 1.043532	 0.342250
H	 0.871597	 -0.279636	 1.474438
C	 2.400488	 -2.001165	 0.249220
H	 2.630640	 -0.037808	 -0.603327
H	 1.405097	 -1.008251	 -1.367696
C	 3.185826	 -1.751198	 1.538082
H	 3.056038	 -2.487858	 -0.468885
H	 1.594364	 -2.704563	 0.448213
H	 3.991672	 -1.041099	 1.372221
H	 3.628728	 -2.672325	 1.904417
H	 2.555347	 -1.357473	 2.328425

	symmetry c1
}
set optking {
	frozen_dihedral = ("
		17 13 10 7
	")
}

ee = optimize('scf')
oeprop('DIPOLE', 'QUADRUPOLE', 'MULLIKEN_CHARGES')
f=open( 'psi4out.xyz', 'w' )
f.write( "24  " )
f.write( str(ee) + "\n" )
f.write( MOL.save_string_xyz() )
f.close()
--------------------------------------------------------------------------

    Molecular point group: c1
  Charge       = 0
  Multiplicity = 1
  Basis Set: 6-31G*
  Basis Set:
  @DF-RHF Final Energy:  -349.24314817417570
    Total Energy =                       -349.2431481741758716
    Molecular point group: c1
  Basis Set: 6-31G*
  Basis Set:
  Basis Set: 6-31G*
  Basis Set:
  @DF-RHF Final Energy:  -349.24344142156275
    Total Energy =                       -349.2434414215626930
  Basis Set: 6-31G*
  Basis Set:
  Basis Set: 6-31G*
  Basis Set:
  @DF-RHF Final Energy:  -349.24371618692521
    Total Energy =                       -349.2437161869253259
  Basis Set: 6-31G*
  Basis Set:
  Basis Set: 6-31G*
  Basis Set:
  @DF-RHF Final Energy:  -349.24372903767244
    Total Energy =                       -349.2437290376724377
  Basis Set: 6-31G*
  Basis Set:
  Basis Set: 6-31G*
  Basis Set:
  @DF-RHF Final Energy:  -349.24374110628577
    Total Energy =                       -349.2437411062855404
  Basis Set: 6-31G*
  Basis Set:
  Charge       = 0
  Multiplicity = 1
  Basis Set: 6-31G*
  Basis Set:

    Orbital Energies (a.u.)
    -----------------------

    Doubly Occupied:

       1A    -20.553646     2A    -11.267796     3A    -11.217377
       4A    -11.214213     5A    -11.212434     6A    -11.211358
       7A    -11.211179     8A    -11.207281     9A     -1.360241
      10A     -1.087742    11A     -1.047435    12A     -0.984767
      13A     -0.914444    14A     -0.851155    15A     -0.805527
      16A     -0.771951    17A     -0.680040    18A     -0.651187
      19A     -0.624844    20A     -0.615559    21A     -0.604562
      22A     -0.580531    23A     -0.556066    24A     -0.543110
      25A     -0.519934    26A     -0.506021    27A     -0.496020
      28A     -0.477684    29A     -0.467273    30A     -0.459857
      31A     -0.452247    32A     -0.446488    33A     -0.419844

  @DF-RHF Final Energy:  -349.24374163454598

   => Energetics <=

    Nuclear Repulsion Energy =            386.6133067002522807
    One-Electron Energy =               -1239.6744726619670018
    Two-Electron Energy =                 503.8174243271687374
    DFT Exchange-Correlation Energy =       0.0000000000000000
    Empirical Dispersion Energy =           0.0000000000000000
    PCM Polarization Energy =               0.0000000000000000
    EFP Energy =                            0.0000000000000000
    Total Energy =                       -349.2437416345460406
    Molecular point group: c1
  Basis Set: 6-31G*
  Basis Set:

  -Total Gradient:
     Atom            X                  Y                   Z
    ------   -----------------  -----------------  -----------------
       1       -0.000000309473     0.000000371106     0.000000785537
       2       -0.000005220525    -0.000000307361     0.000000393383
       3       -0.000001290388     0.000008077320    -0.000001849673
       4       -0.000004075714     0.000015362950    -0.000018898655
       5        0.000003254092    -0.000000279210    -0.000001950685
       6       -0.000000908302    -0.000001988740     0.000001812194
       7        0.000023765928     0.001590104557    -0.001372351019
       8        0.000001969621     0.000004994941     0.000003754326
       9        0.000001274772    -0.000003471164    -0.000007064425
      10       -0.000330044715    -0.002059720235     0.001346609226
      11        0.000019535790    -0.000018434133    -0.000007436953
      12       -0.000007904875     0.000002694234     0.000011382046
      13        0.001603600411    -0.000398768765     0.002590583366
      14       -0.000010560708     0.000009000680     0.000011381696
      15        0.000015778907    -0.000007758456     0.000011755086
      16        0.000021410857     0.000028382772    -0.000037825059
      17       -0.001281891423     0.000809480242    -0.002500338347
      18        0.000007590704    -0.000004190042    -0.000027220483
      19       -0.000023566531     0.000005178968    -0.000007017865
      20       -0.000008909247    -0.000010156787    -0.000013241177
      21        0.000001359860     0.000021387050     0.000017053723
      22       -0.000015514290    -0.000002454038    -0.000005277505
      23        0.000000869842    -0.000003524557    -0.000006023176
      24       -0.000010214589     0.000016018667     0.000010984438

  **** Optimization is complete! (in 6 steps) ****
    Final optimized geometry and variables:
    Molecular point group: c1

    Geometry (in Angstrom), charge = 0, multiplicity = 1:

    H           -3.243982397572     1.817048966953    -1.265564637259
    O           -3.276831335723     0.871075065575    -1.228123241932
    C           -3.030101776324     0.450291975194     0.089439743922
    C           -1.622790208835     0.786124892005     0.570634295273
    H           -3.178107486700    -0.622554331281     0.087426915259
    H           -3.766471245176     0.877428429711     0.768017146155
    C           -0.520387007543     0.126620883734    -0.258352547654
    H           -1.492807150848     1.868800064991     0.558898184895
    H           -1.535464867925     0.482205595759     1.612376070936
    C            0.888655506429     0.509619485993     0.202595662325
    H           -0.645204519963     0.399689770288    -1.301246753294
    H           -0.640502876615    -0.954861605976    -0.209947366138
    C            2.000684722003    -0.197709130277    -0.597480383181
    H            0.999252249238     1.587133882535     0.103337882746
    H            0.994768408844     0.298136735294     1.263626965117
    C            2.551215297823    -1.471612253890     0.055063662847
    H            2.817486000913     0.493442635828    -0.791593411949
    H            1.607697307916    -0.453842053884    -1.578890949346
    C            3.445218951735    -1.213403755967     1.269084757254
    H            3.123090712124    -2.025997411274    -0.684881206701
    H            1.723875127755    -2.117312270382     0.342908346826
    H            4.307674711516    -0.612866101556     0.993361879842
    H            3.812191718971    -2.146241816266     1.686377298239
    H            2.918147811029    -0.688098422621     2.059188063985

  Mulliken Charges: (a.u.)
   Center  Symbol    Alpha    Beta     Spin     Total
       1     H     0.28336  0.28336  0.00000  0.43328
       2     O     4.36828  4.36828  0.00000 -0.73655
       3     C     2.99608  2.99608  0.00000  0.00784
       4     C     3.16933  3.16933  0.00000 -0.33867
       5     H     0.41638  0.41638  0.00000  0.16725
       6     H     0.42819  0.42819  0.00000  0.14362
       7     C     3.15352  3.15352  0.00000 -0.30705
       8     H     0.42827  0.42827  0.00000  0.14346
       9     H     0.42238  0.42238  0.00000  0.15524
      10     C     3.15541  3.15541  0.00000 -0.31082
      11     H     0.41143  0.41143  0.00000  0.17713
      12     H     0.42345  0.42345  0.00000  0.15310
      13     C     3.15709  3.15709  0.00000 -0.31418
      14     H     0.42267  0.42267  0.00000  0.15467
      15     H     0.42253  0.42253  0.00000  0.15495
      16     C     3.15353  3.15353  0.00000 -0.30706
      17     H     0.42175  0.42175  0.00000  0.15650
      18     H     0.41934  0.41934  0.00000  0.16132
      19     C     3.23987  3.23987  0.00000 -0.47974
      20     H     0.42097  0.42097  0.00000  0.15805
      21     H     0.42320  0.42320  0.00000  0.15361
      22     H     0.42206  0.42206  0.00000  0.15588
      23     H     0.41972  0.41972  0.00000  0.16056
      24     H     0.42119  0.42119  0.00000  0.15763

   Total alpha = 33.00000, Total beta = 33.00000, Total charge =  0.00000
