  ==> Input File <==

--------------------------------------------------------------------------
set {
	reference rhf
	basis 6-31G*
}

set_num_threads( 1 )
memory 2 gb

molecule MOL {
0 1

O	 0.749854	 1.307668	 -0.000040
C	 0.576249	 0.131685	 -0.000108
C	 -0.766779	 -0.556801	 -0.000461
O	 1.568443	 -0.749345	 -0.000005
C	 -1.945214	 0.412366	 0.000161
H	 -0.796911	 -1.211249	 -0.867467
H	 -0.796854	 -1.212390	 0.865687
C	 -3.287791	 -0.317055	 0.000105
H	 -1.876087	 1.060580	 -0.866812
H	 -1.875822	 1.059691	 0.867761
H	 -3.394745	 -0.949193	 -0.877058
H	 -4.111778	 0.388953	 0.000015
H	 -3.394954	 -0.949187	 0.877259
C	 2.587675	 -0.569541	 -0.966465
H	 2.178128	 -0.622692	 -1.964958
H	 3.290222	 -1.372611	 -0.807178
H	 3.074221	 0.385876	 -0.832447

	symmetry c1
}
set optking {
	frozen_dihedral = ("
		1 2 3 6,
		9 5 3 6
	")
}

ee = energy('scf')
oeprop('DIPOLE', 'QUADRUPOLE', 'MULLIKEN_CHARGES')
f=open( 'psi4out.xyz', 'w' )
f.write( "17  " )
f.write( str(ee) + "\n" )
f.write( MOL.save_string_xyz() )
f.close()
--------------------------------------------------------------------------

    Molecular point group: c1

    Geometry (in Angstrom), charge = 0, multiplicity = 1:

       Center              X                  Y                   Z               Mass
    ------------   -----------------  -----------------  -----------------  -----------------
           O          0.796041074628     1.359700176021     0.149226495724    15.994914619560
           C          0.622436074628     0.183717176021     0.149158495724    12.000000000000
           C         -0.720591925372    -0.504768823979     0.148805495724    12.000000000000
           O          1.614630074628    -0.697312823979     0.149261495724    15.994914619560
           C         -1.899026925372     0.464398176021     0.149427495724    12.000000000000
           H         -0.750723925372    -1.159216823979    -0.718200504276     1.007825032070
           H         -0.750666925372    -1.160357823979     1.014953495724     1.007825032070
           C         -3.241603925372    -0.265022823979     0.149371495724    12.000000000000
           H         -1.829899925372     1.112612176021    -0.717545504276     1.007825032070
           H         -1.829634925372     1.111723176021     1.017027495724     1.007825032070
           H         -3.348557925372    -0.897160823979    -0.727791504276     1.007825032070
           H         -4.065590925372     0.440985176021     0.149281495724     1.007825032070
           H         -3.348766925372    -0.897154823979     1.026525495724     1.007825032070
           C          2.633862074628    -0.517508823979    -0.817198504276    12.000000000000
           H          2.224315074628    -0.570659823979    -1.815691504276     1.007825032070
           H          3.336409074628    -1.320578823979    -0.657911504276     1.007825032070
           H          3.120408074628     0.437908176021    -0.683180504276     1.007825032070

  Charge       = 0
  Multiplicity = 1
  Basis Set: 6-31G*
  Basis Set:

    Orbital Energies (a.u.)
    -----------------------

    Doubly Occupied:

       1A    -20.593431     2A    -20.550585     3A    -11.373523
       4A    -11.287542     5A    -11.236472     6A    -11.221926
       7A    -11.214882     8A     -1.466559     9A     -1.364630
      10A     -1.080155    11A     -0.999338    12A     -0.944951
      13A     -0.829515    14A     -0.767841    15A     -0.699858
      16A     -0.681134    17A     -0.673133    18A     -0.635461
      19A     -0.606721    20A     -0.576269    21A     -0.566998
      22A     -0.534620    23A     -0.518969    24A     -0.496221
      25A     -0.488772    26A     -0.479345    27A     -0.453914
      28A     -0.434904

  @DF-RHF Final Energy:  -344.89493589568531

   => Energetics <=

    Nuclear Repulsion Energy =            312.6790917998797568
    One-Electron Energy =               -1089.5927727738101112
    Two-Electron Energy =                 432.0187450782439100
    DFT Exchange-Correlation Energy =       0.0000000000000000
    Empirical Dispersion Energy =           0.0000000000000000
    PCM Polarization Energy =               0.0000000000000000
    EFP Energy =                            0.0000000000000000
    Total Energy =                       -344.8949358956864444

  Mulliken Charges: (a.u.)
   Center  Symbol    Alpha    Beta     Spin     Total
       1     O     4.27293  4.27293  0.00000 -0.54585
       2     C     2.60744  2.60744  0.00000  0.78513
       3     C     3.20810  3.20810  0.00000 -0.41619
       4     O     4.31010  4.31010  0.00000 -0.62020
       5     C     3.15280  3.15280  0.00000 -0.30560
       6     H     0.40506  0.40506  0.00000  0.18987
       7     H     0.39951  0.39951  0.00000  0.20098
       8     C     3.24256  3.24256  0.00000 -0.48513
       9     H     0.41195  0.41195  0.00000  0.17609
      10     H     0.41012  0.41012  0.00000  0.17976
      11     H     0.42206  0.42206  0.00000  0.15589
      12     H     0.41516  0.41516  0.00000  0.16967
      13     H     0.42104  0.42104  0.00000  0.15792
      14     C     3.09507  3.09507  0.00000 -0.19014
      15     H     0.41824  0.41824  0.00000  0.16351
      16     H     0.40536  0.40536  0.00000  0.18927
      17     H     0.40250  0.40250  0.00000  0.19501

   Total alpha = 28.00000, Total beta = 28.00000, Total charge =  0.00000
