  ==> Input File <==

--------------------------------------------------------------------------
set {
	reference rhf
	basis 6-31G*
}

set_num_threads( 1 )
memory 2 gb

molecule MOL {
0 1

H	 -4.526818	 -0.741364	 4.172740
O	 -4.070554	 -0.816668	 4.998103
C	 -3.221933	 -1.936081	 4.969670
C	 -1.990718	 -1.734927	 4.093101
H	 -2.917472	 -2.100711	 5.995279
H	 -3.769727	 -2.821498	 4.649142
C	 -2.308752	 -1.539898	 2.608619
H	 -1.439873	 -0.874659	 4.464418
H	 -1.343524	 -2.602126	 4.213406
C	 -1.050289	 -1.394943	 1.748341
H	 -2.932876	 -0.658565	 2.489939
H	 -2.891652	 -2.387873	 2.248750
C	 -1.309753	 -1.282496	 0.241564
H	 -0.486557	 -0.525717	 2.082255
H	 -0.409867	 -2.256751	 1.923972
C	 -2.037799	 -0.007733	 -0.193645
H	 -0.352893	 -1.328480	 -0.274305
H	 -1.874243	 -2.152013	 -0.091795
C	 -3.489788	 0.042957	 0.286558
H	 -2.017067	 0.064384	 -1.280144
H	 -1.513726	 0.868678	 0.179924
C	 -4.216917	 1.317354	 -0.141063
H	 -4.025645	 -0.823308	 -0.095450
H	 -3.513059	 -0.038752	 1.371301
H	 -4.239342	 1.411634	 -1.223113
H	 -5.243387	 1.322503	 0.212445
H	 -3.726170	 2.201406	 0.256408

	symmetry c1
}
set optking {
	frozen_dihedral = ("
		14 10 7 4,
		14 10 13 16,
		10 7 4 8,
		8 4 3 2,
		20 16 19 22,
		4 3 2 1
	")
}

ee = energy('scf')
oeprop('DIPOLE', 'QUADRUPOLE', 'MULLIKEN_CHARGES')
f=open( 'psi4out.xyz', 'w' )
f.write( "27  " )
f.write( str(ee) + "\n" )
f.write( MOL.save_string_xyz() )
f.close()
--------------------------------------------------------------------------

    Molecular point group: c1

    Geometry (in Angstrom), charge = 0, multiplicity = 1:

       Center              X                  Y                   Z               Mass
    ------------   -----------------  -----------------  -----------------  -----------------
           H         -1.851051060189     0.065794157780     2.060776174732     1.007825032070
           O         -1.394787060189    -0.009509842220     2.886139174732    15.994914619560
           C         -0.546166060189    -1.128922842220     2.857706174732    12.000000000000
           C          0.685048939811    -0.927768842220     1.981137174732    12.000000000000
           H         -0.241705060189    -1.293552842220     3.883315174732     1.007825032070
           H         -1.093960060189    -2.014339842220     2.537178174732     1.007825032070
           C          0.367014939811    -0.732739842220     0.496655174732    12.000000000000
           H          1.235893939811    -0.067500842220     2.352454174732     1.007825032070
           H          1.332242939811    -1.794967842220     2.101442174732     1.007825032070
           C          1.625477939811    -0.587784842220    -0.363622825268    12.000000000000
           H         -0.257109060189     0.148593157780     0.377975174732     1.007825032070
           H         -0.215885060189    -1.580714842220     0.136786174732     1.007825032070
           C          1.366013939811    -0.475337842220    -1.870399825268    12.000000000000
           H          2.189209939811     0.281441157780    -0.029708825268     1.007825032070
           H          2.265899939811    -1.449592842220    -0.187991825268     1.007825032070
           C          0.637967939811     0.799425157780    -2.305608825268    12.000000000000
           H          2.322873939811    -0.521321842220    -2.386268825268     1.007825032070
           H          0.801523939811    -1.344854842220    -2.203758825268     1.007825032070
           C         -0.814021060189     0.850115157780    -1.825405825268    12.000000000000
           H          0.658699939811     0.871542157780    -3.392107825268     1.007825032070
           H          1.162040939811     1.675836157780    -1.932039825268     1.007825032070
           C         -1.541150060189     2.124512157780    -2.253026825268    12.000000000000
           H         -1.349878060189    -0.016149842220    -2.207413825268     1.007825032070
           H         -0.837292060189     0.768406157780    -0.740662825268     1.007825032070
           H         -1.563575060189     2.218792157780    -3.335076825268     1.007825032070
           H         -2.567620060189     2.129661157780    -1.899518825268     1.007825032070
           H         -1.050403060189     3.008564157780    -1.855555825268     1.007825032070

  Charge       = 0
  Multiplicity = 1
  Basis Set: 6-31G*
  Basis Set:

    Orbital Energies (a.u.)
    -----------------------

    Doubly Occupied:

       1A    -20.553103     2A    -11.267039     3A    -11.217964
       4A    -11.216682     5A    -11.216219     6A    -11.215032
       7A    -11.214111     8A    -11.212532     9A    -11.208842
      10A     -1.359677    11A     -1.099966    12A     -1.058059
      13A     -1.010856    14A     -0.951294    15A     -0.891568
      16A     -0.831526    17A     -0.789125    18A     -0.781716
      19A     -0.694254    20A     -0.667324    21A     -0.627716
      22A     -0.612351    23A     -0.602578    24A     -0.588293
      25A     -0.577794    26A     -0.565002    27A     -0.539952
      28A     -0.518885    29A     -0.511260    30A     -0.504776
      31A     -0.495983    32A     -0.476027    33A     -0.463560
      34A     -0.460747    35A     -0.445873    36A     -0.428733
      37A     -0.421441

  @DF-RHF Final Energy:  -388.26189381895648

   => Energetics <=

    Nuclear Repulsion Energy =            478.7328719178597680
    One-Electron Energy =               -1475.3940876921967629
    Two-Electron Energy =                 608.3993219553783547
    DFT Exchange-Correlation Energy =       0.0000000000000000
    Empirical Dispersion Energy =           0.0000000000000000
    PCM Polarization Energy =               0.0000000000000000
    EFP Energy =                            0.0000000000000000
    Total Energy =                       -388.2618938189586970

  Mulliken Charges: (a.u.)
   Center  Symbol    Alpha    Beta     Spin     Total
       1     H     0.27990  0.27990  0.00000  0.44020
       2     O     4.37056  4.37056  0.00000 -0.74113
       3     C     2.99750  2.99750  0.00000  0.00500
       4     C     3.15895  3.15895  0.00000 -0.31790
       5     H     0.41432  0.41432  0.00000  0.17136
       6     H     0.43199  0.43199  0.00000  0.13603
       7     C     3.16481  3.16481  0.00000 -0.32961
       8     H     0.41581  0.41581  0.00000  0.16839
       9     H     0.42497  0.42497  0.00000  0.15006
      10     C     3.15150  3.15150  0.00000 -0.30300
      11     H     0.42168  0.42168  0.00000  0.15664
      12     H     0.42504  0.42504  0.00000  0.14992
      13     C     3.15670  3.15670  0.00000 -0.31341
      14     H     0.42163  0.42163  0.00000  0.15674
      15     H     0.42049  0.42049  0.00000  0.15903
      16     C     3.15192  3.15192  0.00000 -0.30383
      17     H     0.41941  0.41941  0.00000  0.16117
      18     H     0.42404  0.42404  0.00000  0.15193
      19     C     3.14980  3.14980  0.00000 -0.29960
      20     H     0.42077  0.42077  0.00000  0.15846
      21     H     0.42328  0.42328  0.00000  0.15343
      22     C     3.23741  3.23741  0.00000 -0.47481
      23     H     0.42419  0.42419  0.00000  0.15162
      24     H     0.42869  0.42869  0.00000  0.14263
      25     H     0.42194  0.42194  0.00000  0.15612
      26     H     0.42102  0.42102  0.00000  0.15797
      27     H     0.42169  0.42169  0.00000  0.15662

   Total alpha = 37.00000, Total beta = 37.00000, Total charge =  0.00000
