  ==> Input File <==

--------------------------------------------------------------------------
set {
	reference rhf
	basis 6-31G*
}

set_num_threads( 1 )
memory 2 gb

molecule MOL {
0 1

H	 -3.867558	 -0.597160	 0.463529
O	 -3.517110	 -0.026191	 -0.205115
C	 -2.306886	 0.532354	 0.237577
C	 -1.177863	 -0.397191	 -0.171080
H	 -2.156308	 1.517575	 -0.201710
H	 -2.315015	 0.655684	 1.319734
C	 0.198102	 0.111031	 0.262842
H	 -1.208843	 -0.518759	 -1.250427
H	 -1.368741	 -1.376554	 0.258909
C	 1.331804	 -0.827780	 -0.158768
H	 0.361943	 1.100838	 -0.156218
H	 0.217265	 0.229072	 1.345532
C	 2.723619	 -0.410569	 0.329459
H	 1.342964	 -0.912588	 -1.244120
H	 1.116806	 -1.824343	 0.220779
C	 3.243875	 0.895854	 -0.272975
H	 3.424222	 -1.207124	 0.091250
H	 2.714788	 -0.329854	 1.414619
H	 3.251977	 0.848779	 -1.358681
H	 2.637085	 1.747371	 0.016682
H	 4.259473	 1.094070	 0.055697

	symmetry c1
}
set optking {
	frozen_dihedral = ("
		2 3 4 8,
		8 4 7 10,
		4 7 10 14,
		16 13 10 14
	")
}

ee = energy('scf')
oeprop('DIPOLE', 'QUADRUPOLE', 'MULLIKEN_CHARGES')
f=open( 'psi4out.xyz', 'w' )
f.write( "21  " )
f.write( str(ee) + "\n" )
f.write( MOL.save_string_xyz() )
f.close()
--------------------------------------------------------------------------

    Molecular point group: c1

    Geometry (in Angstrom), charge = 0, multiplicity = 1:

       Center              X                  Y                   Z               Mass
    ------------   -----------------  -----------------  -----------------  -----------------
           H         -3.871199415835    -0.585953962492     0.459346303453     1.007825032070
           O         -3.520751415835    -0.014984962492    -0.209297696547    15.994914619560
           C         -2.310527415835     0.543560037508     0.233394303453    12.000000000000
           C         -1.181504415835    -0.385984962492    -0.175262696547    12.000000000000
           H         -2.159949415835     1.528781037508    -0.205892696547     1.007825032070
           H         -2.318656415835     0.666890037508     1.315551303453     1.007825032070
           C          0.194460584165     0.122237037508     0.258659303453    12.000000000000
           H         -1.212484415835    -0.507552962492    -1.254609696547     1.007825032070
           H         -1.372382415835    -1.365347962492     0.254726303453     1.007825032070
           C          1.328162584165    -0.816573962492    -0.162950696547    12.000000000000
           H          0.358301584165     1.112044037508    -0.160400696547     1.007825032070
           H          0.213623584165     0.240278037508     1.341349303453     1.007825032070
           C          2.719977584165    -0.399362962492     0.325276303453    12.000000000000
           H          1.339322584165    -0.901381962492    -1.248302696547     1.007825032070
           H          1.113164584165    -1.813136962492     0.216596303453     1.007825032070
           C          3.240233584165     0.907060037508    -0.277157696547    12.000000000000
           H          3.420580584165    -1.195917962492     0.087067303453     1.007825032070
           H          2.711146584165    -0.318647962492     1.410436303453     1.007825032070
           H          3.248335584165     0.859985037508    -1.362863696547     1.007825032070
           H          2.633443584165     1.758577037508     0.012499303453     1.007825032070
           H          4.255831584165     1.105276037508     0.051514303453     1.007825032070

  Charge       = 0
  Multiplicity = 1
  Basis Set: 6-31G*
  Basis Set:

    Orbital Energies (a.u.)
    -----------------------

    Doubly Occupied:

       1A    -20.551358     2A    -11.268085     3A    -11.216000
       4A    -11.215855     5A    -11.214518     6A    -11.210379
       7A    -11.208691     8A     -1.359498     9A     -1.086959
      10A     -1.033457    11A     -0.954544    12A     -0.877353
      13A     -0.813258    14A     -0.779439    15A     -0.698799
      16A     -0.648514    17A     -0.619718    18A     -0.609024
      19A     -0.589560    20A     -0.572196    21A     -0.540063
      22A     -0.529570    23A     -0.500959    24A     -0.494326
      25A     -0.474888    26A     -0.467120    27A     -0.460695
      28A     -0.456569    29A     -0.416777

  @DF-RHF Final Energy:  -310.21061304224918

   => Energetics <=

    Nuclear Repulsion Energy =            312.8324497186132476
    One-Electron Energy =               -1040.3499362997865774
    Two-Electron Energy =                 417.3068735389242647
    DFT Exchange-Correlation Energy =       0.0000000000000000
    Empirical Dispersion Energy =           0.0000000000000000
    PCM Polarization Energy =               0.0000000000000000
    EFP Energy =                            0.0000000000000000
    Total Energy =                       -310.2106130422490651

  Mulliken Charges: (a.u.)
   Center  Symbol    Alpha    Beta     Spin     Total
       1     H     0.28063  0.28063  0.00000  0.43875
       2     O     4.37068  4.37068  0.00000 -0.74137
       3     C     2.99642  2.99642  0.00000  0.00715
       4     C     3.15621  3.15621  0.00000 -0.31242
       5     H     0.41795  0.41795  0.00000  0.16410
       6     H     0.43180  0.43180  0.00000  0.13639
       7     C     3.16312  3.16312  0.00000 -0.32624
       8     H     0.41405  0.41405  0.00000  0.17190
       9     H     0.42696  0.42696  0.00000  0.14607
      10     C     3.15131  3.15131  0.00000 -0.30262
      11     H     0.42074  0.42074  0.00000  0.15852
      12     H     0.42541  0.42541  0.00000  0.14919
      13     C     3.15237  3.15237  0.00000 -0.30474
      14     H     0.42284  0.42284  0.00000  0.15432
      15     H     0.42228  0.42228  0.00000  0.15544
      16     C     3.24123  3.24123  0.00000 -0.48247
      17     H     0.42080  0.42080  0.00000  0.15841
      18     H     0.42385  0.42385  0.00000  0.15231
      19     H     0.42180  0.42180  0.00000  0.15639
      20     H     0.42039  0.42039  0.00000  0.15923
      21     H     0.41915  0.41915  0.00000  0.16170

   Total alpha = 29.00000, Total beta = 29.00000, Total charge =  0.00000
