  ==> Input File <==

--------------------------------------------------------------------------
set {
	reference rhf
	basis cc-pvtz
}

set_num_threads( 4 )
memory 2 gb

molecule MOL {
0 1

H	 -2.698799	 -0.000846	 0.036018
C	 -1.694291	 -0.000483	 0.434279
O	 -0.828718	 -0.000608	 -0.655022
H	 -1.576855	 0.881100	 1.056504
H	 -1.576401	 -0.881658	 1.057001
C	 0.557892	 0.000078	 -0.420099
C	 0.945170	 -0.824467	 0.802363
C	 1.361610	 -0.385631	 -1.656835
H	 0.770848	 1.038475	 -0.198738
H	 0.330270	 -0.551736	 1.651229
H	 1.981480	 -0.637106	 1.058689
H	 0.839302	 -1.889053	 0.629070
H	 1.035574	 0.191477	 -2.513393
H	 2.413089	 -0.182427	 -1.489886
H	 1.266700	 -1.438534	 -1.895433

	symmetry c1
}
set optking {
	frozen_dihedral = ("
		9 6 3 2
	")
}

ee = optimize('scf')
oeprop('DIPOLE', 'QUADRUPOLE', 'MULLIKEN_CHARGES')
f=open( 'psi4out.xyz', 'w' )
f.write( "15  " )
f.write( str(ee) + "\n" )
f.write( MOL.save_string_xyz() )
f.close()
--------------------------------------------------------------------------

    Molecular point group: c1
  Charge       = 0
  Multiplicity = 1
  Basis Set: CC-PVTZ
  Basis Set:
  @DF-RHF Final Energy:  -232.22155636860123
    Total Energy =                       -232.2215563686012274
    Molecular point group: c1
  Basis Set: CC-PVTZ
  Basis Set:
  Basis Set: CC-PVTZ
  Basis Set:
  @DF-RHF Final Energy:  -232.22521275301708
    Total Energy =                       -232.2252127530171038
  Basis Set: CC-PVTZ
  Basis Set:
  Basis Set: CC-PVTZ
  Basis Set:
  @DF-RHF Final Energy:  -232.22708324431699
    Total Energy =                       -232.2270832443171003
  Basis Set: CC-PVTZ
  Basis Set:
  Basis Set: CC-PVTZ
  Basis Set:
  @DF-RHF Final Energy:  -232.22713468985651
    Total Energy =                       -232.2271346898563706
  Basis Set: CC-PVTZ
  Basis Set:
  Basis Set: CC-PVTZ
  Basis Set:
  @DF-RHF Final Energy:  -232.22718969707512
    Total Energy =                       -232.2271896970752323
  Basis Set: CC-PVTZ
  Basis Set:
  Basis Set: CC-PVTZ
  Basis Set:
  @DF-RHF Final Energy:  -232.22719294719346
    Total Energy =                       -232.2271929471935437
  Basis Set: CC-PVTZ
  Basis Set:
  Charge       = 0
  Multiplicity = 1
  Basis Set: CC-PVTZ
  Basis Set:

    Orbital Energies (a.u.)
    -----------------------

    Doubly Occupied:

       1A    -20.543002     2A    -11.273084     3A    -11.259917
       4A    -11.211405     5A    -11.203525     6A     -1.375749
       7A     -1.054145     8A     -0.948990     9A     -0.913368
      10A     -0.787891    11A     -0.677859    12A     -0.642173
      13A     -0.633905    14A     -0.593617    15A     -0.550384
      16A     -0.543503    17A     -0.525901    18A     -0.500313
      19A     -0.496079    20A     -0.451336    21A     -0.409229

  @DF-RHF Final Energy:  -232.22719330067693

   => Energetics <=

    Nuclear Repulsion Energy =            198.1829228224280826
    One-Electron Energy =                -707.6294838771655122
    Two-Electron Energy =                 277.2193677540604995
    DFT Exchange-Correlation Energy =       0.0000000000000000
    Empirical Dispersion Energy =           0.0000000000000000
    PCM Polarization Energy =               0.0000000000000000
    EFP Energy =                            0.0000000000000000
    Total Energy =                       -232.2271933006769586
    Molecular point group: c1
  Basis Set: CC-PVTZ
  Basis Set:

  -Total Gradient:
     Atom            X                  Y                   Z
    ------   -----------------  -----------------  -----------------
       1        0.000000808116    -0.000004970375    -0.000011872988
       2        0.000215300261    -0.003953391958     0.000237192063
       3       -0.000064221387     0.005965055697    -0.001409012735
       4        0.000004134181     0.000006031771     0.000006989008
       5        0.000005297455     0.000003790032    -0.000019214413
       6       -0.001134915381    -0.002604709547     0.005746320602
       7       -0.000015577309    -0.000002326941     0.000022392240
       8       -0.000006295917     0.000002770753    -0.000022918309
       9        0.001003966089     0.000588085201    -0.004532970964
      10        0.000005522533    -0.000006903125     0.000008801686
      11       -0.000015203917     0.000009223423    -0.000013718842
      12        0.000001361165    -0.000009081867     0.000002263787
      13        0.000003818523    -0.000007079186    -0.000024642658
      14       -0.000008304705     0.000005950374     0.000002101640
      15        0.000004310294     0.000007555748     0.000008289884

  **** Optimization is complete! (in 7 steps) ****
    Final optimized geometry and variables:
    Molecular point group: c1

    Geometry (in Angstrom), charge = 0, multiplicity = 1:

    H           -2.753876881336     0.273367907987     0.197608376017
    C           -1.772634656847     0.207646831943     0.645805956816
    O           -0.849935299361     0.194197557396    -0.392894873045
    H           -1.637537844716     1.067261546419     1.299736722993
    H           -1.731019017793    -0.693742329338     1.247479218745
    C            0.516532308841     0.288105534662    -0.078215782963
    C            0.945329186992    -0.553238135334     1.116192902462
    C            1.261923186863    -0.119244607326    -1.339020782272
    H            0.751235851056     1.336143342476     0.110540219347
    H            0.490400055099    -0.223056911580     2.040857116890
    H            2.019396262687    -0.480681482368     1.237050646248
    H            0.692504401813    -1.596600863794     0.961825123675
    H            0.921067426109     0.471417994632    -2.179362878705
    H            2.328650255261     0.032342676359    -1.220666767108
    H            1.083089065255    -1.164209731468    -1.564566597847

  Mulliken Charges: (a.u.)
   Center  Symbol    Alpha    Beta     Spin     Total
       1     H     0.44319  0.44319  0.00000  0.11362
       2     C     3.03986  3.03986  0.00000 -0.07973
       3     O     4.18167  4.18167  0.00000 -0.36334
       4     H     0.47139  0.47139  0.00000  0.05721
       5     H     0.46813  0.46813  0.00000  0.06373
       6     C     2.92239  2.92239  0.00000  0.15521
       7     C     3.16594  3.16594  0.00000 -0.33188
       8     C     3.14052  3.14052  0.00000 -0.28105
       9     H     0.46310  0.46310  0.00000  0.07380
      10     H     0.44706  0.44706  0.00000  0.10589
      11     H     0.44587  0.44587  0.00000  0.10825
      12     H     0.44980  0.44980  0.00000  0.10039
      13     H     0.44607  0.44607  0.00000  0.10785
      14     H     0.45965  0.45965  0.00000  0.08070
      15     H     0.45533  0.45533  0.00000  0.08934

   Total alpha = 21.00000, Total beta = 21.00000, Total charge =  0.00000
