  ==> Input File <==

--------------------------------------------------------------------------
set {
	reference rhf
	basis 6-31G*
}

set_num_threads( 4 )
memory 2 gb

molecule MOL {
0 1

O	 0.027665	 0.892735	 -1.730975
C	 -0.612703	 1.034101	 -0.739907
C	 -1.491054	 2.218964	 -0.441671
O	 -0.632575	 0.154573	 0.251549
H	 -1.156211	 2.703217	 0.468453
H	 -1.453425	 2.914878	 -1.266367
H	 -2.510540	 1.887783	 -0.281279
C	 0.160891	 -1.019931	 0.106212
C	 1.589627	 -0.672828	 0.480843
H	 0.089836	 -1.367806	 -0.916050
H	 -0.238459	 -1.792301	 0.749618
C	 2.246377	 0.346236	 -0.452210
H	 2.163194	 -1.597435	 0.473358
H	 1.604769	 -0.303424	 1.502885
C	 3.691736	 0.652107	 -0.061850
H	 2.219579	 -0.032311	 -1.472055
H	 1.666466	 1.263317	 -0.447249
H	 4.134505	 1.377213	 -0.737283
H	 4.305508	 -0.243868	 -0.089969
H	 3.748266	 1.059562	 0.943567

	symmetry c1
}
set optking {
	frozen_dihedral = ("
		2 4 8 10
	")
}

ee = optimize('scf')
oeprop('DIPOLE', 'QUADRUPOLE', 'MULLIKEN_CHARGES')
f=open( 'psi4out.xyz', 'w' )
f.write( "20  " )
f.write( str(ee) + "\n" )
f.write( MOL.save_string_xyz() )
f.close()
--------------------------------------------------------------------------

    Molecular point group: c1
  Charge       = 0
  Multiplicity = 1
  Basis Set: 6-31G*
  Basis Set:
  @DF-RHF Final Energy:  -383.92816878063917
    Total Energy =                       -383.9281687806394530
    Molecular point group: c1
  Basis Set: 6-31G*
  Basis Set:
  Basis Set: 6-31G*
  Basis Set:
  @DF-RHF Final Energy:  -383.93655570307908
    Total Energy =                       -383.9365557030793070
  Basis Set: 6-31G*
  Basis Set:
  Basis Set: 6-31G*
  Basis Set:
  @DF-RHF Final Energy:  -383.94003066534276
    Total Energy =                       -383.9400306653427606
  Basis Set: 6-31G*
  Basis Set:
  Basis Set: 6-31G*
  Basis Set:
  @DF-RHF Final Energy:  -383.93932753185948
    Total Energy =                       -383.9393275318594760
  Basis Set: 6-31G*
  Basis Set:
  @DF-RHF Final Energy:  -383.94150785318044
    Total Energy =                       -383.9415078531802692
  @DF-RHF Final Energy:  -383.94181289607479
    Total Energy =                       -383.9418128960752483
  Basis Set: 6-31G*
  Basis Set:
  @DF-RHF Final Energy:  -383.94183431822916
    Total Energy =                       -383.9418343182292119
  Basis Set: 6-31G*
  Basis Set:
  Basis Set: 6-31G*
  Basis Set:
  @DF-RHF Final Energy:  -383.94182797650302
    Total Energy =                       -383.9418279765029638
  Basis Set: 6-31G*
  Basis Set:
  Basis Set: 6-31G*
  Basis Set:
  @DF-RHF Final Energy:  -383.94183877525688
    Total Energy =                       -383.9418387752566559
  Basis Set: 6-31G*
  Basis Set:
  Charge       = 0
  Multiplicity = 1
  Basis Set: 6-31G*
  Basis Set:

    Orbital Energies (a.u.)
    -----------------------

    Doubly Occupied:

       1A    -20.601032     2A    -20.543629     3A    -11.375430
       4A    -11.283546     5A    -11.233010     6A    -11.224289
       7A    -11.214322     8A    -11.209115     9A     -1.465833
      10A     -1.362440    11A     -1.080954    12A     -1.027973
      13A     -0.979795    14A     -0.888120    15A     -0.808332
      16A     -0.762278    17A     -0.693167    18A     -0.682113
      19A     -0.662496    20A     -0.626668    21A     -0.599745
      22A     -0.593680    23A     -0.570879    24A     -0.549219
      25A     -0.546129    26A     -0.527435    27A     -0.506117
      28A     -0.496379    29A     -0.471226    30A     -0.465101
      31A     -0.442882    32A     -0.434367

  @DF-RHF Final Energy:  -383.94183900191814

   => Energetics <=

    Nuclear Repulsion Energy =            394.6089423673035412
    One-Electron Energy =               -1305.2461600256083329
    Two-Electron Energy =                 526.6953786563866515
    DFT Exchange-Correlation Energy =       0.0000000000000000
    Empirical Dispersion Energy =           0.0000000000000000
    PCM Polarization Energy =               0.0000000000000000
    EFP Energy =                            0.0000000000000000
    Total Energy =                       -383.9418390019180833
    Molecular point group: c1
  Basis Set: 6-31G*
  Basis Set:

  -Total Gradient:
     Atom            X                  Y                   Z
    ------   -----------------  -----------------  -----------------
       1       -0.000014952314     0.000005676733    -0.000005813475
       2        0.002875770978     0.002149262039     0.001458980358
       3        0.000029792507     0.000009684050     0.000019420364
       4       -0.004974954607    -0.003839050215    -0.001795103262
       5       -0.000011695536    -0.000008843671     0.000002078553
       6       -0.000000696824    -0.000004462617    -0.000005580175
       7       -0.000007649640    -0.000006786218    -0.000009644912
       8        0.005257557830     0.004441196651    -0.000986061281
       9       -0.000015378597     0.000000079560     0.000016456789
      10       -0.003155065738    -0.002747797244     0.001320035287
      11        0.000004639140     0.000003611677    -0.000002287831
      12        0.000025533329    -0.000032697663    -0.000002116762
      13       -0.000002904926     0.000007166406    -0.000003560433
      14       -0.000006569273    -0.000002371449     0.000005444171
      15        0.000005271841     0.000010183847     0.000006608731
      16       -0.000003519386    -0.000011485422    -0.000008176824
      17       -0.000004097949     0.000021491564    -0.000007954640
      18        0.000001874911     0.000008814807     0.000000687285
      19       -0.000002140075     0.000002278920    -0.000010578577
      20       -0.000000815667    -0.000005951753     0.000007166635

  **** Optimization is complete! (in 10 steps) ****
    Final optimized geometry and variables:
    Molecular point group: c1

    Geometry (in Angstrom), charge = 0, multiplicity = 1:

    O           -0.884011058747     0.472141244484    -1.514710172950
    C           -1.403017367427     0.586443565280    -0.451762713669
    C           -2.326489269201     1.710381809904    -0.065007089495
    O           -1.258683674777    -0.275635431093     0.544935615832
    H           -1.917695078838     2.242541395150     0.786303761759
    H           -2.446913866554     2.384390907329    -0.899922079052
    H           -3.288416784301     1.308330305259     0.230960195693
    C           -0.360205908388    -1.375337656765     0.406096313872
    C            1.069370251781    -1.056351168352     0.821210722431
    H           -0.436685422039    -1.775869118004    -0.594436240009
    H           -0.759940610892    -2.115542748537     1.085936111793
    C            1.870151831769    -0.120602402365    -0.087275065646
    H            1.585946775902    -2.012959316488     0.883410922718
    H            1.046472545263    -0.656591122742     1.832344046352
    C            3.323784420899     0.004811456329     0.369391135193
    H            1.834423599341    -0.484723880725    -1.108984109749
    H            1.415592417590     0.863634088592    -0.103099149318
    H            3.877385400530     0.680489132764    -0.274767365976
    H            3.828237608182    -0.957402770393     0.350166443599
    H            3.387102849231     0.389512220138     1.383760614306

  Mulliken Charges: (a.u.)
   Center  Symbol    Alpha    Beta     Spin     Total
       1     O     4.28504  4.28504  0.00000 -0.57008
       2     C     2.61684  2.61684  0.00000  0.76631
       3     C     3.28154  3.28154  0.00000 -0.56307
       4     O     4.31041  4.31041  0.00000 -0.62082
       5     H     0.40124  0.40124  0.00000  0.19753
       6     H     0.39727  0.39727  0.00000  0.20545
       7     H     0.39991  0.39991  0.00000  0.20018
       8     C     3.00609  3.00609  0.00000 -0.01219
       9     C     3.16581  3.16581  0.00000 -0.33162
      10     H     0.40351  0.40351  0.00000  0.19299
      11     H     0.41005  0.41005  0.00000  0.17989
      12     C     3.15155  3.15155  0.00000 -0.30310
      13     H     0.42057  0.42057  0.00000  0.15887
      14     H     0.41609  0.41609  0.00000  0.16782
      15     C     3.24184  3.24184  0.00000 -0.48367
      16     H     0.41195  0.41195  0.00000  0.17610
      17     H     0.41820  0.41820  0.00000  0.16359
      18     H     0.41670  0.41670  0.00000  0.16660
      19     H     0.42262  0.42262  0.00000  0.15475
      20     H     0.42277  0.42277  0.00000  0.15447

   Total alpha = 32.00000, Total beta = 32.00000, Total charge = -0.00000
