  ==> Input File <==

--------------------------------------------------------------------------
set {
	reference rhf
	basis 6-31G*
}

set_num_threads( 4 )
memory 2 gb

molecule MOL {
0 1

H	 -2.153054	 -2.250733	 0.000000
O	 -2.462445	 -1.355403	 0.000000
C	 -1.434260	 -0.483044	 0.000000
C	 -0.196358	 -0.955914	 0.422732
C	 -1.572848	 0.833148	 -0.397925
H	 -0.112588	 -1.982162	 0.727279
C	 0.893346	 -0.110003	 0.444559
H	 -2.524269	 1.211430	 -0.726947
C	 -0.463418	 1.674469	 -0.370179
H	 1.846192	 -0.483015	 0.772454
C	 0.773713	 1.214862	 0.048691
C	 -0.616587	 3.050125	 -0.788041
H	 1.619483	 1.875166	 0.064589
N	 -0.739468	 4.130713	 -1.116878

	symmetry c1
}
set optking {
	frozen_dihedral = ("
		5 3 2 1
	")
}

ee = optimize('scf')
oeprop('DIPOLE', 'QUADRUPOLE', 'MULLIKEN_CHARGES')
f=open( 'psi4out.xyz', 'w' )
f.write( "14  " )
f.write( str(ee) + "\n" )
f.write( MOL.save_string_xyz() )
f.close()
--------------------------------------------------------------------------

    Molecular point group: c1
  Charge       = 0
  Multiplicity = 1
  Basis Set: 6-31G*
  Basis Set:
  @DF-RHF Final Energy:  -397.28871740207529
    Total Energy =                       -397.2887174020752354
    Molecular point group: c1
  Basis Set: 6-31G*
  Basis Set:
  Basis Set: 6-31G*
  Basis Set:
  @DF-RHF Final Energy:  -396.86147353310315
    Total Energy =                       -396.8614735331033216
  Basis Set: 6-31G*
  Basis Set:
  Basis Set: 6-31G*
  Basis Set:
  @DF-RHF Final Energy:  -396.87499877801940
    Total Energy =                       -396.8749987780192896
  Basis Set: 6-31G*
  Basis Set:
  Basis Set: 6-31G*
  Basis Set:
  @DF-RHF Final Energy:  -396.91007315400611
    Total Energy =                       -396.9100731540063407
  Basis Set: 6-31G*
  Basis Set:
  @DF-RHF Final Energy:  -396.96028629865424
    Total Energy =                       -396.9602862986542391
  @DF-RHF Final Energy:  -396.87921653532089
    Total Energy =                       -396.8792165353210066
  @DF-RHF Final Energy:  -397.10893349746550
    Total Energy =                       -397.1089334974652729
  @DF-RHF Final Energy:  -397.17442786846738
    Total Energy =                       -397.1744278684677738
  @DF-RHF Final Energy:  -397.22007250259855
    Total Energy =                       -397.2200725025990096
  @DF-RHF Final Energy:  -397.26047946163914
    Total Energy =                       -397.2604794616391928
  @DF-RHF Final Energy:  -397.27479303447205
    Total Energy =                       -397.2747930344720544
  @DF-RHF Final Energy:  -397.27749598820185
    Total Energy =                       -397.2774959882019061
  @DF-RHF Final Energy:  -397.28944095881025
    Total Energy =                       -397.2894409588102462
  @DF-RHF Final Energy:  -397.29081886206524
    Total Energy =                       -397.2908188620649526
  @DF-RHF Final Energy:  -397.00256667406086
    Total Energy =                       -397.0025666740605743
  @DF-RHF Final Energy:  -397.04016021854062
    Total Energy =                       -397.0401602185401089
  @DF-RHF Final Energy:  -397.17146516971951
    Total Energy =                       -397.1714651697195109
  @DF-RHF Final Energy:  -397.02281633655400
    Total Energy =                       -397.0228163365538876
  @DF-RHF Final Energy:  -396.95298393352692
    Total Energy =                       -396.9529839335265819
  @DF-RHF Final Energy:  -397.12970565787168
    Total Energy =                       -397.1297056578717957
  @DF-RHF Final Energy:  -397.29067777482516
    Total Energy =                       -397.2906777748255536
  @DF-RHF Final Energy:  -397.29101187703202
    Total Energy =                       -397.2910118770320196
  @DF-RHF Final Energy:  -397.29100199706107
    Total Energy =                       -397.2910019970615849
  @DF-RHF Final Energy:  -397.29100259173100
    Total Energy =                       -397.2910025917309440
  @DF-RHF Final Energy:  -397.29104772672486
    Total Energy =                       -397.2910477267248552
  @DF-RHF Final Energy:  -397.29105474917162
    Total Energy =                       -397.2910547491713942
  @DF-RHF Final Energy:  -397.29105531653130
    Total Energy =                       -397.2910553165311285
  @DF-RHF Final Energy:  -397.29104242063067
    Total Energy =                       -397.2910424206307880
  @DF-RHF Final Energy:  -397.29102781496493
    Total Energy =                       -397.2910278149652186
  @DF-RHF Final Energy:  -397.29104480349395
    Total Energy =                       -397.2910448034939463
  @DF-RHF Final Energy:  -397.29106613807824
    Total Energy =                       -397.2910661380781221
  @DF-RHF Final Energy:  -397.29105288828629
    Total Energy =                       -397.2910528882864583
  @DF-RHF Final Energy:  -397.29101672791995
    Total Energy =                       -397.2910167279195548
  @DF-RHF Final Energy:  -397.29105927036181
    Total Energy =                       -397.2910592703617567
  @DF-RHF Final Energy:  -397.29106048633184
    Total Energy =                       -397.2910604863316166
  @DF-RHF Final Energy:  -397.29105992676182
    Total Energy =                       -397.2910599267623866
  Basis Set: 6-31G*
  Basis Set:
  @DF-RHF Final Energy:  -397.29106082307862
    Total Energy =                       -397.2910608230789649
  Basis Set: 6-31G*
  Basis Set:
  Basis Set: 6-31G*
  Basis Set:
  @DF-RHF Final Energy:  -397.29105851648364
    Total Energy =                       -397.2910585164834174
  Basis Set: 6-31G*
  Basis Set:
  Basis Set: 6-31G*
  Basis Set:
  @DF-RHF Final Energy:  -397.29101827876741
    Total Energy =                       -397.2910182787672966
  Basis Set: 6-31G*
  Basis Set:
  Charge       = 0
  Multiplicity = 1
  Basis Set: 6-31G*
  Basis Set:

    Orbital Energies (a.u.)
    -----------------------

    Doubly Occupied:

       1A    -20.611259     2A    -15.573717     3A    -11.325161
       4A    -11.293400     5A    -11.274880     6A    -11.264209
       7A    -11.259608     8A    -11.259083     9A    -11.258868
      10A     -1.431639    11A     -1.231377    12A     -1.182235
      13A     -1.062717    14A     -1.039955    15A     -0.898330
      16A     -0.857696    17A     -0.793230    18A     -0.713965
      19A     -0.692041    20A     -0.672290    21A     -0.629875
      22A     -0.617444    23A     -0.587249    24A     -0.564063
      25A     -0.547011    26A     -0.538409    27A     -0.522781
      28A     -0.473617    29A     -0.470965    30A     -0.362556
      31A     -0.338562

  @DF-RHF Final Energy:  -397.29101681575116

   => Energetics <=

    Nuclear Repulsion Energy =            379.3738187004258862
    One-Electron Energy =               -1290.6332885216445447
    Two-Electron Energy =                 513.9684530054671541
    DFT Exchange-Correlation Energy =       0.0000000000000000
    Empirical Dispersion Energy =           0.0000000000000000
    PCM Polarization Energy =               0.0000000000000000
    EFP Energy =                            0.0000000000000000
    Total Energy =                       -397.2910168157515045
    Molecular point group: c1
  Basis Set: 6-31G*
  Basis Set:

  -Total Gradient:
     Atom            X                  Y                   Z
    ------   -----------------  -----------------  -----------------
       1       -0.000123635263     0.000568719790    -0.001761195729
       2        0.000382034533    -0.000576585837     0.001722379222
       3       -0.000476564701     0.001072286906     0.000702402802
       4        0.000180299953     0.000869921012     0.000510030906
       5        0.000741797600    -0.001271414702    -0.000037998444
       6        0.000094084784    -0.000526620045    -0.000183073067
       7       -0.000657488772     0.000102347639    -0.000303560135
       8       -0.000066232431     0.000064616618    -0.000364369979
       9       -0.000986880923    -0.000850524144    -0.000012521163
      10        0.000018992075    -0.000002389442     0.000042927155
      11       -0.000484255959    -0.000118243876    -0.000031873944
      12        0.002928886916     0.000262038988    -0.000569441759
      13       -0.000020836904     0.000124498255    -0.000076650724
      14       -0.001530200907     0.000281348849     0.000362944860

    Molecular point group: c1

    Geometry (in Angstrom), charge = 0, multiplicity = 1:

    H           -1.557260044038    -3.031012240381     0.160783254642
    O           -1.801181185813    -2.116307749923     0.160780577523
    C           -0.709628879980    -1.321871365090     0.197163210955
    C            0.526844888429    -1.771482757545     0.634521723191
    C           -0.863584700753    -0.009824368606    -0.218248765550
    H            0.642965937630    -2.792769311179     0.956137610693
    C            1.610426732148    -0.908786265919     0.654862585744
    H           -1.821941757773     0.326968784704    -0.564403141733
    C            0.228029026197     0.843955069469    -0.184076795011
    H            2.565041158940    -1.267242438308     0.993815397292
    C            1.473494744608     0.404793785502     0.250136236026
    C            0.064294482129     2.217063502394    -0.610194243795
    H            2.308213353684     1.079307787788     0.266485158432
    N           -0.093016513328     3.294506713223    -0.934697814545

  Mulliken Charges: (a.u.)
   Center  Symbol    Alpha    Beta     Spin     Total
       1     H     0.26906  0.26906  0.00000  0.46188
       2     O     4.37666  4.37666  0.00000 -0.75332
       3     C     2.79540  2.79540  0.00000  0.40920
       4     C     3.13217  3.13217  0.00000 -0.26434
       5     C     3.11111  3.11111  0.00000 -0.22221
       6     H     0.39492  0.39492  0.00000  0.21016
       7     C     3.09517  3.09517  0.00000 -0.19034
       8     H     0.37315  0.37315  0.00000  0.25371
       9     C     2.99326  2.99326  0.00000  0.01349
      10     H     0.38896  0.38896  0.00000  0.22208
      11     C     3.09888  3.09888  0.00000 -0.19776
      12     C     2.86515  2.86515  0.00000  0.26971
      13     H     0.38152  0.38152  0.00000  0.23696
      14     N     3.72461  3.72461  0.00000 -0.44922

   Total alpha = 31.00000, Total beta = 31.00000, Total charge =  0.00000
