                              Psi4 1.0.54 Driver

  ==> Input File <==

--------------------------------------------------------------------------
set {
	reference rhf
	basis cc-pvtz
}

set_num_threads( 4 )
memory 2 gb

molecule MOL {
0 1

H	 -3.484446	 -0.266839	 -0.773767
O	 -3.104611	 -0.225977	 0.085542
C	 -1.772515	 -0.082671	 0.024055
C	 -1.093149	 -0.009586	 -1.185721
C	 -1.080807	 -0.008258	 1.221630
H	 -1.636746	 -0.068065	 -2.110658
C	 0.273613	 0.137449	 -1.191684
H	 -1.623869	 -0.066680	 2.143417
C	 0.287700	 0.138965	 1.198353
H	 0.809401	 0.195089	 -2.118354
C	 0.981121	 0.213562	 0.000000
H	 0.825348	 0.196804	 2.126850
C	 2.447402	 0.371303	 0.000000
O	 3.227427	 -0.521847	 0.000000
H	 2.796538	 1.409525	 0.000000

	symmetry c1
}
set optking {
	frozen_dihedral = ("
		7 11 13 14
	")
}

ee,wfn = optimize('scf', return_wfn=True)
oeprop( wfn, 'DIPOLE', 'QUADRUPOLE', 'MULLIKEN_CHARGES')
f=open( 'psi4out.xyz', 'w' )
f.write( "15  " )
f.write( str(ee) + "\n" )
f.write( MOL.save_string_xyz() )
f.close()
--------------------------------------------------------------------------

    Molecular point group: c1
  Charge       = 0
  Multiplicity = 1
  Basis Set: CC-PVTZ
  Basis Set:
  @DF-RHF Final Energy:  -418.42638888899938
    Total Energy =                       -418.4263888889993268
    Molecular point group: c1
  Basis Set: CC-PVTZ
  Basis Set:
  Basis Set: CC-PVTZ
  Basis Set:
  @DF-RHF Final Energy:  -418.42705527826610
    Total Energy =                       -418.4270552782658115
  Basis Set: CC-PVTZ
  Basis Set:
  Basis Set: CC-PVTZ
  Basis Set:
  @DF-RHF Final Energy:  -418.42708341383513
    Total Energy =                       -418.4270834138349073
  Basis Set: CC-PVTZ
  Basis Set:
  Basis Set: CC-PVTZ
  Basis Set:
  @DF-RHF Final Energy:  -418.42703084057553
    Total Energy =                       -418.4270308405760943
  Basis Set: CC-PVTZ
  Basis Set:
  Basis Set: CC-PVTZ
  Basis Set:
  @DF-RHF Final Energy:  -418.42709215211050
    Total Energy =                       -418.4270921521106175
  Basis Set: CC-PVTZ
  Basis Set:
  Charge       = 0
  Multiplicity = 1
  Basis Set: CC-PVTZ
  Basis Set:

    Orbital Energies (a.u.)
    -----------------------

    Doubly Occupied:

       1A    -20.596116     2A    -20.562059     3A    -11.330956
       4A    -11.310965     5A    -11.252572     6A    -11.250777
       7A    -11.242473     8A    -11.240390     9A    -11.234949
      10A     -1.427751    11A     -1.415977    12A     -1.172425
      13A     -1.041151    14A     -1.038483    15A     -0.890073
      16A     -0.863102    17A     -0.803850    18A     -0.756485
      19A     -0.710782    20A     -0.680284    21A     -0.659770
      22A     -0.631018    23A     -0.607539    24A     -0.607101
      25A     -0.594745    26A     -0.565114    27A     -0.534001
      28A     -0.505058    29A     -0.499091    30A     -0.425492
      31A     -0.358378    32A     -0.328118

  @DF-RHF Final Energy:  -418.42709274315905

   => Energetics <=

    Nuclear Repulsion Energy =            401.0666370037506567
    One-Electron Energy =               -1364.7133741490397369
    Two-Electron Energy =                 545.2196444021301431
    DFT Exchange-Correlation Energy =       0.0000000000000000
    Empirical Dispersion Energy =           0.0000000000000000
    PCM Polarization Energy =               0.0000000000000000
    EFP Energy =                            0.0000000000000000
    Total Energy =                       -418.4270927431589371
    Molecular point group: c1
  Basis Set: CC-PVTZ
  Basis Set:

  -Total Gradient:
     Atom            X                  Y                   Z
    ------   -----------------  -----------------  -----------------
       1        0.000005640711     0.000007073046    -0.000001215750
       2       -0.000026611719    -0.000027549427    -0.000011279533
       3        0.000038753427     0.000042063203     0.000149423522
       4        0.000072421428     0.000010338218    -0.000054318381
       5       -0.000166253426    -0.000021670154    -0.000083697327
       6        0.000000757274     0.000001500145     0.000001005002
       7       -0.000057797029     0.000147595968    -0.000070431104
       8        0.000018246339     0.000006833967     0.000010039106
       9        0.000164876750    -0.000018867192    -0.000092634030
      10       -0.000010383820     0.000006073109     0.000007114677
      11       -0.000035076156    -0.000238818899     0.000294797911
      12       -0.000019432091     0.000003209832     0.000003312734
      13        0.000083153336     0.000022649616    -0.000436538809
      14       -0.000053235978     0.000053831169     0.000262552658
      15       -0.000015059046     0.000005737397     0.000021869325

  **** Optimization is complete! (in 6 steps) ****
    Final optimized geometry and variables:
    Molecular point group: c1

    Geometry (in Angstrom), charge = 0, multiplicity = 1:

    H           -3.496734692731    -0.267767572223    -0.785087167410
    O           -3.118705851543    -0.216004648556     0.074186397454
    C           -1.781404095515    -0.072057358521     0.008983011798
    C           -1.099215514048     0.001403842821    -1.190822490592
    C           -1.085997208804     0.003454998142     1.204199672572
    H           -1.634066070093    -0.059194064739    -2.120900509926
    C            0.275002262272     0.149253634113    -1.193050977305
    H           -1.626652409089    -0.057729079852     2.127720910321
    C            0.282969055930     0.151153576778     1.189566637548
    H            0.794271160460     0.199838575644    -2.131641292066
    C            0.978237444243     0.220938311017    -0.007440586500
    H            0.813493450002     0.203967712287     2.121786360345
    C            2.468178375924     0.389470928221    -0.013497243504
    O            3.236351514256    -0.507733204135    -0.022600046999
    H            2.832841791262     1.422315157091    -0.006039523488

  Mulliken Charges: (a.u.)
   Center  Symbol    Alpha    Beta     Spin     Total
       1     H     0.38666  0.38666  0.00000  0.22669
       2     O     4.17064  4.17064  0.00000 -0.34127
       3     C     2.85740  2.85740  0.00000  0.28521
       4     C     3.12379  3.12379  0.00000 -0.24758
       5     C     3.09891  3.09891  0.00000 -0.19782
       6     H     0.43229  0.43229  0.00000  0.13543
       7     C     3.08741  3.08741  0.00000 -0.17481
       8     H     0.41715  0.41715  0.00000  0.16571
       9     C     3.07817  3.07817  0.00000 -0.15634
      10     H     0.42138  0.42138  0.00000  0.15724
      11     C     2.95450  2.95450  0.00000  0.09099
      12     H     0.42160  0.42160  0.00000  0.15680
      13     C     2.93580  2.93580  0.00000  0.12840
      14     O     4.15524  4.15524  0.00000 -0.31048
      15     H     0.45908  0.45908  0.00000  0.08184

   Total alpha = 32.00000, Total beta = 32.00000, Total charge = -0.00000

*** Psi4 exiting successfully. Buy a developer a beer!
