  ==> Input File <==

--------------------------------------------------------------------------
set {
	reference rhf
	basis 6-31G*
}

set_num_threads( 4 )
memory 2 gb

molecule MOL {
0 1

O	 0.777062	 2.002247	 0.350618
C	 -0.174557	 2.181891	 1.039959
C	 -1.441121	 1.361345	 1.019629
O	 -0.246271	 3.154255	 1.940148
C	 -1.412532	 0.227344	 -0.000452
H	 -1.598351	 0.981997	 2.025675
H	 -2.266093	 2.042231	 0.828398
C	 -2.706999	 -0.587347	 -0.000541
H	 -0.568674	 -0.422483	 0.209626
H	 -1.236876	 0.639265	 -0.989376
C	 -3.956778	 0.291888	 0.000910
H	 -2.726114	 -1.239230	 -0.871609
H	 -2.725217	 -1.240844	 0.869333
H	 -3.985213	 0.933254	 -0.875158
H	 -4.860123	 -0.309979	 0.000519
H	 -3.984618	 0.931166	 0.878514
C	 0.881547	 4.001817	 2.061832
H	 1.755167	 3.433333	 2.346616
H	 0.632604	 4.715605	 2.831562
H	 1.077267	 4.510245	 1.128718

	symmetry c1
}
set optking {
	frozen_dihedral = ("
		9 5 8 12
	")
}

ee = optimize('scf')
oeprop('DIPOLE', 'QUADRUPOLE', 'MULLIKEN_CHARGES')
f=open( 'psi4out.xyz', 'w' )
f.write( "20  " )
f.write( str(ee) + "\n" )
f.write( MOL.save_string_xyz() )
f.close()
--------------------------------------------------------------------------

    Molecular point group: c1
  Charge       = 0
  Multiplicity = 1
  Basis Set: 6-31G*
  Basis Set:
  @DF-RHF Final Energy:  -383.93687349968491
    Total Energy =                       -383.9368734996849071
    Molecular point group: c1
  Basis Set: 6-31G*
  Basis Set:
  Basis Set: 6-31G*
  Basis Set:
  @DF-RHF Final Energy:  -383.93761949042118
    Total Energy =                       -383.9376194904212980
  Basis Set: 6-31G*
  Basis Set:
  Basis Set: 6-31G*
  Basis Set:
  @DF-RHF Final Energy:  -383.93870106914500
    Total Energy =                       -383.9387010691450541
  Basis Set: 6-31G*
  Basis Set:
  Basis Set: 6-31G*
  Basis Set:
  @DF-RHF Final Energy:  -383.93832031418248
    Total Energy =                       -383.9383203141826471
  Basis Set: 6-31G*
  Basis Set:
  Basis Set: 6-31G*
  Basis Set:
  @DF-RHF Final Energy:  -383.93881102088352
    Total Energy =                       -383.9388110208833496
  Basis Set: 6-31G*
  Basis Set:
  Basis Set: 6-31G*
  Basis Set:
  @DF-RHF Final Energy:  -383.93882638549928
    Total Energy =                       -383.9388263854995103
  Basis Set: 6-31G*
  Basis Set:
  Charge       = 0
  Multiplicity = 1
  Basis Set: 6-31G*
  Basis Set:

    Orbital Energies (a.u.)
    -----------------------

    Doubly Occupied:

       1A    -20.603512     2A    -20.545415     3A    -11.372213
       4A    -11.280784     5A    -11.234947     6A    -11.220680
       7A    -11.219652     8A    -11.212874     9A     -1.469256
      10A     -1.362697    11A     -1.088494    12A     -1.021911
      13A     -0.967397    14A     -0.896464    15A     -0.798926
      16A     -0.762605    17A     -0.701453    18A     -0.683017
      19A     -0.671576    20A     -0.639202    21A     -0.608642
      22A     -0.594301    23A     -0.567862    24A     -0.548505
      25A     -0.537081    26A     -0.522575    27A     -0.509811
      28A     -0.473108    29A     -0.469720    30A     -0.467878
      31A     -0.455573    32A     -0.437806

  @DF-RHF Final Energy:  -383.93882684764446

   => Energetics <=

    Nuclear Repulsion Energy =            385.4375955526212465
    One-Electron Energy =               -1286.8609698147804465
    Two-Electron Energy =                 517.4845474145148501
    DFT Exchange-Correlation Energy =       0.0000000000000000
    Empirical Dispersion Energy =           0.0000000000000000
    PCM Polarization Energy =               0.0000000000000000
    EFP Energy =                            0.0000000000000000
    Total Energy =                       -383.9388268476443500
    Molecular point group: c1
  Basis Set: 6-31G*
  Basis Set:

  -Total Gradient:
     Atom            X                  Y                   Z
    ------   -----------------  -----------------  -----------------
       1        0.000002205336     0.000029441181     0.000021364406
       2       -0.000028869411    -0.000010872650    -0.000023680228
       3        0.000010535338    -0.000004439788    -0.000007476490
       4        0.000034303659    -0.000010401725    -0.000008451744
       5        0.000048043426    -0.000328539872    -0.005186183095
       6       -0.000011622773    -0.000004989549    -0.000018277198
       7       -0.000001776747     0.000003499308    -0.000010205569
       8        0.002276981780    -0.003079215435     0.003418039606
       9       -0.000391068542     0.000752574158     0.003864312244
      10        0.000008291396    -0.000005936216     0.000026588745
      11        0.000013522641    -0.000001892475     0.000026940924
      12       -0.001976742058     0.002659377316    -0.002108167826
      13       -0.000007912680     0.000008777070    -0.000009639988
      14        0.000024973229    -0.000001633606     0.000010670644
      15       -0.000005700754    -0.000010461069    -0.000006693797
      16       -0.000006074445    -0.000014240437    -0.000002918091
      17       -0.000000550358     0.000009243139     0.000015726535
      18        0.000000694481     0.000002483474    -0.000000747577
      19        0.000010739889     0.000007330068    -0.000000152911
      20        0.000000026588    -0.000000102893    -0.000001048584

  **** Optimization is complete! (in 7 steps) ****
    Final optimized geometry and variables:
    Molecular point group: c1

    Geometry (in Angstrom), charge = 0, multiplicity = 1:

    O            1.814505057888     0.356226784848    -0.434793739281
    C            0.854724446613     0.583759101301     0.228657974014
    C           -0.447886928988    -0.178186517626     0.184143792821
    O            0.804627102086     1.567015943803     1.118754808251
    C           -0.438430832014    -1.318721667950    -0.833409954196
    H           -0.639963492010    -0.548574222120     1.188079847213
    H           -1.230944765142     0.544274407025    -0.020009807944
    C           -1.695293645122    -2.198612618630    -0.790730296396
    H            0.428439591878    -1.935109169318    -0.622018108671
    H           -0.302005979960    -0.908821786704    -1.828676399978
    C           -3.021330057496    -1.433677333032    -0.837604606762
    H           -1.669388489820    -2.857998075432    -1.654066942452
    H           -1.673534857107    -2.828992243385     0.094681936843
    H           -3.056620734058    -0.762029057712    -1.691505381341
    H           -3.855277430360    -2.122599884759    -0.927588978356
    H           -3.186293834889    -0.841992094533     0.056871303527
    C            1.966098518086     2.364205661638     1.261774947981
    H            2.806064585104     1.759832318816     1.572772716564
    H            1.730794244449     3.095442155817     2.019346578563
    H            2.207411470124     2.854881992674     0.329830951612

  Mulliken Charges: (a.u.)
   Center  Symbol    Alpha    Beta     Spin     Total
       1     O     4.28588  4.28588  0.00000 -0.57176
       2     C     2.60510  2.60510  0.00000  0.78980
       3     C     3.21116  3.21116  0.00000 -0.42231
       4     O     4.30728  4.30728  0.00000 -0.61457
       5     C     3.15276  3.15276  0.00000 -0.30553
       6     H     0.40142  0.40142  0.00000  0.19715
       7     H     0.39837  0.39837  0.00000  0.20325
       8     C     3.15480  3.15480  0.00000 -0.30961
       9     H     0.40873  0.40873  0.00000  0.18255
      10     H     0.41288  0.41288  0.00000  0.17425
      11     C     3.24494  3.24494  0.00000 -0.48989
      12     H     0.41740  0.41740  0.00000  0.16520
      13     H     0.42138  0.42138  0.00000  0.15724
      14     H     0.42103  0.42103  0.00000  0.15794
      15     H     0.41710  0.41710  0.00000  0.16579
      16     H     0.42071  0.42071  0.00000  0.15859
      17     C     3.09236  3.09236  0.00000 -0.18473
      18     H     0.40912  0.40912  0.00000  0.18176
      19     H     0.40848  0.40848  0.00000  0.18304
      20     H     0.40908  0.40908  0.00000  0.18184

   Total alpha = 32.00000, Total beta = 32.00000, Total charge =  0.00000
