  ==> Input File <==

--------------------------------------------------------------------------
set {
	reference rhf
	basis 6-31G*
}

set_num_threads( 1 )
memory 2 gb

molecule MOL {
0 1

O	 2.966242	 1.186256	 0.603171
C	 2.843464	 0.164689	 -0.000222
C	 1.546494	 -0.624492	 -0.000609
C	 3.984378	 -0.414614	 -0.811320
C	 0.291004	 0.242674	 0.000989
H	 1.557904	 -1.283758	 -0.867573
H	 1.558622	 -1.285963	 0.864672
C	 -0.994322	 -0.586602	 0.000262
H	 0.309117	 0.896430	 -0.865270
H	 0.309661	 0.894078	 0.869017
C	 -2.259874	 0.272531	 0.000494
H	 -1.004862	 -1.240012	 -0.870939
H	 -1.005220	 -1.241071	 0.870675
C	 -3.549786	 -0.549746	 -0.000374
H	 -2.250389	 0.926680	 -0.869574
H	 -2.250838	 0.925513	 0.871430
C	 -4.809590	 0.315458	 -0.000369
H	 -3.560515	 -1.202009	 -0.871156
H	 -3.561123	 -1.202955	 0.869711
H	 -4.844746	 0.956611	 -0.876632
H	 -5.706986	 -0.295590	 -0.001609
H	 -4.845960	 0.954827	 0.877144
H	 3.695432	 -0.515826	 -1.853378
H	 4.848838	 0.230433	 -0.737455
H	 4.240317	 -1.406438	 -0.450191

	symmetry c1
}
set optking {
	frozen_dihedral = ("
		9 5 8 12,
		15 11 8 12,
		15 11 14 18,
		9 5 3 6
	")
}

ee = energy('scf')
oeprop('DIPOLE', 'QUADRUPOLE', 'MULLIKEN_CHARGES')
f=open( 'psi4out.xyz', 'w' )
f.write( "25  " )
f.write( str(ee) + "\n" )
f.write( MOL.save_string_xyz() )
f.close()
--------------------------------------------------------------------------

    Molecular point group: c1

    Geometry (in Angstrom), charge = 0, multiplicity = 1:

       Center              X                  Y                   Z               Mass
    ------------   -----------------  -----------------  -----------------  -----------------
           O          2.970477412002     1.179283187846     0.627765454000    15.994914619560
           C          2.847699412002     0.157716187846     0.024372454000    12.000000000000
           C          1.550729412002    -0.631464812154     0.023985454000    12.000000000000
           C          3.988613412002    -0.421586812154    -0.786725546000    12.000000000000
           C          0.295239412002     0.235701187846     0.025583454000    12.000000000000
           H          1.562139412002    -1.290730812154    -0.842978546000     1.007825032070
           H          1.562857412002    -1.292935812154     0.889266454000     1.007825032070
           C         -0.990086587998    -0.593574812154     0.024856454000    12.000000000000
           H          0.313352412002     0.889457187846    -0.840675546000     1.007825032070
           H          0.313896412002     0.887105187846     0.893611454000     1.007825032070
           C         -2.255638587998     0.265558187846     0.025088454000    12.000000000000
           H         -1.000626587998    -1.246984812154    -0.846344546000     1.007825032070
           H         -1.000984587998    -1.248043812154     0.895269454000     1.007825032070
           C         -3.545550587998    -0.556718812154     0.024220454000    12.000000000000
           H         -2.246153587998     0.919707187846    -0.844979546000     1.007825032070
           H         -2.246602587998     0.918540187846     0.896024454000     1.007825032070
           C         -4.805354587998     0.308485187846     0.024225454000    12.000000000000
           H         -3.556279587998    -1.208981812154    -0.846561546000     1.007825032070
           H         -3.556887587998    -1.209927812154     0.894305454000     1.007825032070
           H         -4.840510587998     0.949638187846    -0.852037546000     1.007825032070
           H         -5.702750587998    -0.302562812154     0.022985454000     1.007825032070
           H         -4.841724587998     0.947854187846     0.901738454000     1.007825032070
           H          3.699667412002    -0.522798812154    -1.828783546000     1.007825032070
           H          4.853073412002     0.223460187846    -0.712860546000     1.007825032070
           H          4.244552412002    -1.413410812154    -0.425596546000     1.007825032070

  Charge       = 0
  Multiplicity = 1
  Basis Set: 6-31G*
  Basis Set:

    Orbital Energies (a.u.)
    -----------------------

    Doubly Occupied:

       1A    -20.549206     2A    -11.325883     3A    -11.231055
       4A    -11.228041     5A    -11.220912     6A    -11.218611
       7A    -11.216441     8A    -11.214967     9A    -11.209170
      10A     -1.394757    11A     -1.095412    12A     -1.057339
      13A     -1.014339    14A     -0.969668    15A     -0.891794
      16A     -0.815747    17A     -0.792382    18A     -0.730675
      19A     -0.663112    20A     -0.649870    21A     -0.634654
      22A     -0.618355    23A     -0.597920    24A     -0.585256
      25A     -0.568006    26A     -0.559589    27A     -0.541180
      28A     -0.531329    29A     -0.511190    30A     -0.492662
      31A     -0.487795    32A     -0.473420    33A     -0.465316
      34A     -0.463831    35A     -0.451819    36A     -0.397366

  @DF-RHF Final Energy:  -387.13501739206737

   => Energetics <=

    Nuclear Repulsion Energy =            438.1764305785654301
    One-Electron Energy =               -1392.8848226583027099
    Two-Electron Energy =                 567.5733746876652503
    DFT Exchange-Correlation Energy =       0.0000000000000000
    Empirical Dispersion Energy =           0.0000000000000000
    PCM Polarization Energy =               0.0000000000000000
    EFP Energy =                            0.0000000000000000
    Total Energy =                       -387.1350173920719726

  Mulliken Charges: (a.u.)
   Center  Symbol    Alpha    Beta     Spin     Total
       1     O     4.26230  4.26230  0.00000 -0.52460
       2     C     2.73402  2.73402  0.00000  0.53197
       3     C     3.20836  3.20836  0.00000 -0.41671
       4     C     3.28909  3.28909  0.00000 -0.57817
       5     C     3.15252  3.15252  0.00000 -0.30503
       6     H     0.41606  0.41606  0.00000  0.16788
       7     H     0.40351  0.40351  0.00000  0.19297
       8     C     3.15358  3.15358  0.00000 -0.30716
       9     H     0.41847  0.41847  0.00000  0.16306
      10     H     0.40498  0.40498  0.00000  0.19005
      11     C     3.15110  3.15110  0.00000 -0.30219
      12     H     0.42455  0.42455  0.00000  0.15090
      13     H     0.42307  0.42307  0.00000  0.15386
      14     C     3.15165  3.15165  0.00000 -0.30331
      15     H     0.42318  0.42318  0.00000  0.15365
      16     H     0.42167  0.42167  0.00000  0.15666
      17     C     3.23939  3.23939  0.00000 -0.47879
      18     H     0.42354  0.42354  0.00000  0.15292
      19     H     0.42302  0.42302  0.00000  0.15396
      20     H     0.42157  0.42157  0.00000  0.15687
      21     H     0.41929  0.41929  0.00000  0.16141
      22     H     0.42108  0.42108  0.00000  0.15784
      23     H     0.40839  0.40839  0.00000  0.18322
      24     H     0.39727  0.39727  0.00000  0.20545
      25     H     0.40835  0.40835  0.00000  0.18329

   Total alpha = 36.00000, Total beta = 36.00000, Total charge = -0.00000
