                              Psi4 1.0.54 Driver

  ==> Input File <==

--------------------------------------------------------------------------
set {
	reference rhf
	basis cc-pvtz
}

set_num_threads( 4 )
memory 2 gb

molecule MOL {
0 1

H	 1.956325	 -1.424344	 -2.035669
O	 1.476804	 -1.465711	 -1.221983
C	 0.496636	 -0.567904	 -1.264801
C	 -0.318151	 -0.570512	 0.000144
O	 0.321758	 0.128625	 -2.204074
C	 -1.454884	 0.441630	 -0.000560
H	 -0.690045	 -1.580578	 0.139257
H	 0.367241	 -0.392640	 0.822640
C	 -2.822577	 -0.232186	 0.000063
H	 -1.359760	 1.084704	 -0.867077
H	 -1.359641	 1.085996	 0.864983
H	 -2.954352	 -0.858985	 -0.875745
H	 -3.615886	 0.505352	 0.000019
H	 -2.953878	 -0.858359	 0.876394

	symmetry c1
}
set optking {
	frozen_dihedral = ("
		7 4 6 10
	")
}

ee,wfn = optimize('scf', return_wfn=True)
oeprop( wfn, 'DIPOLE', 'QUADRUPOLE', 'MULLIKEN_CHARGES')
f=open( 'psi4out.xyz', 'w' )
f.write( "14  " )
f.write( str(ee) + "\n" )
f.write( MOL.save_string_xyz() )
f.close()
--------------------------------------------------------------------------

    Molecular point group: c1
  Charge       = 0
  Multiplicity = 1
  Basis Set: CC-PVTZ
  Basis Set:
  @DF-RHF Final Energy:  -305.99614447134792
    Total Energy =                       -305.9961444713478045
    Molecular point group: c1
  Basis Set: CC-PVTZ
  Basis Set:
  Basis Set: CC-PVTZ
  Basis Set:
  @DF-RHF Final Energy:  -305.99648037261363
    Total Energy =                       -305.9964803726137461
  Basis Set: CC-PVTZ
  Basis Set:
  Basis Set: CC-PVTZ
  Basis Set:
  @DF-RHF Final Energy:  -305.99643313963344
    Total Energy =                       -305.9964331396333819
  Basis Set: CC-PVTZ
  Basis Set:
  Basis Set: CC-PVTZ
  Basis Set:
  @DF-RHF Final Energy:  -305.99656748431079
    Total Energy =                       -305.9965674843106740
  Basis Set: CC-PVTZ
  Basis Set:
  Basis Set: CC-PVTZ
  Basis Set:
  @DF-RHF Final Energy:  -305.99657643981595
    Total Energy =                       -305.9965764398158967
  Basis Set: CC-PVTZ
  Basis Set:
  Basis Set: CC-PVTZ
  Basis Set:
  @DF-RHF Final Energy:  -305.99657873151722
    Total Energy =                       -305.9965787315173884
  Basis Set: CC-PVTZ
  Basis Set:
  Basis Set: CC-PVTZ
  Basis Set:
  @DF-RHF Final Energy:  -305.99658034795141
    Total Energy =                       -305.9965803479512942
  Basis Set: CC-PVTZ
  Basis Set:
  Charge       = 0
  Multiplicity = 1
  Basis Set: CC-PVTZ
  Basis Set:

    Orbital Energies (a.u.)
    -----------------------

    Doubly Occupied:

       1A    -20.604783     2A    -20.541875     3A    -11.374871
       4A    -11.239890     5A    -11.222237     6A    -11.213188
       7A     -1.478775     8A     -1.370183     9A     -1.081051
      10A     -0.980018    11A     -0.860065    12A     -0.791368
      13A     -0.705742    14A     -0.695945    15A     -0.661834
      16A     -0.615115    17A     -0.599187    18A     -0.567590
      19A     -0.559399    20A     -0.494591    21A     -0.490589
      22A     -0.487648    23A     -0.479303    24A     -0.449559

  @DF-RHF Final Energy:  -305.99658060481283

   => Energetics <=

    Nuclear Repulsion Energy =            241.8464044100742569
    One-Electron Energy =                -896.5563617653891697
    Two-Electron Energy =                 348.7133767505018795
    DFT Exchange-Correlation Energy =       0.0000000000000000
    Empirical Dispersion Energy =           0.0000000000000000
    PCM Polarization Energy =               0.0000000000000000
    EFP Energy =                            0.0000000000000000
    Total Energy =                       -305.9965806048130617
    Molecular point group: c1
  Basis Set: CC-PVTZ
  Basis Set:

  -Total Gradient:
     Atom            X                  Y                   Z
    ------   -----------------  -----------------  -----------------
       1        0.000006639463    -0.000002675270    -0.000007031481
       2        0.000014542758    -0.000013295050     0.000012532544
       3       -0.000010960559     0.000011618577    -0.000045829386
       4       -0.000013915223    -0.000043124315     0.002197492805
       5        0.000002934713    -0.000001408159     0.000016213448
       6        0.001291109564     0.001417544553     0.000711294714
       7       -0.000193950305    -0.000185382230    -0.001890506424
       8        0.000008430416     0.000000396906    -0.000007177676
       9       -0.000020629735     0.000009329495     0.000006962274
      10       -0.001072500146    -0.001193968576    -0.000986729988
      11       -0.000013317637     0.000004639605    -0.000003574641
      12        0.000001802987     0.000004808449    -0.000006532114
      13       -0.000006458252    -0.000002489819     0.000003561112
      14        0.000006271956    -0.000005994163    -0.000000675188

  **** Optimization is complete! (in 8 steps) ****
    Final optimized geometry and variables:
    Molecular point group: c1

    Geometry (in Angstrom), charge = 0, multiplicity = 1:

    H            2.316264365343    -1.024888049424    -1.231288236964
    O            1.859845955927    -1.034985162414    -0.403484364689
    C            0.844926909310    -0.178168186907    -0.472288148159
    C            0.059843762045    -0.153836820617     0.815036790441
    O            0.623506299063     0.453938420123    -1.446615109034
    C           -1.098244114087     0.852648200021     0.835266200029
    H           -0.294230467124    -1.169728504722     0.955567528072
    H            0.772709543347     0.024418415532     1.610585258903
    C           -2.469962282431     0.182863530450     0.827132114843
    H           -1.019702076420     1.495696567760    -0.029385706598
    H           -1.011302142399     1.481258847936     1.713143832255
    H           -2.597284837879    -0.428817964299    -0.059623615312
    H           -3.261684644864     0.922549585387     0.834172564646
    H           -2.604299261482    -0.455389470717     1.694308302631

  Mulliken Charges: (a.u.)
   Center  Symbol    Alpha    Beta     Spin     Total
       1     H     0.38239  0.38239  0.00000  0.23522
       2     O     4.16009  4.16009  0.00000 -0.32019
       3     C     2.80150  2.80150  0.00000  0.39701
       4     C     3.11449  3.11449  0.00000 -0.22898
       5     O     4.19145  4.19145  0.00000 -0.38290
       6     C     3.08935  3.08935  0.00000 -0.17870
       7     H     0.43814  0.43814  0.00000  0.12373
       8     H     0.43080  0.43080  0.00000  0.13839
       9     C     3.14861  3.14861  0.00000 -0.29723
      10     H     0.43736  0.43736  0.00000  0.12528
      11     H     0.44928  0.44928  0.00000  0.10144
      12     H     0.45220  0.45220  0.00000  0.09560
      13     H     0.44795  0.44795  0.00000  0.10410
      14     H     0.45639  0.45639  0.00000  0.08723

   Total alpha = 24.00000, Total beta = 24.00000, Total charge = -0.00000

*** Psi4 exiting successfully. Buy a developer a beer!
