  ==> Input File <==

--------------------------------------------------------------------------
set {
	reference rhf
	basis 6-31G*
}

set_num_threads( 4 )
memory 2 gb

molecule MOL {
0 1

O	 -2.821601	 1.309235	 -0.001213
C	 -2.668563	 0.129746	 -0.000350
C	 -3.801572	 -0.864014	 -0.000442
O	 -1.481751	 -0.454642	 0.000584
H	 -4.417280	 -0.689587	 -0.874708
H	 -3.443784	 -1.883046	 -0.000565
H	 -4.417179	 -0.689832	 0.873954
C	 -0.334255	 0.388708	 0.000906
C	 0.891947	 -0.504646	 0.000751
H	 -0.365390	 1.025305	 -0.873475
H	 -0.365484	 1.024911	 0.875569
C	 2.091119	 0.163441	 -0.674613
H	 0.649123	 -1.434134	 -0.506721
H	 1.138652	 -0.762533	 1.026954
C	 3.338512	 -0.722119	 -0.685669
H	 1.831298	 0.428268	 -1.698060
H	 2.320582	 1.098384	 -0.166369
C	 4.535834	 -0.055306	 -1.361426
H	 3.111079	 -1.656705	 -1.193504
H	 3.600923	 -0.985818	 0.336424
H	 4.315577	 0.190154	 -2.396438
H	 5.403854	 -0.707010	 -1.353773
H	 4.809314	 0.865878	 -0.854830

	symmetry c1
}
set optking {
	frozen_dihedral = ("
		13 9 8 10
	")
}

ee = optimize('scf')
oeprop('DIPOLE', 'QUADRUPOLE', 'MULLIKEN_CHARGES')
f=open( 'psi4out.xyz', 'w' )
f.write( "23  " )
f.write( str(ee) + "\n" )
f.write( MOL.save_string_xyz() )
f.close()
--------------------------------------------------------------------------

    Molecular point group: c1
  Charge       = 0
  Multiplicity = 1
  Basis Set: 6-31G*
  Basis Set:
  @DF-RHF Final Energy:  -422.97670453736146
    Total Energy =                       -422.9767045373608880
    Molecular point group: c1
  Basis Set: 6-31G*
  Basis Set:
  Basis Set: 6-31G*
  Basis Set:
  @DF-RHF Final Energy:  -422.97695061488594
    Total Energy =                       -422.9769506148861637
  Basis Set: 6-31G*
  Basis Set:
  Basis Set: 6-31G*
  Basis Set:
  @DF-RHF Final Energy:  -422.97699004846004
    Total Energy =                       -422.9769900484606069
  Basis Set: 6-31G*
  Basis Set:
  Basis Set: 6-31G*
  Basis Set:
  @DF-RHF Final Energy:  -422.97690613463988
    Total Energy =                       -422.9769061346391936
  Basis Set: 6-31G*
  Basis Set:
  Basis Set: 6-31G*
  Basis Set:
  @DF-RHF Final Energy:  -422.97704392247397
    Total Energy =                       -422.9770439224736265
  Basis Set: 6-31G*
  Basis Set:
  Charge       = 0
  Multiplicity = 1
  Basis Set: 6-31G*
  Basis Set:

    Orbital Energies (a.u.)
    -----------------------

    Doubly Occupied:

       1A    -20.603797     2A    -20.540981     3A    -11.374433
       4A    -11.281301     5A    -11.232666     6A    -11.224196
       7A    -11.223596     8A    -11.221450     9A    -11.212894
      10A     -1.468558    11A     -1.361306    12A     -1.093344
      13A     -1.041879    14A     -1.003329    15A     -0.930979
      16A     -0.842247    17A     -0.802729    18A     -0.776925
      19A     -0.689666    20A     -0.684363    21A     -0.668411
      22A     -0.646199    23A     -0.606049    24A     -0.587248
      25A     -0.582429    26A     -0.567481    27A     -0.558873
      28A     -0.537422    29A     -0.523758    30A     -0.504956
      31A     -0.491873    32A     -0.477384    33A     -0.470730
      34A     -0.465184    35A     -0.448948    36A     -0.435733

  @DF-RHF Final Energy:  -422.97704402845193

   => Energetics <=

    Nuclear Repulsion Energy =            449.6231126793312569
    One-Electron Energy =               -1466.8336775868415316
    Two-Electron Energy =                 594.2335208790589149
    DFT Exchange-Correlation Energy =       0.0000000000000000
    Empirical Dispersion Energy =           0.0000000000000000
    PCM Polarization Energy =               0.0000000000000000
    EFP Energy =                            0.0000000000000000
    Total Energy =                       -422.9770440284513597
    Molecular point group: c1
  Basis Set: 6-31G*
  Basis Set:

  -Total Gradient:
     Atom            X                  Y                   Z
    ------   -----------------  -----------------  -----------------
       1       -0.000007050907     0.000017233900    -0.000047048804
       2        0.000016440994    -0.000058302277     0.000085395056
       3       -0.000019742658     0.000006679218    -0.000017976463
       4       -0.000053333949     0.000043556125    -0.000063474980
       5       -0.000002880286    -0.000003538570    -0.000000301186
       6        0.000000045675    -0.000001291339    -0.000001794110
       7        0.000000620081     0.000002156736    -0.000000045747
       8       -0.003052801601    -0.004298831394    -0.001860795399
       9        0.002086978663     0.003091278946    -0.004072390470
      10        0.002264265265     0.003064927632     0.002235474291
      11       -0.000022282767    -0.000024903590     0.000006119652
      12       -0.000020529412    -0.000034000826    -0.000010779648
      13       -0.001241356076    -0.001832967568     0.003730791014
      14        0.000004336788     0.000035057342     0.000005079590
      15        0.000025005845     0.000026658897     0.000032980348
      16        0.000013275125    -0.000014513526    -0.000004037120
      17       -0.000013973660    -0.000017152679    -0.000003938490
      18        0.000014893811    -0.000024105929    -0.000021920272
      19        0.000004407431     0.000016726556     0.000006578992
      20       -0.000003453083     0.000003670971     0.000006905997
      21       -0.000002337897     0.000012267951     0.000001039947
      22        0.000007073369    -0.000000318747    -0.000015527071
      23        0.000002399251    -0.000010287829     0.000009664870

  **** Optimization is complete! (in 6 steps) ****
    Final optimized geometry and variables:
    Molecular point group: c1

    Geometry (in Angstrom), charge = 0, multiplicity = 1:

    O           -2.771306380998     1.380494006314     0.354006954279
    C           -2.634659230851     0.199310063870     0.331413013284
    C           -3.780160420852    -0.779447427260     0.363855372527
    O           -1.456877844037    -0.400995701776     0.273443085782
    H           -4.429343498076    -0.583420904066    -0.481107260460
    H           -3.436744213625    -1.802968087527     0.333543476830
    H           -4.356239861057    -0.610820170128     1.265836947498
    C           -0.300164159433     0.425565542781     0.241981974608
    C            0.930364297877    -0.472181031357     0.214484279304
    H           -0.339818148170     1.082774508082    -0.617292977275
    H           -0.302965923184     1.062446252542     1.116663383842
    C            2.145079092076     0.212232863124    -0.411798397892
    H            0.682103725658    -1.389113401242    -0.311219419224
    H            1.166590618662    -0.776466362486     1.231329202234
    C            3.408339085904    -0.648513584222    -0.362579865690
    H            1.921560010473     0.465521820198    -1.446314318918
    H            2.334746195878     1.155355604104     0.098808515287
    C            4.617501912707     0.031568368165    -1.003269087659
    H            3.217335529931    -1.594461458212    -0.864510422442
    H            3.637299888042    -0.892660448058     0.672325565004
    H            4.431271353408     0.259118824620    -2.048983086150
    H            5.496411065446    -0.603547346186    -0.954672490615
    H            4.855215694990     0.964371758858    -0.499859153670

  Mulliken Charges: (a.u.)
   Center  Symbol    Alpha    Beta     Spin     Total
       1     O     4.28360  4.28360  0.00000 -0.56720
       2     C     2.61528  2.61528  0.00000  0.76945
       3     C     3.28772  3.28772  0.00000 -0.57544
       4     O     4.31154  4.31154  0.00000 -0.62307
       5     H     0.39740  0.39740  0.00000  0.20520
       6     H     0.39990  0.39990  0.00000  0.20021
       7     H     0.39741  0.39741  0.00000  0.20518
       8     C     2.99841  2.99841  0.00000  0.00318
       9     C     3.16765  3.16765  0.00000 -0.33531
      10     H     0.41030  0.41030  0.00000  0.17941
      11     H     0.40968  0.40968  0.00000  0.18064
      12     C     3.15966  3.15966  0.00000 -0.31932
      13     H     0.40979  0.40979  0.00000  0.18043
      14     H     0.41629  0.41629  0.00000  0.16742
      15     C     3.15207  3.15207  0.00000 -0.30415
      16     H     0.41986  0.41986  0.00000  0.16027
      17     H     0.42115  0.42115  0.00000  0.15771
      18     C     3.23986  3.23986  0.00000 -0.47971
      19     H     0.42124  0.42124  0.00000  0.15752
      20     H     0.42149  0.42149  0.00000  0.15701
      21     H     0.42082  0.42082  0.00000  0.15836
      22     H     0.41802  0.41802  0.00000  0.16395
      23     H     0.42086  0.42086  0.00000  0.15827

   Total alpha = 36.00000, Total beta = 36.00000, Total charge = -0.00000
