                              Psi4 1.0.54 Driver

  ==> Input File <==

--------------------------------------------------------------------------
set {
	reference rhf
	basis cc-pvtz
}

set_num_threads( 4 )
memory 2 gb

molecule MOL {
0 1

H	 1.183998	 -0.032563	 1.717411
O	 1.358020	 -0.258768	 0.821308
C	 0.706474	 0.636793	 -0.025501
C	 -0.793473	 0.591216	 0.050087
H	 1.020411	 0.390062	 -1.032908
H	 1.036881	 1.657008	 0.160759
C	 -1.534243	 -0.493009	 -0.013340
H	 -1.266611	 1.552628	 0.164437
H	 -1.101195	 -1.466332	 -0.144046
H	 -2.604242	 -0.437780	 0.050785

	symmetry c1
}
set optking {
	frozen_dihedral = ("
		5 3 4 7
	")
}

ee,wfn = optimize('scf', return_wfn=True)
oeprop( wfn, 'DIPOLE', 'QUADRUPOLE', 'MULLIKEN_CHARGES')
f=open( 'psi4out.xyz', 'w' )
f.write( "10  " )
f.write( str(ee) + "\n" )
f.write( MOL.save_string_xyz() )
f.close()
--------------------------------------------------------------------------

    Molecular point group: c1
  Charge       = 0
  Multiplicity = 1
  Basis Set: CC-PVTZ
  Basis Set:
  @DF-RHF Final Energy:  -191.99401316878885
    Total Energy =                       -191.9940131687889391
    Molecular point group: c1
  Basis Set: CC-PVTZ
  Basis Set:
  Basis Set: CC-PVTZ
  Basis Set:
  @DF-RHF Final Energy:  -191.99472419080715
    Total Energy =                       -191.9947241908071192
  Basis Set: CC-PVTZ
  Basis Set:
  Basis Set: CC-PVTZ
  Basis Set:
  @DF-RHF Final Energy:  -191.99486218643540
    Total Energy =                       -191.9948621864352845
  Basis Set: CC-PVTZ
  Basis Set:
  Basis Set: CC-PVTZ
  Basis Set:
  @DF-RHF Final Energy:  -191.99487336370271
    Total Energy =                       -191.9948733637027942
  Basis Set: CC-PVTZ
  Basis Set:
  Basis Set: CC-PVTZ
  Basis Set:
  @DF-RHF Final Energy:  -191.99487530576999
    Total Energy =                       -191.9948753057699946
  Basis Set: CC-PVTZ
  Basis Set:
  Charge       = 0
  Multiplicity = 1
  Basis Set: CC-PVTZ
  Basis Set:

    Orbital Energies (a.u.)
    -----------------------

    Doubly Occupied:

       1A    -20.549805     2A    -11.275393     3A    -11.229717
       4A    -11.221851     5A     -1.368331     6A     -1.062736
       7A     -0.926898     8A     -0.777370     9A     -0.682202
      10A     -0.664820    11A     -0.609399    12A     -0.579848
      13A     -0.553447    14A     -0.480332    15A     -0.451935
      16A     -0.372364

  @DF-RHF Final Energy:  -191.99487542684338

   => Energetics <=

    Nuclear Repulsion Energy =            118.9323105969855021
    One-Electron Energy =                -496.2414776571087032
    Two-Electron Energy =                 185.3142916332799075
    DFT Exchange-Correlation Energy =       0.0000000000000000
    Empirical Dispersion Energy =           0.0000000000000000
    PCM Polarization Energy =               0.0000000000000000
    EFP Energy =                            0.0000000000000000
    Total Energy =                       -191.9948754268432651
    Molecular point group: c1
  Basis Set: CC-PVTZ
  Basis Set:

  -Total Gradient:
     Atom            X                  Y                   Z
    ------   -----------------  -----------------  -----------------
       1       -0.000012270886     0.000009273426     0.000010296214
       2        0.000015505343    -0.000038593987    -0.000014021729
       3       -0.000336638810     0.004093521031    -0.002554551001
       4        0.000411578577    -0.001146796770     0.004748949773
       5        0.000156831505    -0.003175547498     0.000871425758
       6       -0.000004229221     0.000005182349    -0.000011652222
       7       -0.000244053180     0.000250976893    -0.003046901919
       8        0.000010743412     0.000001711695     0.000001789291
       9        0.000004658549    -0.000001806338    -0.000003418630
      10       -0.000002125290     0.000002079200    -0.000001915536

  **** Optimization is complete! (in 6 steps) ****
    Final optimized geometry and variables:
    Molecular point group: c1

    Geometry (in Angstrom), charge = 0, multiplicity = 1:

    H            1.045274524714    -0.303214543999     1.411029476310
    O            1.348445679497    -0.390290989874     0.525117942328
    C            0.696355483742     0.545232373664    -0.290585125016
    C           -0.811022071836     0.504307250630    -0.168954995197
    H            0.988608190358     0.285710799912    -1.299503095441
    H            1.054579965829     1.549034235132    -0.085956181497
    C           -1.524642960628    -0.600161252738    -0.200008405230
    H           -1.312993196619     1.453930632019    -0.097226309541
    H           -1.061685507531    -1.566670189915    -0.280173977600
    H           -2.595617497098    -0.575260980944    -0.129041424640

  Mulliken Charges: (a.u.)
   Center  Symbol    Alpha    Beta     Spin     Total
       1     H     0.39418  0.39418  0.00000  0.21164
       2     O     4.19967  4.19967  0.00000 -0.39934
       3     C     2.95443  2.95443  0.00000  0.09114
       4     C     3.10222  3.10222  0.00000 -0.20444
       5     H     0.45205  0.45205  0.00000  0.09589
       6     H     0.46427  0.46427  0.00000  0.07146
       7     C     3.16617  3.16617  0.00000 -0.33234
       8     H     0.41839  0.41839  0.00000  0.16323
       9     H     0.42227  0.42227  0.00000  0.15547
      10     H     0.42635  0.42635  0.00000  0.14730

   Total alpha = 16.00000, Total beta = 16.00000, Total charge = -0.00000

*** Psi4 exiting successfully. Buy a developer a beer!
