                              Psi4 1.0.54 Driver

  ==> Input File <==

--------------------------------------------------------------------------
set {
	reference rhf
	basis cc-pvtz
}

set_num_threads( 4 )
memory 2 gb

molecule MOL {
0 1

H	 -3.642953	 0.223825	 0.000000
C	 -2.571844	 0.155001	 0.000000
C	 -1.957580	 -1.086132	 0.000000
C	 -1.807160	 1.303787	 0.000000
H	 -2.551493	 -1.979629	 0.000000
C	 -0.582719	 -1.174294	 0.000000
H	 -2.279934	 2.266806	 0.000000
C	 -0.427220	 1.213406	 0.000000
H	 -0.094904	 -2.127556	 0.000000
C	 0.196908	 -0.024061	 0.000000
H	 0.151409	 2.115254	 0.000000
C	 1.690041	 -0.173233	 0.000000
C	 2.355156	 -0.903517	 1.144101
O	 2.342048	 0.276643	 -0.887614
H	 2.143480	 -0.413371	 2.086932
H	 3.419845	 -0.910886	 0.973478
H	 1.992721	 -1.922388	 1.211364

	symmetry c1
}
set optking {
	frozen_dihedral = ("
		13 12 10 8
	")
}

ee,wfn = optimize('scf', return_wfn=True)
oeprop( wfn, 'DIPOLE', 'QUADRUPOLE', 'MULLIKEN_CHARGES')
f=open( 'psi4out.xyz', 'w' )
f.write( "17  " )
f.write( str(ee) + "\n" )
f.write( MOL.save_string_xyz() )
f.close()
--------------------------------------------------------------------------

    Molecular point group: c1
  Charge       = 0
  Multiplicity = 1
  Basis Set: CC-PVTZ
  Basis Set:
  @DF-RHF Final Energy:  -382.59862736851045
    Total Energy =                       -382.5986273685102788
    Molecular point group: c1
  Basis Set: CC-PVTZ
  Basis Set:
  Basis Set: CC-PVTZ
  Basis Set:
  @DF-RHF Final Energy:  -382.59728639428954
    Total Energy =                       -382.5972863942895401
  Basis Set: CC-PVTZ
  Basis Set:
  Basis Set: CC-PVTZ
  Basis Set:
  @DF-RHF Final Energy:  -382.59968750968875
    Total Energy =                       -382.5996875096889198
  Basis Set: CC-PVTZ
  Basis Set:
  Basis Set: CC-PVTZ
  Basis Set:
  @DF-RHF Final Energy:  -382.59959410919572
    Total Energy =                       -382.5995941091960049
  Basis Set: CC-PVTZ
  Basis Set:
  @DF-RHF Final Energy:  -382.59998869443388
    Total Energy =                       -382.5999886944339323
  Basis Set: CC-PVTZ
  Basis Set:
  @DF-RHF Final Energy:  -382.60000870707523
    Total Energy =                       -382.6000087070749487
  Basis Set: CC-PVTZ
  Basis Set:
  Basis Set: CC-PVTZ
  Basis Set:
  @DF-RHF Final Energy:  -382.60001184833953
    Total Energy =                       -382.6000118483395909
  Basis Set: CC-PVTZ
  Basis Set:
  Basis Set: CC-PVTZ
  Basis Set:
  @DF-RHF Final Energy:  -382.60001318202592
    Total Energy =                       -382.6000131820254637
  Basis Set: CC-PVTZ
  Basis Set:
  Charge       = 0
  Multiplicity = 1
  Basis Set: CC-PVTZ
  Basis Set:

    Orbital Energies (a.u.)
    -----------------------

    Doubly Occupied:

       1A    -20.545400     2A    -11.329606     3A    -11.246044
       4A    -11.243904     5A    -11.240802     6A    -11.240488
       7A    -11.239331     8A    -11.238129     9A    -11.230761
      10A     -1.405564    11A     -1.171567    12A     -1.054221
      13A     -1.030451    14A     -1.000590    15A     -0.863411
      16A     -0.841224    17A     -0.765082    18A     -0.708326
      19A     -0.664478    20A     -0.650245    21A     -0.628233
      22A     -0.623370    23A     -0.603280    24A     -0.592416
      25A     -0.562763    26A     -0.528716    27A     -0.518186
      28A     -0.508117    29A     -0.496582    30A     -0.413886
      31A     -0.349358    32A     -0.347360

  @DF-RHF Final Energy:  -382.60001330234036

   => Energetics <=

    Nuclear Repulsion Energy =            403.9676112786874000
    One-Electron Energy =               -1319.3714656357260537
    Two-Electron Energy =                 532.8038410546984096
    DFT Exchange-Correlation Energy =       0.0000000000000000
    Empirical Dispersion Energy =           0.0000000000000000
    PCM Polarization Energy =               0.0000000000000000
    EFP Energy =                            0.0000000000000000
    Total Energy =                       -382.6000133023402441
    Molecular point group: c1
  Basis Set: CC-PVTZ
  Basis Set:

  -Total Gradient:
     Atom            X                  Y                   Z
    ------   -----------------  -----------------  -----------------
       1        0.000001743693     0.000003680997    -0.000003349046
       2       -0.000015957249    -0.000083726648     0.000006819855
       3       -0.000068763108     0.000037215212     0.000007895423
       4        0.000081286041     0.000033586967    -0.000012864207
       5        0.000001704981    -0.000004577769    -0.000000815011
       6        0.000068514440     0.000024016009     0.000000338415
       7       -0.000002503941     0.000001826685     0.000004173581
       8       -0.000115945620    -0.000353975227     0.003691045772
       9       -0.000005720278    -0.000008940505     0.000002958991
      10        0.000114152255     0.001745874796    -0.004447331563
      11        0.000004598837     0.000004938155     0.000001442923
      12       -0.000194276435    -0.004084762609    -0.001136730888
      13        0.000094260116     0.002662705184     0.001957361360
      14        0.000029009869     0.000014115804    -0.000070288240
      15       -0.000009316474     0.000012992502     0.000005019416
      16        0.000012684978    -0.000001551282    -0.000002503570
      17        0.000004527904    -0.000003418273    -0.000003173211

  **** Optimization is complete! (in 9 steps) ****
    Final optimized geometry and variables:
    Molecular point group: c1

    Geometry (in Angstrom), charge = 0, multiplicity = 1:

    H           -3.634519199467     0.253030599802    -0.002024486063
    C           -2.564168418188     0.177608962665    -0.017301409836
    C           -1.959544337378    -1.058692443986    -0.137472323433
    C           -1.787926012249     1.317364971554     0.084582453855
    H           -2.558205190902    -1.945339981646    -0.220329662092
    C           -0.580987160554    -1.156858258933    -0.142729931135
    H           -2.254349125419     2.278728132431     0.182809325929
    C           -0.410858391065     1.222120678038     0.054248201935
    H           -0.120717184927    -2.123162116065    -0.225891212945
    C            0.199824362620    -0.015819001196    -0.066099697162
    H            0.194404227955     2.105746350707     0.113020653365
    C            1.702074284299    -0.085886968706    -0.050625134215
    C            2.345298835663    -0.905757570965     1.041986708651
    O            2.349291975719     0.551398775606    -0.815070670213
    H            2.090242419432    -0.467426405972     2.000627208521
    H            3.416768094299    -0.906363734730     0.912612250359
    H            1.972091239831    -1.922413173288     1.047296611451

  Mulliken Charges: (a.u.)
   Center  Symbol    Alpha    Beta     Spin     Total
       1     H     0.42113  0.42113  0.00000  0.15774
       2     C     3.08174  3.08174  0.00000 -0.16347
       3     C     3.06721  3.06721  0.00000 -0.13443
       4     C     3.06534  3.06534  0.00000 -0.13069
       5     H     0.42162  0.42162  0.00000  0.15675
       6     C     3.09668  3.09668  0.00000 -0.19335
       7     H     0.42114  0.42114  0.00000  0.15771
       8     C     3.09088  3.09088  0.00000 -0.18176
       9     H     0.42355  0.42355  0.00000  0.15289
      10     C     2.96567  2.96567  0.00000  0.06867
      11     H     0.41595  0.41595  0.00000  0.16810
      12     C     2.87470  2.87470  0.00000  0.25060
      13     C     3.15162  3.15162  0.00000 -0.30325
      14     O     4.16988  4.16988  0.00000 -0.33975
      15     H     0.44611  0.44611  0.00000  0.10777
      16     H     0.43604  0.43604  0.00000  0.12791
      17     H     0.45072  0.45072  0.00000  0.09856

   Total alpha = 32.00000, Total beta = 32.00000, Total charge =  0.00000

*** Psi4 exiting successfully. Buy a developer a beer!
