                              Psi4 1.0.54 Driver

  ==> Input File <==

--------------------------------------------------------------------------
set {
	reference rhf
	basis cc-pvtz
}

set_num_threads( 4 )
memory 2 gb

molecule MOL {
0 1

H	 -3.498818	 -0.133246	 -0.762012
O	 -3.103022	 -0.240745	 0.084242
C	 -1.772068	 -0.086824	 0.023690
C	 -1.115173	 0.195131	 -1.167707
C	 -1.058116	 -0.219175	 1.203071
H	 -1.675949	 0.296344	 -2.078593
C	 0.251479	 0.343196	 -1.173579
H	 -1.584058	 -0.436745	 2.110853
C	 0.309957	 -0.067933	 1.180148
H	 0.770055	 0.560827	 -2.086172
C	 0.981121	 0.213562	 0.000000
H	 0.864852	 -0.170401	 2.094539
C	 2.447402	 0.371303	 0.000000
O	 3.227427	 -0.521847	 0.000000
H	 2.796538	 1.409525	 0.000000

	symmetry c1
}
set optking {
	frozen_dihedral = ("
		7 11 13 14
	")
}

ee,wfn = optimize('scf', return_wfn=True)
oeprop( wfn, 'DIPOLE', 'QUADRUPOLE', 'MULLIKEN_CHARGES')
f=open( 'psi4out.xyz', 'w' )
f.write( "15  " )
f.write( str(ee) + "\n" )
f.write( MOL.save_string_xyz() )
f.close()
--------------------------------------------------------------------------

    Molecular point group: c1
  Charge       = 0
  Multiplicity = 1
  Basis Set: CC-PVTZ
  Basis Set:
  @DF-RHF Final Energy:  -418.42687204486799
    Total Energy =                       -418.4268720448681051
    Molecular point group: c1
  Basis Set: CC-PVTZ
  Basis Set:
  Basis Set: CC-PVTZ
  Basis Set:
  @DF-RHF Final Energy:  -418.42730876667673
    Total Energy =                       -418.4273087666766742
  Basis Set: CC-PVTZ
  Basis Set:
  Basis Set: CC-PVTZ
  Basis Set:
  @DF-RHF Final Energy:  -418.42751806509455
    Total Energy =                       -418.4275180650944321
  Basis Set: CC-PVTZ
  Basis Set:
  Basis Set: CC-PVTZ
  Basis Set:
  @DF-RHF Final Energy:  -418.42762440906057
    Total Energy =                       -418.4276244090606269
  Basis Set: CC-PVTZ
  Basis Set:
  Basis Set: CC-PVTZ
  Basis Set:
  @DF-RHF Final Energy:  -418.42762869454276
    Total Energy =                       -418.4276286945425909
  Basis Set: CC-PVTZ
  Basis Set:
  Basis Set: CC-PVTZ
  Basis Set:
  @DF-RHF Final Energy:  -418.42712314266879
    Total Energy =                       -418.4271231426687336
  Basis Set: CC-PVTZ
  Basis Set:
  Basis Set: CC-PVTZ
  Basis Set:
  @DF-RHF Final Energy:  -418.42760583070907
    Total Energy =                       -418.4276058307093535
  Basis Set: CC-PVTZ
  Basis Set:
  Charge       = 0
  Multiplicity = 1
  Basis Set: CC-PVTZ
  Basis Set:

    Orbital Energies (a.u.)
    -----------------------

    Doubly Occupied:

       1A    -20.596393     2A    -20.561402     3A    -11.330647
       4A    -11.311370     5A    -11.253281     6A    -11.250384
       7A    -11.242069     8A    -11.240575     9A    -11.234452
      10A     -1.428110    11A     -1.415406    12A     -1.172376
      13A     -1.041419    14A     -1.038161    15A     -0.890786
      16A     -0.861951    17A     -0.804775    18A     -0.756696
      19A     -0.708575    20A     -0.682811    21A     -0.657845
      22A     -0.630983    23A     -0.607652    24A     -0.607319
      25A     -0.594599    26A     -0.564661    27A     -0.534742
      28A     -0.505261    29A     -0.498385    30A     -0.425413
      31A     -0.358274    32A     -0.328169

  @DF-RHF Final Energy:  -418.42762918259797

   => Energetics <=

    Nuclear Repulsion Energy =            401.2871720681894772
    One-Electron Energy =               -1365.1597171529861043
    Two-Electron Energy =                 545.4449159021985452
    DFT Exchange-Correlation Energy =       0.0000000000000000
    Empirical Dispersion Energy =           0.0000000000000000
    PCM Polarization Energy =               0.0000000000000000
    EFP Energy =                            0.0000000000000000
    Total Energy =                       -418.4276291825981389
    Molecular point group: c1
  Basis Set: CC-PVTZ
  Basis Set:

  -Total Gradient:
     Atom            X                  Y                   Z
    ------   -----------------  -----------------  -----------------
       1        0.000005669507     0.000008853991     0.000002809984
       2       -0.000006272993    -0.000011332339    -0.000014415093
       3        0.000021462516    -0.000028022061     0.000126877159
       4        0.000093277035     0.000011138356    -0.000054042963
       5       -0.000128578950     0.000026994231    -0.000053286399
       6       -0.000004812791    -0.000002629773     0.000002508483
       7        0.000152385099    -0.002842649501    -0.000520013527
       8        0.000009272806    -0.000002502156     0.000006111064
       9        0.000109501165    -0.000005035924    -0.000072850086
      10        0.000004642446    -0.000001596436     0.000006863596
      11       -0.000389346704     0.004146827701    -0.000778425655
      12       -0.000010074875     0.000004525199     0.000006534087
      13        0.000135531568    -0.001220055468     0.004890804793
      14        0.000002640662    -0.000112811296    -0.003540490549
      15        0.000004703501     0.000028295474    -0.000008984893

  **** Optimization is complete! (in 8 steps) ****
    Final optimized geometry and variables:
    Molecular point group: c1

    Geometry (in Angstrom), charge = 0, multiplicity = 1:

    H           -3.504081133218    -0.146513458432    -0.785375194218
    O           -3.111923841043    -0.242267150545     0.063733324105
    C           -1.777216573715    -0.076068864705     0.004447077161
    C           -1.115871567356     0.210037467283    -1.175438127081
    C           -1.062410985566    -0.203938032748     1.183635807986
    H           -1.665359475625     0.300673731182    -2.094446465108
    C            0.255938775540     0.375459646573    -1.171526004325
    H           -1.587044742427    -0.432710854499     2.089919150735
    C            0.305643315115    -0.048223405808     1.172897116789
    H            0.758181654984     0.595947325832    -2.095113941860
    C            0.977996485788     0.253173330134    -0.001105320362
    H            0.854877683420    -0.167061355729     2.087615722618
    C            2.470257370252     0.387458673959    -0.016619375445
    O            3.214974230849    -0.529649574102    -0.006323053565
    H            2.860962337197     1.409415836177    -0.069581580059

  Mulliken Charges: (a.u.)
   Center  Symbol    Alpha    Beta     Spin     Total
       1     H     0.38667  0.38667  0.00000  0.22666
       2     O     4.17040  4.17040  0.00000 -0.34080
       3     C     2.85647  2.85647  0.00000  0.28707
       4     C     3.12471  3.12471  0.00000 -0.24942
       5     C     3.09853  3.09853  0.00000 -0.19706
       6     H     0.43231  0.43231  0.00000  0.13539
       7     C     3.08508  3.08508  0.00000 -0.17015
       8     H     0.41725  0.41725  0.00000  0.16550
       9     C     3.07694  3.07694  0.00000 -0.15387
      10     H     0.42271  0.42271  0.00000  0.15458
      11     C     2.95865  2.95865  0.00000  0.08269
      12     H     0.42008  0.42008  0.00000  0.15985
      13     C     2.93628  2.93628  0.00000  0.12745
      14     O     4.15570  4.15570  0.00000 -0.31140
      15     H     0.45824  0.45824  0.00000  0.08353

   Total alpha = 32.00000, Total beta = 32.00000, Total charge = -0.00000

*** Psi4 exiting successfully. Buy a developer a beer!
