                              Psi4 1.0.54 Driver

  ==> Input File <==

--------------------------------------------------------------------------
set {
	reference rhf
	basis cc-pvtz
}

set_num_threads( 4 )
memory 2 gb

molecule MOL {
0 1

H	 -4.340537	 -0.784487	 0.000000
O	 -3.958786	 0.074640	 0.000000
C	 -2.613554	 0.009900	 0.000000
C	 -1.943925	 0.592280	 -1.063299
C	 -1.897918	 -0.607161	 1.007962
H	 -2.509190	 1.068254	 -1.839693
C	 -0.568144	 0.555261	 -1.113802
H	 -2.410353	 -1.061188	 1.836115
C	 -0.516371	 -0.643444	 0.955705
H	 -0.051966	 1.006320	 -1.937133
C	 0.142939	 -0.063166	 -0.103097
H	 0.034395	 -1.123012	 1.739525
Br	 2.039257	 -0.111479	 -0.177399

	symmetry c1
}
set optking {
	frozen_dihedral = ("
		4 3 2 1
	")
}

ee,wfn = optimize('scf', return_wfn=True)
oeprop( wfn, 'DIPOLE', 'QUADRUPOLE', 'MULLIKEN_CHARGES')
f=open( 'psi4out.xyz', 'w' )
f.write( "13  " )
f.write( str(ee) + "\n" )
f.write( MOL.save_string_xyz() )
f.close()
--------------------------------------------------------------------------

    Molecular point group: c1
  Charge       = 0
  Multiplicity = 1
  Basis Set: CC-PVTZ
  Basis Set:
  @DF-RHF Final Energy: -2877.54329803555811
    Total Energy =                      -2877.5432980355571999
    Molecular point group: c1
  Basis Set: CC-PVTZ
  Basis Set:
  Basis Set: CC-PVTZ
  Basis Set:
  @DF-RHF Final Energy: -2877.54364413745589
    Total Energy =                      -2877.5436441374540664
  Basis Set: CC-PVTZ
  Basis Set:
  Basis Set: CC-PVTZ
  Basis Set:
  @DF-RHF Final Energy: -2877.54368270274517
    Total Energy =                      -2877.5436827027442632
  Basis Set: CC-PVTZ
  Basis Set:
  Basis Set: CC-PVTZ
  Basis Set:
  @DF-RHF Final Energy: -2877.54368700545001
    Total Energy =                      -2877.5436870054472820
  Basis Set: CC-PVTZ
  Basis Set:
  Charge       = 0
  Multiplicity = 1
  Basis Set: CC-PVTZ
  Basis Set:

    Orbital Energies (a.u.)
    -----------------------

    Doubly Occupied:

       1A   -490.020437     2A    -65.160768     3A    -58.515993
       4A    -58.514626     5A    -58.514614     6A    -20.585571
       7A    -11.304983     8A    -11.292699     9A    -11.252742
      10A    -11.251781    11A    -11.242927    12A    -11.240284
      13A     -9.834570    14A     -7.446193    15A     -7.439413
      16A     -7.439381    17A     -3.189885    18A     -3.186338
      19A     -3.186204    20A     -3.177563    21A     -3.177559
      22A     -1.414185    23A     -1.180647    24A     -1.067568
      25A     -1.041945    26A     -0.970607    27A     -0.863833
      28A     -0.826825    29A     -0.754276    30A     -0.681602
      31A     -0.659907    32A     -0.645059    33A     -0.610434
      34A     -0.601468    35A     -0.553363    36A     -0.530431
      37A     -0.502602    38A     -0.494036    39A     -0.433046
      40A     -0.415305    41A     -0.359310    42A     -0.326628

  @DF-RHF Final Energy: -2877.54368789790760

   => Energetics <=

    Nuclear Repulsion Energy =            525.2188673886616925
    One-Electron Energy =               -5041.7098974941791312
    Two-Electron Energy =                1638.9473422076114275
    DFT Exchange-Correlation Energy =       0.0000000000000000
    Empirical Dispersion Energy =           0.0000000000000000
    PCM Polarization Energy =               0.0000000000000000
    EFP Energy =                            0.0000000000000000
    Total Energy =                      -2877.5436878979053290
    Molecular point group: c1
  Basis Set: CC-PVTZ
  Basis Set:

  -Total Gradient:
     Atom            X                  Y                   Z
    ------   -----------------  -----------------  -----------------
       1       -0.000076589200    -0.000007730093    -0.002077603950
       2       -0.000119907144    -0.000608170857     0.002198186726
       3        0.000411408502     0.001845335163     0.000763958085
       4       -0.000097747680    -0.001267762866    -0.000831596272
       5       -0.000168081637     0.000025991130    -0.000053534554
       6        0.000009674823    -0.000000464899     0.000016146518
       7       -0.000094292953     0.000022290447    -0.000049223227
       8       -0.000009585010     0.000003074156     0.000010154059
       9        0.000135827083     0.000036226160    -0.000085350924
      10        0.000024510964    -0.000007904154     0.000012324419
      11        0.000023744092    -0.000057172731     0.000123471901
      12       -0.000012476250     0.000007671096    -0.000008317387
      13       -0.000026486236     0.000008617446    -0.000018615377

  **** Optimization is complete! (in 5 steps) ****
    Final optimized geometry and variables:
    Molecular point group: c1

    Geometry (in Angstrom), charge = 0, multiplicity = 1:

    H           -4.357196950739    -0.630152969610     0.191047865490
    O           -3.959541721332     0.222428884701     0.174011976483
    C           -2.602982839535     0.122573292834     0.121767824401
    C           -1.935300890140     0.674829722905    -0.953442874213
    C           -1.892152430712    -0.494511595723     1.133180888445
    H           -2.498866983638     1.151594698334    -1.730780132290
    C           -0.556895453938     0.617583515751    -1.015767426674
    H           -2.414443452845    -0.909917753265     1.973670265946
    C           -0.513968620344    -0.564353800650     1.068450713695
    H           -0.038187439494     1.049087253667    -1.847773093608
    C            0.145494873690    -0.005642472076    -0.005554522062
    H            0.037150139456    -1.043413361019     1.852166623998
    BR           2.039402968430    -0.093484957713    -0.093877845264

  Mulliken Charges: (a.u.)
   Center  Symbol    Alpha    Beta     Spin     Total
       1     H     0.38511  0.38511  0.00000  0.22979
       2     O     4.18561  4.18561  0.00000 -0.37123
       3     C     2.87766  2.87766  0.00000  0.24469
       4     C     3.09080  3.09080  0.00000 -0.18160
       5     C     3.10324  3.10324  0.00000 -0.20648
       6     H     0.41298  0.41298  0.00000  0.17404
       7     C     3.08524  3.08524  0.00000 -0.17048
       8     H     0.41772  0.41772  0.00000  0.16455
       9     C     3.08782  3.08782  0.00000 -0.17564
      10     H     0.41019  0.41019  0.00000  0.17963
      11     C     2.96864  2.96864  0.00000  0.06273
      12     H     0.41032  0.41032  0.00000  0.17937
      13    BR    17.56468 17.56468  0.00000 -0.12936

   Total alpha = 42.00000, Total beta = 42.00000, Total charge = -0.00000

*** Psi4 exiting successfully. Buy a developer a beer!
