  ==> Input File <==

--------------------------------------------------------------------------
set {
	reference rhf
	basis cc-pvtz
}

set_num_threads( 4 )
memory 2 gb

molecule MOL {
0 1

O	 0.766937	 2.014457	 0.361822
C	 -0.184877	 2.189352	 1.043382
C	 -1.444966	 1.362983	 1.015921
O	 -0.265318	 3.158755	 1.940134
C	 -1.413045	 0.229353	 0.001137
H	 -1.603415	 0.986310	 2.021154
H	 -2.269259	 2.041385	 0.821568
C	 -2.702562	 -0.586401	 0.000228
H	 -0.569330	 -0.417664	 0.213400
H	 -1.236470	 0.638342	 -0.987344
C	 -3.953810	 0.284959	 -0.000782
H	 -2.717793	 -1.238567	 -0.869075
H	 -2.719108	 -1.238472	 0.869576
H	 -3.983727	 0.924403	 -0.876454
H	 -4.852989	 -0.320147	 -0.001515
H	 -3.985140	 0.924399	 0.874841
C	 0.851658	 4.014384	 2.072736
H	 1.728497	 3.454657	 2.362714
H	 0.592814	 4.724818	 2.840949
H	 1.052062	 4.526662	 1.143418

	symmetry c1
}
set optking {
	frozen_dihedral = ("
		9 5 8 12
	")
}

ee = optimize('scf')
oeprop('DIPOLE', 'QUADRUPOLE', 'MULLIKEN_CHARGES')
f=open( 'psi4out.xyz', 'w' )
f.write( "20  " )
f.write( str(ee) + "\n" )
f.write( MOL.save_string_xyz() )
f.close()
--------------------------------------------------------------------------

    Molecular point group: c1
  Charge       = 0
  Multiplicity = 1
  Basis Set: CC-PVTZ
  Basis Set:
  @DF-RHF Final Energy:  -384.07839830563393
    Total Energy =                       -384.0783983056337547
    Molecular point group: c1
  Basis Set: CC-PVTZ
  Basis Set:
  Basis Set: CC-PVTZ
  Basis Set:
  @DF-RHF Final Energy:  -384.07925956299283
    Total Energy =                       -384.0792595629930020
  Basis Set: CC-PVTZ
  Basis Set:
  Basis Set: CC-PVTZ
  Basis Set:
  @DF-RHF Final Energy:  -384.08022896849184
    Total Energy =                       -384.0802289684917241
  Basis Set: CC-PVTZ
  Basis Set:
  Basis Set: CC-PVTZ
  Basis Set:
  @DF-RHF Final Energy:  -384.08000101323557
    Total Energy =                       -384.0800010132361422
  Basis Set: CC-PVTZ
  Basis Set:
  Basis Set: CC-PVTZ
  Basis Set:
  @DF-RHF Final Energy:  -384.08029096033357
    Total Energy =                       -384.0802909603337412
  Basis Set: CC-PVTZ
  Basis Set:
  Basis Set: CC-PVTZ
  Basis Set:
  @DF-RHF Final Energy:  -384.08031956086802
    Total Energy =                       -384.0803195608679061
  Basis Set: CC-PVTZ
  Basis Set:
  Charge       = 0
  Multiplicity = 1
  Basis Set: CC-PVTZ
  Basis Set:

    Orbital Energies (a.u.)
    -----------------------

    Doubly Occupied:

       1A    -20.596135     2A    -20.534055     3A    -11.364450
       4A    -11.278379     5A    -11.233155     6A    -11.218835
       7A    -11.217673     8A    -11.210948     9A     -1.472083
      10A     -1.365665    11A     -1.089586    12A     -1.023019
      13A     -0.968233    14A     -0.897106    15A     -0.799541
      16A     -0.764416    17A     -0.703602    18A     -0.686144
      19A     -0.675484    20A     -0.640046    21A     -0.609877
      22A     -0.595196    23A     -0.568940    24A     -0.549788
      25A     -0.538153    26A     -0.524060    27A     -0.510806
      28A     -0.474508    29A     -0.470646    30A     -0.468573
      31A     -0.458890    32A     -0.440962

  @DF-RHF Final Energy:  -384.08032006418290

   => Energetics <=

    Nuclear Repulsion Energy =            386.0437778209422390
    One-Electron Energy =               -1288.3502882076702463
    Two-Electron Energy =                 518.2261903225448805
    DFT Exchange-Correlation Energy =       0.0000000000000000
    Empirical Dispersion Energy =           0.0000000000000000
    PCM Polarization Energy =               0.0000000000000000
    EFP Energy =                            0.0000000000000000
    Total Energy =                       -384.0803200641830699
    Molecular point group: c1
  Basis Set: CC-PVTZ
  Basis Set:

  -Total Gradient:
     Atom            X                  Y                   Z
    ------   -----------------  -----------------  -----------------
       1        0.000008366268     0.000011637609     0.000017288134
       2       -0.000030628805     0.000012737650    -0.000024992713
       3        0.000000540342     0.000009831396    -0.000001353456
       4        0.000020675891    -0.000015642824    -0.000003073676
       5        0.000085249369    -0.000369511182    -0.005279052713
       6       -0.000004213245    -0.000003420007    -0.000009525570
       7        0.000007989136     0.000014433546     0.000003496758
       8        0.002302877878    -0.003120846009     0.003505998496
       9       -0.000435168630     0.000763705070     0.003920369290
      10        0.000009525378    -0.000008307248     0.000013007107
      11        0.000015274708     0.000002942028     0.000028605783
      12       -0.001985423401     0.002707765465    -0.002165322794
      13       -0.000004028396     0.000005611713    -0.000008425656
      14        0.000017496090    -0.000002134902     0.000007397855
      15        0.000002814228    -0.000009576688    -0.000006922843
      16       -0.000017801014    -0.000011582797    -0.000003939330
      17       -0.000001342719     0.000008265607     0.000005618405
      18        0.000000226863     0.000000308641    -0.000000263564
      19        0.000006893799     0.000004020991     0.000000677279
      20        0.000000676257    -0.000000238056     0.000000413208

  **** Optimization is complete! (in 7 steps) ****
    Final optimized geometry and variables:
    Molecular point group: c1

    Geometry (in Angstrom), charge = 0, multiplicity = 1:

    O            1.807940925943     0.371542820033    -0.435721905899
    C            0.852377757225     0.588218335238     0.228351125651
    C           -0.442478584340    -0.182649414247     0.182180066863
    O            0.797398887309     1.564092919963     1.120378839106
    C           -0.429966022003    -1.323370508078    -0.829831428544
    H           -0.631090554634    -0.550220633427     1.186171435038
    H           -1.226835851711     0.535760210182    -0.022449593305
    C           -1.683285075317    -2.203253404217    -0.791266472097
    H            0.434874262224    -1.938038096201    -0.612934272479
    H           -0.289214594538    -0.917007011498    -1.824366762060
    C           -3.010039839525    -1.446162333251    -0.847148403166
    H           -1.650782677918    -2.862977600279    -1.652087227543
    H           -1.664232758697    -2.830846137838     0.094469594961
    H           -3.045378572830    -0.780800020322    -1.704208973432
    H           -3.838573034377    -2.139094381026    -0.936045596858
    H           -3.180980090751    -0.850820383442     0.041766488132
    C            1.946868125675     2.372501803757     1.269463947017
    H            2.794425254495     1.777625802565     1.576103204811
    H            1.705227617069     3.096126822917     2.030969332433
    H            2.184450527290     2.872449293976     0.342181569781

  Mulliken Charges: (a.u.)
   Center  Symbol    Alpha    Beta     Spin     Total
       1     O     4.19656  4.19656  0.00000 -0.39313
       2     C     2.80795  2.80795  0.00000  0.38410
       3     C     3.10211  3.10211  0.00000 -0.20422
       4     O     4.14687  4.14687  0.00000 -0.29375
       5     C     3.08951  3.08951  0.00000 -0.17902
       6     H     0.43963  0.43963  0.00000  0.12074
       7     H     0.43786  0.43786  0.00000  0.12428
       8     C     3.09304  3.09304  0.00000 -0.18608
       9     H     0.44180  0.44180  0.00000  0.11640
      10     H     0.44519  0.44519  0.00000  0.10962
      11     C     3.15752  3.15752  0.00000 -0.31503
      12     H     0.44726  0.44726  0.00000  0.10548
      13     H     0.45203  0.45203  0.00000  0.09594
      14     H     0.45295  0.45295  0.00000  0.09409
      15     H     0.44441  0.44441  0.00000  0.11118
      16     H     0.45342  0.45342  0.00000  0.09317
      17     C     3.03798  3.03798  0.00000 -0.07595
      18     H     0.45429  0.45429  0.00000  0.09142
      19     H     0.44522  0.44522  0.00000  0.10956
      20     H     0.45440  0.45440  0.00000  0.09120

   Total alpha = 32.00000, Total beta = 32.00000, Total charge = -0.00000
