  ==> Input File <==

--------------------------------------------------------------------------
set {
	reference rhf
	basis cc-pvtz
}

set_num_threads( 4 )
memory 2 gb

molecule MOL {
0 1

H	 -0.184942	 -0.830233	 0.869321
N	 -0.625934	 -0.663929	 -0.000707
C	 -1.978635	 -0.158664	 0.001017
C	 0.074664	 -0.921481	 -1.127389
H	 -2.519057	 -0.493535	 -0.876362
H	 -1.938890	 0.917202	 -0.004137
H	 -2.514266	 -0.485137	 0.884506
C	 1.476054	 -1.441072	 -0.892970
O	 -0.364190	 -0.750659	 -2.226163
H	 1.446555	 -2.370763	 -0.336731
H	 1.951187	 -1.607685	 -1.845627
H	 2.054931	 -0.725364	 -0.320884

	symmetry c1
}
set optking {
	frozen_dihedral = ("
		4 2 3 5
	")
}

ee = optimize('scf')
oeprop('DIPOLE', 'QUADRUPOLE', 'MULLIKEN_CHARGES')
f=open( 'psi4out.xyz', 'w' )
f.write( "12  " )
f.write( str(ee) + "\n" )
f.write( MOL.save_string_xyz() )
f.close()
--------------------------------------------------------------------------

    Molecular point group: c1
  Charge       = 0
  Multiplicity = 1
  Basis Set: CC-PVTZ
  Basis Set:
  @DF-RHF Final Energy:  -247.10033470711829
    Total Energy =                       -247.1003347071181793
    Molecular point group: c1
  Basis Set: CC-PVTZ
  Basis Set:
  Basis Set: CC-PVTZ
  Basis Set:
  @DF-RHF Final Energy:  -247.10096461424345
    Total Energy =                       -247.1009646142431961
  Basis Set: CC-PVTZ
  Basis Set:
  Basis Set: CC-PVTZ
  Basis Set:
  @DF-RHF Final Energy:  -247.10099293329918
    Total Energy =                       -247.1009929332991533
  Basis Set: CC-PVTZ
  Basis Set:
  Basis Set: CC-PVTZ
  Basis Set:
  @DF-RHF Final Energy:  -247.10111377258846
    Total Energy =                       -247.1011137725883486
  Basis Set: CC-PVTZ
  Basis Set:
  @DF-RHF Final Energy:  -247.10112983997394
    Total Energy =                       -247.1011298399739644
  @DF-RHF Final Energy:  -247.10114797768620
    Total Energy =                       -247.1011479776862529
  @DF-RHF Final Energy:  -247.10115166395900
    Total Energy =                       -247.1011516639591150
  @DF-RHF Final Energy:  -247.10115270044668
    Total Energy =                       -247.1011527004463915
  @DF-RHF Final Energy:  -247.10115775084148
    Total Energy =                       -247.1011577508416508
  @DF-RHF Final Energy:  -247.10117461487761
    Total Energy =                       -247.1011746148774932
  @DF-RHF Final Energy:  -247.09353708123115
    Total Energy =                       -247.0935370812310907
  @DF-RHF Final Energy:  -247.10116411742061
    Total Energy =                       -247.1011641174204669
  @DF-RHF Final Energy:  -247.10121985872001
    Total Energy =                       -247.1012198587200146
  @DF-RHF Final Energy:  -247.10123036965905
    Total Energy =                       -247.1012303696591061
  @DF-RHF Final Energy:  -247.10123990418674
    Total Energy =                       -247.1012399041867411
  @DF-RHF Final Energy:  -247.10124901901980
    Total Energy =                       -247.1012490190197468
  @DF-RHF Final Energy:  -247.10125793545856
    Total Energy =                       -247.1012579354585341
  @DF-RHF Final Energy:  -247.10126016850828
    Total Energy =                       -247.1012601685082473
  @DF-RHF Final Energy:  -247.10126235744085
    Total Energy =                       -247.1012623574407598
  @DF-RHF Final Energy:  -247.10126450652311
    Total Energy =                       -247.1012645065233073
  @DF-RHF Final Energy:  -247.10127081357030
    Total Energy =                       -247.1012708135701814
  @DF-RHF Final Energy:  -247.10127689054741
    Total Energy =                       -247.1012768905474104
  @DF-RHF Final Energy:  -247.10128270832723
    Total Energy =                       -247.1012827083272327
  @DF-RHF Final Energy:  -247.10128824348556
    Total Energy =                       -247.1012882434857261
  @DF-RHF Final Energy:  -247.10129347501839
    Total Energy =                       -247.1012934750184513
  @DF-RHF Final Energy:  -247.10129838586775
    Total Energy =                       -247.1012983858676648
  Basis Set: CC-PVTZ
  Basis Set:
  @DF-RHF Final Energy:  -247.10130296117671
    Total Energy =                       -247.1013029611767706
  Basis Set: CC-PVTZ
  Basis Set:
  Basis Set: CC-PVTZ
  Basis Set:
  @DF-RHF Final Energy:  -247.10130719070963
    Total Energy =                       -247.1013071907094627
  Basis Set: CC-PVTZ
  Basis Set:
  Basis Set: CC-PVTZ
  Basis Set:
  @DF-RHF Final Energy:  -247.10130819479076
    Total Energy =                       -247.1013081947906471
  Basis Set: CC-PVTZ
  Basis Set:
  Charge       = 0
  Multiplicity = 1
  Basis Set: CC-PVTZ
  Basis Set:

    Orbital Energies (a.u.)
    -----------------------

    Doubly Occupied:

       1A    -20.505246     2A    -15.576246     3A    -11.336236
       4A    -11.253291     5A    -11.228355     6A     -1.387954
       7A     -1.231544     8A     -1.016332     9A     -0.933726
      10A     -0.789244    11A     -0.690889    12A     -0.652002
      13A     -0.635503    14A     -0.586477    15A     -0.583087
      16A     -0.555285    17A     -0.546986    18A     -0.508027
      19A     -0.417168    20A     -0.390297

  @DF-RHF Final Energy:  -247.10130917565817

   => Energetics <=

    Nuclear Repulsion Energy =            181.7572964107267808
    One-Electron Energy =                -696.0694175576552425
    Two-Electron Energy =                 267.2108119712703456
    DFT Exchange-Correlation Energy =       0.0000000000000000
    Empirical Dispersion Energy =           0.0000000000000000
    PCM Polarization Energy =               0.0000000000000000
    EFP Energy =                            0.0000000000000000
    Total Energy =                       -247.1013091756581161
    Molecular point group: c1
  Basis Set: CC-PVTZ
  Basis Set:

  -Total Gradient:
     Atom            X                  Y                   Z
    ------   -----------------  -----------------  -----------------
       1        0.000001345932     0.000002731917     0.000000124622
       2        0.000192260320     0.000429567582     0.000052767395
       3       -0.000185792349    -0.000406647764     0.000091527082
       4       -0.000097520284    -0.000214807141    -0.000043745649
       5        0.000109721852     0.000239142132    -0.000092313925
       6       -0.000000241766    -0.000000170251     0.000000817509
       7       -0.000000278832    -0.000000662451    -0.000000641087
       8       -0.000000338190    -0.000003453987    -0.000004666501
       9       -0.000018727140    -0.000047520747    -0.000008491434
      10       -0.000008053543    -0.000026799099    -0.000019715064
      11        0.000013110542     0.000029307645    -0.000012100667
      12       -0.000005486543    -0.000000687836     0.000036437720

  **** Optimization is complete! (in 30 steps) ****
    Final optimized geometry and variables:
    Molecular point group: c1

    Geometry (in Angstrom), charge = 0, multiplicity = 1:

    H            0.027461320838    -0.234323194945     1.708090665605
    N           -0.383172596280    -0.011686660360     0.836347456810
    C           -1.697421535280     0.587384992703     0.827224263154
    C            0.374088725271    -0.125322333979    -0.275695117107
    H           -2.151156135619     0.423916131069    -0.136305083745
    H           -1.658377903779     1.655870929169     1.009191015662
    H           -2.309541063814     0.126142508290     1.590475252711
    C            1.764471792856    -0.679426422104    -0.060038243869
    O           -0.011123643082     0.200193211523    -1.359978533049
    H            1.825361156993    -1.333358826930     0.800250607729
    H            2.066172084679    -1.213923133145    -0.947302194815
    H            2.447988800119     0.148955688105     0.086843485678

  Mulliken Charges: (a.u.)
   Center  Symbol    Alpha    Beta     Spin     Total
       1     H     0.41072  0.41072  0.00000  0.17856
       2     N     3.61695  3.61695  0.00000 -0.23391
       3     C     3.08144  3.08144  0.00000 -0.16287
       4     C     2.84015  2.84015  0.00000  0.31971
       5     H     0.43466  0.43466  0.00000  0.13068
       6     H     0.45735  0.45735  0.00000  0.08529
       7     H     0.45510  0.45510  0.00000  0.08981
       8     C     3.14737  3.14737  0.00000 -0.29473
       9     O     4.21862  4.21862  0.00000 -0.43724
      10     H     0.45742  0.45742  0.00000  0.08516
      11     H     0.43570  0.43570  0.00000  0.12860
      12     H     0.44453  0.44453  0.00000  0.11094

   Total alpha = 20.00000, Total beta = 20.00000, Total charge =  0.00000
