  ==> Input File <==

--------------------------------------------------------------------------
set {
	reference rhf
	basis cc-pvtz
}

set_num_threads( 4 )
memory 2 gb

molecule MOL {
0 1

H	 -2.342895	 -0.556142	 3.317241
C	 -2.360849	 -0.606499	 2.247919
C	 -1.234037	 -0.721195	 1.588764
H	 -3.305885	 -0.563234	 1.743108
O	 -1.189946	 -0.765863	 0.237511
H	 -0.282096	 -0.773955	 2.084902
C	 0.026572	 -0.995256	 -0.379403
C	 1.057223	 0.049888	 -0.004615
H	 -0.054361	 -1.010670	 -1.459674
H	 0.397526	 -1.952058	 -0.044198
F	 2.203233	 -0.234060	 -0.590375
F	 0.698147	 1.254887	 -0.392621
F	 1.266440	 0.094219	 1.288722

	symmetry c1
}
set optking {
	frozen_dihedral = ("
		3 5 7 9
	")
}

ee = optimize('scf')
oeprop('DIPOLE', 'QUADRUPOLE', 'MULLIKEN_CHARGES')
f=open( 'psi4out.xyz', 'w' )
f.write( "13  " )
f.write( str(ee) + "\n" )
f.write( MOL.save_string_xyz() )
f.close()
--------------------------------------------------------------------------

    Molecular point group: c1
  Charge       = 0
  Multiplicity = 1
  Basis Set: CC-PVTZ
  Basis Set:
  @DF-RHF Final Energy:  -527.73165201465690
    Total Energy =                       -527.7316520146569019
    Molecular point group: c1
  Basis Set: CC-PVTZ
  Basis Set:
  Basis Set: CC-PVTZ
  Basis Set:
  @DF-RHF Final Energy:  -527.73839891517582
    Total Energy =                       -527.7383989151760488
  Basis Set: CC-PVTZ
  Basis Set:
  Basis Set: CC-PVTZ
  Basis Set:
  @DF-RHF Final Energy:  -527.73949984809644
    Total Energy =                       -527.7394998480962158
  Basis Set: CC-PVTZ
  Basis Set:
  Basis Set: CC-PVTZ
  Basis Set:
  @DF-RHF Final Energy:  -527.73983200302246
    Total Energy =                       -527.7398320030222294
  Basis Set: CC-PVTZ
  Basis Set:
  @DF-RHF Final Energy:  -527.73994795110889
    Total Energy =                       -527.7399479511084337
  Basis Set: CC-PVTZ
  Basis Set:
  @DF-RHF Final Energy:  -527.73997190409750
    Total Energy =                       -527.7399719040980699
  Basis Set: CC-PVTZ
  Basis Set:
  Basis Set: CC-PVTZ
  Basis Set:
  @DF-RHF Final Energy:  -527.73997740909078
    Total Energy =                       -527.7399774090907840
  Basis Set: CC-PVTZ
  Basis Set:
  Basis Set: CC-PVTZ
  Basis Set:
  @DF-RHF Final Energy:  -527.73997905575993
    Total Energy =                       -527.7399790557601591
  Basis Set: CC-PVTZ
  Basis Set:
  Charge       = 0
  Multiplicity = 1
  Basis Set: CC-PVTZ
  Basis Set:

    Orbital Energies (a.u.)
    -----------------------

    Doubly Occupied:

       1A    -26.342096     2A    -26.341818     3A    -26.339244
       4A    -20.602061     5A    -11.499248     6A    -11.319693
       7A    -11.295880     8A    -11.214670     9A     -1.751629
      10A     -1.647513    11A     -1.646710    12A     -1.441487
      13A     -1.086062    14A     -1.021732    15A     -0.933091
      16A     -0.843954    17A     -0.839861    18A     -0.833806
      19A     -0.787890    20A     -0.727301    21A     -0.719464
      22A     -0.700974    23A     -0.682526    24A     -0.669455
      25A     -0.662713    26A     -0.651881    27A     -0.644154
      28A     -0.593364    29A     -0.565971    30A     -0.525363
      31A     -0.508148    32A     -0.359141

  @DF-RHF Final Energy:  -527.73997963379179

   => Energetics <=

    Nuclear Repulsion Energy =            416.8652090387008684
    One-Electron Energy =               -1557.6125746696925489
    Two-Electron Energy =                 613.0073859971998900
    DFT Exchange-Correlation Energy =       0.0000000000000000
    Empirical Dispersion Energy =           0.0000000000000000
    PCM Polarization Energy =               0.0000000000000000
    EFP Energy =                            0.0000000000000000
    Total Energy =                       -527.7399796337917905
    Molecular point group: c1
  Basis Set: CC-PVTZ
  Basis Set:

  -Total Gradient:
     Atom            X                  Y                   Z
    ------   -----------------  -----------------  -----------------
       1       -0.000002325328     0.000000429271     0.000002187057
       2        0.000020147015    -0.000009892941    -0.000037555233
       3        0.000216138034     0.003802325853    -0.000028737609
       4        0.000002502073    -0.000000758531     0.000004067926
       5       -0.000310700317    -0.004626738674     0.000067217291
       6       -0.000001312313    -0.000000376667    -0.000003614733
       7       -0.000142887318    -0.003577051151     0.000068626134
       8       -0.000043712865    -0.000046531573     0.000018415280
       9        0.000244018978     0.004398160469    -0.000060550313
      10       -0.000018050330     0.000006133056     0.000009543625
      11        0.000005412934     0.000024176708     0.000000985813
      12        0.000027724934     0.000003372186     0.000006918827
      13        0.000003044501     0.000026751993    -0.000047504069

  **** Optimization is complete! (in 9 steps) ****
    Final optimized geometry and variables:
    Molecular point group: c1

    Geometry (in Angstrom), charge = 0, multiplicity = 1:

    H           -2.558844467527    -0.334412710409     2.843544566482
    C           -2.483204746540    -0.292206671727     1.776207104231
    C           -1.428324146626    -0.792296895003     1.181997229790
    H           -3.281260916334     0.156525043073     1.217918117453
    O           -1.311133527756    -0.820473160409    -0.167859745423
    H           -0.617922072437    -1.240212940447     1.727453088039
    C           -0.050560079000    -0.907582665328    -0.732635532961
    C            0.840124298596     0.292345664395    -0.459017956287
    H           -0.190626198371    -0.915420404672    -1.802351042686
    H            0.482661048282    -1.799004794316    -0.421587026579
    F            1.940278884328     0.175907561378    -1.175696613248
    F            0.258851406488     1.419522795079    -0.790576719255
    F            1.203749722213     0.388165184165     0.802671247208

  Mulliken Charges: (a.u.)
   Center  Symbol    Alpha    Beta     Spin     Total
       1     H     0.42535  0.42535  0.00000  0.14930
       2     C     3.19103  3.19103  0.00000 -0.38205
       3     C     2.96446  2.96446  0.00000  0.07107
       4     H     0.42411  0.42411  0.00000  0.15177
       5     O     4.14557  4.14557  0.00000 -0.29113
       6     H     0.43182  0.43182  0.00000  0.13637
       7     C     3.02050  3.02050  0.00000 -0.04100
       8     C     2.67857  2.67857  0.00000  0.64285
       9     H     0.43661  0.43661  0.00000  0.12677
      10     H     0.45195  0.45195  0.00000  0.09610
      11     F     4.61138  4.61138  0.00000 -0.22276
      12     F     4.60714  4.60714  0.00000 -0.21427
      13     F     4.61151  4.61151  0.00000 -0.22302

   Total alpha = 32.00000, Total beta = 32.00000, Total charge = -0.00000
