  ==> Input File <==

--------------------------------------------------------------------------
set {
	reference rhf
	basis 6-31G*
}

set_num_threads( 1 )
memory 2 gb

molecule MOL {
0 1

H	 -3.054334	 1.124271	 -1.147120
O	 -3.452007	 0.283848	 -0.965577
C	 -3.181085	 -0.079926	 0.364119
C	 -1.765924	 0.277073	 0.805136
H	 -3.327791	 -1.152017	 0.410903
H	 -3.905698	 0.375695	 1.036898
C	 -0.677594	 -0.417312	 -0.014550
H	 -1.637766	 1.358238	 0.744969
H	 -1.659588	 0.017670	 1.857098
C	 0.738335	 -0.034840	 0.421385
H	 -0.814977	 -0.178223	 -1.064632
H	 -0.802730	 -1.495410	 0.071702
C	 1.822265	 -0.738362	 -0.399735
H	 0.853533	 1.043532	 0.342250
H	 0.871597	 -0.279636	 1.474438
C	 3.258060	 -0.455774	 0.057203
H	 1.718003	 -0.459167	 -1.447053
H	 1.651028	 -1.811884	 -0.354513
C	 3.709143	 0.994797	 -0.123830
H	 3.930637	 -1.101717	 -0.501982
H	 3.365259	 -0.739518	 1.102287
H	 3.601178	 1.310569	 -1.158127
H	 4.753787	 1.110486	 0.148516
H	 3.135362	 1.678896	 0.492569

	symmetry c1
}
set optking {
	frozen_dihedral = ("
		20 16 13 17,
		17 13 10 7,
		13 10 7 11,
		11 7 4 3,
		7 4 3 2
	")
}

ee = energy('scf')
oeprop('DIPOLE', 'QUADRUPOLE', 'MULLIKEN_CHARGES')
f=open( 'psi4out.xyz', 'w' )
f.write( "24  " )
f.write( str(ee) + "\n" )
f.write( MOL.save_string_xyz() )
f.close()
--------------------------------------------------------------------------

    Molecular point group: c1

    Geometry (in Angstrom), charge = 0, multiplicity = 1:

       Center              X                  Y                   Z               Mass
    ------------   -----------------  -----------------  -----------------  -----------------
           H         -3.057513849454     1.125166146217    -1.146227231158     1.007825032070
           O         -3.455186849454     0.284743146217    -0.964684231158    15.994914619560
           C         -3.184264849454    -0.079030853783     0.365011768842    12.000000000000
           C         -1.769103849454     0.277968146217     0.806028768842    12.000000000000
           H         -3.330970849454    -1.151121853783     0.411795768842     1.007825032070
           H         -3.908877849454     0.376590146217     1.037790768842     1.007825032070
           C         -0.680773849454    -0.416416853783    -0.013657231158    12.000000000000
           H         -1.640945849454     1.359133146217     0.745861768842     1.007825032070
           H         -1.662767849454     0.018565146217     1.857990768842     1.007825032070
           C          0.735155150546    -0.033944853783     0.422277768842    12.000000000000
           H         -0.818156849454    -0.177327853783    -1.063739231158     1.007825032070
           H         -0.805909849454    -1.494514853783     0.072594768842     1.007825032070
           C          1.819085150546    -0.737466853783    -0.398842231158    12.000000000000
           H          0.850353150546     1.044427146217     0.343142768842     1.007825032070
           H          0.868417150546    -0.278740853783     1.475330768842     1.007825032070
           C          3.254880150546    -0.454878853783     0.058095768842    12.000000000000
           H          1.714823150546    -0.458271853783    -1.446160231158     1.007825032070
           H          1.647848150546    -1.810988853783    -0.353620231158     1.007825032070
           C          3.705963150546     0.995692146217    -0.122937231158    12.000000000000
           H          3.927457150546    -1.100821853783    -0.501089231158     1.007825032070
           H          3.362079150546    -0.738622853783     1.103179768842     1.007825032070
           H          3.597998150546     1.311464146217    -1.157234231158     1.007825032070
           H          4.750607150546     1.111381146217     0.149408768842     1.007825032070
           H          3.132182150546     1.679791146217     0.493461768842     1.007825032070

  Charge       = 0
  Multiplicity = 1
  Basis Set: 6-31G*
  Basis Set:

    Orbital Energies (a.u.)
    -----------------------

    Doubly Occupied:

       1A    -20.552255     2A    -11.267053     3A    -11.221805
       4A    -11.216051     5A    -11.215951     6A    -11.215342
       7A    -11.214059     8A    -11.209028     9A     -1.359442
      10A     -1.091634    11A     -1.050726    12A     -0.987453
      13A     -0.917218    14A     -0.853666    15A     -0.804134
      16A     -0.778798    17A     -0.667721    18A     -0.656853
      19A     -0.631983    20A     -0.623567    21A     -0.602523
      22A     -0.586931    23A     -0.559302    24A     -0.541628
      25A     -0.516841    26A     -0.513608    27A     -0.499239
      28A     -0.475337    29A     -0.469322    30A     -0.463171
      31A     -0.454483    32A     -0.453135    33A     -0.420993

  @DF-RHF Final Energy:  -349.24660775740386

   => Energetics <=

    Nuclear Repulsion Energy =            384.8764898335556950
    One-Electron Energy =               -1236.0634686699104350
    Two-Electron Energy =                 501.9403710789513298
    DFT Exchange-Correlation Energy =       0.0000000000000000
    Empirical Dispersion Energy =           0.0000000000000000
    PCM Polarization Energy =               0.0000000000000000
    EFP Energy =                            0.0000000000000000
    Total Energy =                       -349.2466077574033534

  Mulliken Charges: (a.u.)
   Center  Symbol    Alpha    Beta     Spin     Total
       1     H     0.28294  0.28294  0.00000  0.43411
       2     O     4.37102  4.37102  0.00000 -0.74204
       3     C     2.98580  2.98580  0.00000  0.02839
       4     C     3.18099  3.18099  0.00000 -0.36197
       5     H     0.41836  0.41836  0.00000  0.16328
       6     H     0.42737  0.42737  0.00000  0.14526
       7     C     3.15090  3.15090  0.00000 -0.30180
       8     H     0.42692  0.42692  0.00000  0.14615
       9     H     0.41906  0.41906  0.00000  0.16189
      10     C     3.15357  3.15357  0.00000 -0.30715
      11     H     0.41672  0.41672  0.00000  0.16656
      12     H     0.42144  0.42144  0.00000  0.15713
      13     C     3.15236  3.15236  0.00000 -0.30471
      14     H     0.42292  0.42292  0.00000  0.15416
      15     H     0.42448  0.42448  0.00000  0.15104
      16     C     3.15245  3.15245  0.00000 -0.30491
      17     H     0.42375  0.42375  0.00000  0.15249
      18     H     0.42164  0.42164  0.00000  0.15671
      19     C     3.24118  3.24118  0.00000 -0.48236
      20     H     0.42066  0.42066  0.00000  0.15868
      21     H     0.42348  0.42348  0.00000  0.15304
      22     H     0.42229  0.42229  0.00000  0.15542
      23     H     0.41911  0.41911  0.00000  0.16179
      24     H     0.42058  0.42058  0.00000  0.15883

   Total alpha = 33.00000, Total beta = 33.00000, Total charge = -0.00000
