                              Psi4 1.0.54 Driver

  ==> Input File <==

--------------------------------------------------------------------------
set {
	reference rhf
	basis cc-pvtz
}

set_num_threads( 4 )
memory 2 gb

molecule MOL {
0 1

H	 -2.442530	 -1.267411	 -0.514316
C	 -2.821951	 -0.375025	 -1.030621
C	 -2.653809	 0.914422	 -0.273689
O	 -3.325454	 -0.476974	 -2.095233
C	 -1.216901	 1.136108	 0.207794
H	 -2.994880	 1.728485	 -0.900033
H	 -3.314590	 0.856475	 0.588468
C	 -0.247837	 0.040196	 -0.230469
H	 -0.872882	 2.093195	 -0.169002
H	 -1.209325	 1.218376	 1.291938
C	 1.181757	 0.280428	 0.247371
H	 -0.259600	 -0.030819	 -1.314870
H	 -0.591284	 -0.923375	 0.136958
C	 2.151032	 -0.811012	 -0.202643
H	 1.515939	 1.247397	 -0.115449
H	 1.191514	 0.341223	 1.333422
C	 3.580021	 -0.656538	 0.320835
H	 2.170545	 -0.847575	 -1.289412
H	 1.766632	 -1.772905	 0.124928
C	 4.327657	 0.562694	 -0.213579
H	 4.138806	 -1.549270	 0.057813
H	 3.561991	 -0.620783	 1.406976
H	 4.355973	 0.557257	 -1.298551
H	 3.867136	 1.491650	 0.100501
H	 5.351524	 0.571613	 0.142204

	symmetry c1
}
set optking {
	frozen_dihedral = ("
		6 3 5 8
	")
}

ee,wfn = optimize('scf', return_wfn=True)
oeprop( wfn, 'DIPOLE', 'QUADRUPOLE', 'MULLIKEN_CHARGES')
f=open( 'psi4out.xyz', 'w' )
f.write( "25  " )
f.write( str(ee) + "\n" )
f.write( MOL.save_string_xyz() )
f.close()
--------------------------------------------------------------------------

    Molecular point group: c1
  Charge       = 0
  Multiplicity = 1
  Basis Set: CC-PVTZ
  Basis Set:
  @DF-RHF Final Energy:  -387.24881826165586
    Total Energy =                       -387.2488182616561971
    Molecular point group: c1
  Basis Set: CC-PVTZ
  Basis Set:
  Basis Set: CC-PVTZ
  Basis Set:
  @DF-RHF Final Energy:  -387.20708464188243
    Total Energy =                       -387.2070846418826022
  Basis Set: CC-PVTZ
  Basis Set:
  Basis Set: CC-PVTZ
  Basis Set:
  @DF-RHF Final Energy:  -387.24912135892583
    Total Energy =                       -387.2491213589262316
  Basis Set: CC-PVTZ
  Basis Set:
  Basis Set: CC-PVTZ
  Basis Set:
  @DF-RHF Final Energy:  -387.24901178607223
    Total Energy =                       -387.2490117860720602
  Basis Set: CC-PVTZ
  Basis Set:
  @DF-RHF Final Energy:  -386.92325289164552
    Total Energy =                       -386.9232528916453475
  @DF-RHF Final Energy:  -387.09578651698683
    Total Energy =                       -387.0957865169870047
  @DF-RHF Final Energy:  -387.22420596892607
    Total Energy =                       -387.2242059689256166
  @DF-RHF Final Energy:  -387.24756734514824
    Total Energy =                       -387.2475673451482407
  @DF-RHF Final Energy:  -387.24989109741381
    Total Energy =                       -387.2498910974140927
  @DF-RHF Final Energy:  -387.17372101101057
    Total Energy =                       -387.1737210110107981
  @DF-RHF Final Energy:  -387.21963886759164
    Total Energy =                       -387.2196388675916978
  @DF-RHF Final Energy:  -387.25071313426793
    Total Energy =                       -387.2507131342674711
  @DF-RHF Final Energy:  -387.23448932392893
    Total Energy =                       -387.2344893239289831
  @DF-RHF Final Energy:  -387.25173929721996
    Total Energy =                       -387.2517392972195012
  Basis Set: CC-PVTZ
  Basis Set:
  @DF-RHF Final Energy:  -387.25202668619477
    Total Energy =                       -387.2520266861953360
  Basis Set: CC-PVTZ
  Basis Set:
  Basis Set: CC-PVTZ
  Basis Set:
  @DF-RHF Final Energy:  -387.25202843703516
    Total Energy =                       -387.2520284370350510
  Basis Set: CC-PVTZ
  Basis Set:
  Basis Set: CC-PVTZ
  Basis Set:
  @DF-RHF Final Energy:  -387.25203297711727
    Total Energy =                       -387.2520329771169827
  Basis Set: CC-PVTZ
  Basis Set:
  Charge       = 0
  Multiplicity = 1
  Basis Set: CC-PVTZ
  Basis Set:

    Orbital Energies (a.u.)
    -----------------------

    Doubly Occupied:

       1A    -20.549875     2A    -11.319808     3A    -11.233350
       4A    -11.232795     5A    -11.224255     6A    -11.218674
       7A    -11.216926     8A    -11.215999     9A    -11.208965
      10A     -1.404783    11A     -1.103736    12A     -1.068206
      13A     -1.013716    14A     -0.944172    15A     -0.878158
      16A     -0.831498    17A     -0.783419    18A     -0.773639
      19A     -0.678461    20A     -0.655253    21A     -0.631515
      22A     -0.626113    23A     -0.611083    24A     -0.589794
      25A     -0.575757    26A     -0.555542    27A     -0.537795
      28A     -0.524987    29A     -0.507546    30A     -0.498935
      31A     -0.493032    32A     -0.472753    33A     -0.465838
      34A     -0.460650    35A     -0.444362    36A     -0.409602

  @DF-RHF Final Energy:  -387.25203334330382

   => Energetics <=

    Nuclear Repulsion Energy =            440.9722658337867074
    One-Electron Energy =               -1398.5266013214140912
    Two-Electron Energy =                 570.3023021443236757
    DFT Exchange-Correlation Energy =       0.0000000000000000
    Empirical Dispersion Energy =           0.0000000000000000
    PCM Polarization Energy =               0.0000000000000000
    EFP Energy =                            0.0000000000000000
    Total Energy =                       -387.2520333433037649
    Molecular point group: c1
  Basis Set: CC-PVTZ
  Basis Set:

  -Total Gradient:
     Atom            X                  Y                   Z
    ------   -----------------  -----------------  -----------------
       1       -0.000011920101    -0.000010959880    -0.000010675642
       2        0.000066835757     0.000032507220    -0.000012170708
       3        0.000399607653     0.000018259314    -0.000169046465
       4       -0.000029462105    -0.000033280257     0.000028606235
       5        0.000073824535     0.000368679480     0.000130482304
       6       -0.000382278590    -0.000096990727     0.000107448192
       7        0.000000043382    -0.000008167866     0.000011538413
       8       -0.000092406868    -0.000272522015    -0.000058812128
       9       -0.000005762548     0.000009839786     0.000003031370
      10       -0.000011109644    -0.000006103793    -0.000003528202
      11       -0.000005459691    -0.000000283313    -0.000009446714
      12        0.000004854380     0.000002964433    -0.000003433108
      13        0.000004515557    -0.000010111529    -0.000001731140
      14        0.000013162021    -0.000007643607     0.000018628177
      15       -0.000003783497     0.000010556420     0.000009711390
      16       -0.000009287719    -0.000004406606     0.000002058671
      17       -0.000003741123     0.000009481467    -0.000017026528
      18        0.000008025947     0.000002845580    -0.000002936067
      19        0.000003672294    -0.000009858820    -0.000003365482
      20       -0.000006591764    -0.000001606581     0.000010369421
      21        0.000002194661    -0.000002505649    -0.000014341447
      22       -0.000007950002    -0.000013091541     0.000000354836
      23        0.000009368988     0.000012766973    -0.000002886794
      24       -0.000008262843     0.000009315126     0.000003294631
      25       -0.000008088681     0.000000316386    -0.000016123221

  **** Optimization is complete! (in 18 steps) ****
    Final optimized geometry and variables:
    Molecular point group: c1

    Geometry (in Angstrom), charge = 0, multiplicity = 1:

    H           -0.945266309511    -0.145829622220    -3.107438132201
    C           -1.219454921828     0.870054396853    -2.802734706149
    C           -2.186486420385     0.973565115718    -1.653134529789
    O           -0.777590131142     1.798528451338    -3.387589461075
    C           -1.681076327928     0.404342999982    -0.298093251397
    H           -2.455299622940     2.015629310371    -1.554099276660
    H           -3.079900635638     0.436670575698    -1.959601818627
    C           -0.252756046411    -0.144127222791    -0.277173119598
    H           -1.753050787261     1.193927311750     0.440175617131
    H           -2.355572240667    -0.376464801395     0.033414566760
    C            0.179487845268    -0.581699119833     1.119995941925
    H            0.436842043737     0.612053629301    -0.642746148512
    H           -0.167338964691    -0.990717903987    -0.952212488290
    C            1.600570413747    -1.140777921767     1.155210469608
    H            0.095807993387     0.264768850756     1.793946971169
    H           -0.511196580991    -1.336672816636     1.489052263548
    C            2.050248125669    -1.663923221305     2.520449905032
    H            2.295859297494    -0.375090750553     0.819204075091
    H            1.672953807150    -1.951647755691     0.435527264003
    C            2.186542154607    -0.593740864240     3.600835113240
    H            3.009056616628    -2.158020401697     2.398078962574
    H            1.356522411911    -2.429959514189     2.857079086979
    H            2.869073505251     0.190110065127     3.288374308917
    H            1.236072898850    -0.130137012427     3.836043026688
    H            2.574542311384    -1.021718682941     4.517989539176

  Mulliken Charges: (a.u.)
   Center  Symbol    Alpha    Beta     Spin     Total
       1     H     0.46156  0.46156  0.00000  0.07687
       2     C     2.90557  2.90557  0.00000  0.18885
       3     C     3.08354  3.08354  0.00000 -0.16708
       4     O     4.16857  4.16857  0.00000 -0.33714
       5     C     3.10463  3.10463  0.00000 -0.20925
       6     H     0.44160  0.44160  0.00000  0.11680
       7     H     0.44803  0.44803  0.00000  0.10395
       8     C     3.10413  3.10413  0.00000 -0.20826
       9     H     0.44544  0.44544  0.00000  0.10913
      10     H     0.44724  0.44724  0.00000  0.10552
      11     C     3.09328  3.09328  0.00000 -0.18656
      12     H     0.44340  0.44340  0.00000  0.11320
      13     H     0.45106  0.45106  0.00000  0.09789
      14     C     3.09524  3.09524  0.00000 -0.19049
      15     H     0.45079  0.45079  0.00000  0.09843
      16     H     0.45406  0.45406  0.00000  0.09188
      17     C     3.09096  3.09096  0.00000 -0.18192
      18     H     0.45199  0.45199  0.00000  0.09602
      19     H     0.44952  0.44952  0.00000  0.10095
      20     C     3.15269  3.15269  0.00000 -0.30538
      21     H     0.44777  0.44777  0.00000  0.10447
      22     H     0.45485  0.45485  0.00000  0.09031
      23     H     0.45399  0.45399  0.00000  0.09202
      24     H     0.45417  0.45417  0.00000  0.09167
      25     H     0.44594  0.44594  0.00000  0.10812

   Total alpha = 36.00000, Total beta = 36.00000, Total charge = -0.00000

*** Psi4 exiting successfully. Buy a developer a beer!
