  ==> Input File <==

--------------------------------------------------------------------------
set {
	reference rhf
	basis 6-31G*
}

set_num_threads( 4 )
memory 2 gb

molecule MOL {
0 1

H	 -3.542881	 0.267597	 0.614452
O	 -3.108537	 -0.248575	 -0.050775
C	 -1.776119	 -0.073162	 -0.006514
C	 -1.169707	 0.770702	 0.919315
C	 -1.009078	 -0.772583	 -0.929836
H	 -1.771518	 1.309139	 1.631508
C	 0.202121	 0.911793	 0.918050
H	 -1.500071	 -1.417303	 -1.633777
C	 0.361808	 -0.620999	 -0.918546
H	 0.683276	 1.559441	 1.626670
C	 0.984182	 0.218375	 0.000000
H	 0.956678	 -1.162782	 -1.633853
C	 2.452467	 0.370529	 0.000000
O	 3.228994	 -0.533774	 0.000000
H	 2.809473	 1.405765	 0.000000

	symmetry c1
}
set optking {
	frozen_dihedral = ("
		7 11 13 14
	")
}

ee = optimize('scf')
oeprop('DIPOLE', 'QUADRUPOLE', 'MULLIKEN_CHARGES')
f=open( 'psi4out.xyz', 'w' )
f.write( "15  " )
f.write( str(ee) + "\n" )
f.write( MOL.save_string_xyz() )
f.close()
--------------------------------------------------------------------------

    Molecular point group: c1
  Charge       = 0
  Multiplicity = 1
  Basis Set: 6-31G*
  Basis Set:
  @DF-RHF Final Energy:  -418.28017392335414
    Total Energy =                       -418.2801739233540275
    Molecular point group: c1
  Basis Set: 6-31G*
  Basis Set:
  Basis Set: 6-31G*
  Basis Set:
  @DF-RHF Final Energy:  -418.27977119501747
    Total Energy =                       -418.2797711950169059
  Basis Set: 6-31G*
  Basis Set:
  Basis Set: 6-31G*
  Basis Set:
  @DF-RHF Final Energy:  -418.28108657539917
    Total Energy =                       -418.2810865753995131
  Basis Set: 6-31G*
  Basis Set:
  Basis Set: 6-31G*
  Basis Set:
  @DF-RHF Final Energy:  -418.28148896298524
    Total Energy =                       -418.2814889629855770
  Basis Set: 6-31G*
  Basis Set:
  Basis Set: 6-31G*
  Basis Set:
  @DF-RHF Final Energy:  -418.28149541739856
    Total Energy =                       -418.2814954173983324
  Basis Set: 6-31G*
  Basis Set:
  Basis Set: 6-31G*
  Basis Set:
  @DF-RHF Final Energy:  -418.28149728342385
    Total Energy =                       -418.2814972834240734
  Basis Set: 6-31G*
  Basis Set:
  Charge       = 0
  Multiplicity = 1
  Basis Set: 6-31G*
  Basis Set:

    Orbital Energies (a.u.)
    -----------------------

    Doubly Occupied:

       1A    -20.607221     2A    -20.563262     3A    -11.331204
       4A    -11.318749     5A    -11.260507     6A    -11.253122
       7A    -11.244153     8A    -11.241262     9A    -11.236709
      10A     -1.427680    11A     -1.403123    12A     -1.169234
      13A     -1.040673    14A     -1.035744    15A     -0.890982
      16A     -0.857890    17A     -0.802701    18A     -0.754478
      19A     -0.698112    20A     -0.683518    21A     -0.643448
      22A     -0.627473    23A     -0.607052    24A     -0.604575
      25A     -0.587572    26A     -0.558786    27A     -0.537072
      28A     -0.504821    29A     -0.487043    30A     -0.420564
      31A     -0.355219    32A     -0.325058

  @DF-RHF Final Energy:  -418.28149746313983

   => Energetics <=

    Nuclear Repulsion Energy =            401.1662898908974171
    One-Electron Energy =               -1364.7375613226863607
    Two-Electron Energy =                 545.2897739686492287
    DFT Exchange-Correlation Energy =       0.0000000000000000
    Empirical Dispersion Energy =           0.0000000000000000
    PCM Polarization Energy =               0.0000000000000000
    EFP Energy =                            0.0000000000000000
    Total Energy =                       -418.2814974631397718
    Molecular point group: c1
  Basis Set: 6-31G*
  Basis Set:

  -Total Gradient:
     Atom            X                  Y                   Z
    ------   -----------------  -----------------  -----------------
       1        0.000014819788    -0.000002963083    -0.000003299833
       2        0.000001097731    -0.000029836979     0.000018175701
       3       -0.000012456235     0.000080671810    -0.000059314363
       4        0.000021329912     0.000011714544     0.000006954792
       5        0.000000520252    -0.000044881554     0.000052451033
       6       -0.000002373453    -0.000002256880     0.000000089475
       7        0.000118010476    -0.005891371051     0.004358803799
       8        0.000004344927     0.000000533283    -0.000004947646
       9       -0.000020915244     0.000067713996    -0.000068813021
      10       -0.000001861361     0.000032225671     0.000001051738
      11       -0.000372373577     0.008214790839    -0.002350490313
      12       -0.000000468977    -0.000005629370     0.000005199238
      13        0.000588415119    -0.001868314384    -0.010834269497
      14       -0.000357461823    -0.000558458147     0.008868736745
      15        0.000019372452    -0.000003938692     0.000009672151

  **** Optimization is complete! (in 7 steps) ****
    Final optimized geometry and variables:
    Molecular point group: c1

    Geometry (in Angstrom), charge = 0, multiplicity = 1:

    H           -3.535238768373     0.232503077636     0.667940410986
    O           -3.103132238374    -0.272253048930    -0.007124848431
    C           -1.771658888146    -0.070012152359     0.016291569529
    C           -1.164214708095     0.783449406580     0.923653612034
    C           -1.005255795168    -0.763523841488    -0.916010715012
    H           -1.755394599054     1.306420480257     1.655787801427
    C            0.209505098185     0.957066419125     0.883463294465
    H           -1.497104308049    -1.427416229929    -1.601713219398
    C            0.361536085605    -0.601138083031    -0.927062639383
    H            0.673870046713     1.625782429605     1.588000774212
    C            0.982920631188     0.286226634076    -0.049190174429
    H            0.961910036510    -1.159292334345    -1.621772568977
    C            2.465564884817     0.371697728587     0.019183327269
    O            3.187691870738    -0.573727705468    -0.010544902103
    H            2.876471543011     1.372933081525     0.183621291647

  Mulliken Charges: (a.u.)
   Center  Symbol    Alpha    Beta     Spin     Total
       1     H     0.26951  0.26951  0.00000  0.46099
       2     O     4.37412  4.37412  0.00000 -0.74823
       3     C     2.78824  2.78824  0.00000  0.42351
       4     C     3.14563  3.14563  0.00000 -0.29127
       5     C     3.12509  3.12509  0.00000 -0.25018
       6     H     0.39953  0.39953  0.00000  0.20094
       7     C     3.09393  3.09393  0.00000 -0.18786
       8     H     0.38613  0.38613  0.00000  0.22774
       9     C     3.08224  3.08224  0.00000 -0.16448
      10     H     0.39151  0.39151  0.00000  0.21698
      11     C     3.05291  3.05291  0.00000 -0.10582
      12     H     0.38232  0.38232  0.00000  0.23536
      13     C     2.84747  2.84747  0.00000  0.30507
      14     O     4.23498  4.23498  0.00000 -0.46996
      15     H     0.42639  0.42639  0.00000  0.14723

   Total alpha = 32.00000, Total beta = 32.00000, Total charge = -0.00000
