  ==> Input File <==

--------------------------------------------------------------------------
set {
	reference rhf
	basis 6-31G*
}

set_num_threads( 1 )
memory 2 gb

molecule MOL {
0 1

H	 2.914894	 0.368920	 1.346103
O	 2.213407	 0.919245	 1.028695
C	 1.135793	 0.118896	 0.612333
C	 0.031547	 1.023609	 0.088541
H	 0.753257	 -0.468006	 1.445460
H	 1.455133	 -0.581149	 -0.156472
C	 -1.134819	 0.293262	 -0.585751
H	 0.474374	 1.714721	 -0.623187
H	 -0.338529	 1.620940	 0.920081
C	 -1.917817	 -0.639439	 0.339494
H	 -0.758119	 -0.268455	 -1.433105
H	 -1.813832	 1.041889	 -0.986690
H	 -2.777680	 -1.057197	 -0.174994
H	 -1.310268	 -1.471279	 0.680599
H	 -2.283753	 -0.111424	 1.216626

	symmetry c1
}
set optking {
	frozen_dihedral = ("
		8 4 7 11,
		1 2 3 4
	")
}

ee = energy('scf')
oeprop('DIPOLE', 'QUADRUPOLE', 'MULLIKEN_CHARGES')
f=open( 'psi4out.xyz', 'w' )
f.write( "15  " )
f.write( str(ee) + "\n" )
f.write( MOL.save_string_xyz() )
f.close()
--------------------------------------------------------------------------

    Molecular point group: c1

    Geometry (in Angstrom), charge = 0, multiplicity = 1:

       Center              X                  Y                   Z               Mass
    ------------   -----------------  -----------------  -----------------  -----------------
           H          2.792496779900     0.030682597197     1.019922822198     1.007825032070
           O          2.091009779900     0.581007597197     0.702514822198    15.994914619560
           C          1.013395779900    -0.219341402803     0.286152822198    12.000000000000
           C         -0.090850220100     0.685371597197    -0.237639177802    12.000000000000
           H          0.630859779900    -0.806243402803     1.119279822198     1.007825032070
           H          1.332735779900    -0.919386402803    -0.482652177802     1.007825032070
           C         -1.257216220100    -0.044975402803    -0.911931177802    12.000000000000
           H          0.351976779900     1.376483597197    -0.949367177802     1.007825032070
           H         -0.460926220100     1.282702597197     0.593900822198     1.007825032070
           C         -2.040214220100    -0.977676402803     0.013313822198    12.000000000000
           H         -0.880516220100    -0.606692402803    -1.759285177802     1.007825032070
           H         -1.936229220100     0.703651597197    -1.312870177802     1.007825032070
           H         -2.900077220100    -1.395434402803    -0.501174177802     1.007825032070
           H         -1.432665220100    -1.809516402803     0.354418822198     1.007825032070
           H         -2.406150220100    -0.449661402803     0.890445822198     1.007825032070

  Charge       = 0
  Multiplicity = 1
  Basis Set: 6-31G*
  Basis Set:

    Orbital Energies (a.u.)
    -----------------------

    Doubly Occupied:

       1A    -20.552271     2A    -11.267061     3A    -11.218709
       4A    -11.211555     5A    -11.211507     6A     -1.358533
       7A     -1.070279     8A     -0.970956     9A     -0.870512
      10A     -0.783585    11A     -0.695304    12A     -0.651487
      13A     -0.617302    14A     -0.584266    15A     -0.557178
      16A     -0.537930    17A     -0.507596    18A     -0.474430
      19A     -0.472530    20A     -0.456864    21A     -0.432277

  @DF-RHF Final Energy:  -232.14304199437413

   => Energetics <=

    Nuclear Repulsion Energy =            188.0506913711824950
    One-Electron Energy =                -687.3832030064397713
    Two-Electron Energy =                 267.1894696408832601
    DFT Exchange-Correlation Energy =       0.0000000000000000
    Empirical Dispersion Energy =           0.0000000000000000
    PCM Polarization Energy =               0.0000000000000000
    EFP Energy =                            0.0000000000000000
    Total Energy =                       -232.1430419943740162

  Mulliken Charges: (a.u.)
   Center  Symbol    Alpha    Beta     Spin     Total
       1     H     0.28094  0.28094  0.00000  0.43813
       2     O     4.37170  4.37170  0.00000 -0.74339
       3     C     2.99159  2.99159  0.00000  0.01681
       4     C     3.16021  3.16021  0.00000 -0.32041
       5     H     0.43131  0.43131  0.00000  0.13737
       6     H     0.43326  0.43326  0.00000  0.13347
       7     C     3.15945  3.15945  0.00000 -0.31890
       8     H     0.41228  0.41228  0.00000  0.17545
       9     H     0.41704  0.41704  0.00000  0.16592
      10     C     3.24245  3.24245  0.00000 -0.48490
      11     H     0.42186  0.42186  0.00000  0.15628
      12     H     0.41770  0.41770  0.00000  0.16459
      13     H     0.41814  0.41814  0.00000  0.16373
      14     H     0.42196  0.42196  0.00000  0.15607
      15     H     0.42012  0.42012  0.00000  0.15977

   Total alpha = 21.00000, Total beta = 21.00000, Total charge =  0.00000
