  ==> Input File <==

--------------------------------------------------------------------------
set {
	reference rhf
	basis 6-31G*
}

set_num_threads( 4 )
memory 2 gb

molecule MOL {
0 1

H	 -2.451494	 -1.810377	 -0.006042
C	 -1.673603	 -1.072620	 -0.003486
C	 -1.967531	 0.331346	 -0.000203
C	 -0.384881	 -1.436780	 -0.003272
H	 -2.993103	 0.655762	 -0.000303
C	 -0.977539	 1.235430	 0.002982
H	 -0.081061	 -2.466388	 -0.005595
N	 0.640212	 -0.532897	 -0.000111
H	 -1.159195	 2.292478	 0.005508
C	 0.424726	 0.838902	 0.003260
C	 2.010177	 -1.032049	 0.000042
O	 1.343341	 1.620146	 0.006180
H	 2.187698	 -1.635381	 -0.882279
H	 2.677579	 -0.189247	 -0.001871
H	 2.188882	 -1.632203	 0.884288

	symmetry c1
}
set optking {
	frozen_dihedral = ("
		10 8 11 13
	")
}

ee = optimize('scf')
oeprop('DIPOLE', 'QUADRUPOLE', 'MULLIKEN_CHARGES')
f=open( 'psi4out.xyz', 'w' )
f.write( "15  " )
f.write( str(ee) + "\n" )
f.write( MOL.save_string_xyz() )
f.close()
--------------------------------------------------------------------------

    Molecular point group: c1
  Charge       = 0
  Multiplicity = 1
  Basis Set: 6-31G*
  Basis Set:

    Orbital Energies (a.u.)
    -----------------------

    Doubly Occupied:

       1A    -20.508672     2A    -15.621130     3A    -11.343599
       4A    -11.296531     5A    -11.264013     6A    -11.260485
       7A    -11.233873     8A    -11.229248     9A     -1.384259
      10A     -1.281058    11A     -1.114834    12A     -1.025755
      13A     -0.969911    14A     -0.872072    15A     -0.835310
      16A     -0.715376    17A     -0.698641    18A     -0.660615
      19A     -0.647854    20A     -0.621580    21A     -0.606747
      22A     -0.571910    23A     -0.553688    24A     -0.546937
      25A     -0.525966    26A     -0.476030    27A     -0.413502
      28A     -0.406097    29A     -0.305320

  @DF-RHF Final Energy:  -360.59581604046849

   => Energetics <=

    Nuclear Repulsion Energy =            357.5686035658206379
    One-Electron Energy =               -1198.3468084049768549
    Two-Electron Energy =                 480.1823887986877253
    DFT Exchange-Correlation Energy =       0.0000000000000000
    Empirical Dispersion Energy =           0.0000000000000000
    PCM Polarization Energy =               0.0000000000000000
    EFP Energy =                            0.0000000000000000
    Total Energy =                       -360.5958160404684349
    Molecular point group: c1
  Basis Set: 6-31G*
  Basis Set:

  -Total Gradient:
     Atom            X                  Y                   Z
    ------   -----------------  -----------------  -----------------
       1       -0.000011803196    -0.000039314470     0.000001267216
       2       -0.000052666747     0.000085715923    -0.000001288256
       3       -0.000015441467    -0.000107585077    -0.000002945492
       4        0.000064757062     0.000052854199    -0.000008154927
       5       -0.000013673857     0.000021854784    -0.000000172262
       6        0.000122509622     0.000020589950     0.000005514318
       7       -0.000006924861    -0.000040373555     0.000001014277
       8        0.000010049881    -0.000126297933     0.000029436529
       9        0.000004859692    -0.000068681746     0.000000607260
      10       -0.000050356487     0.000141041786    -0.000010548369
      11        0.000001343028     0.000032350713     0.000007849304
      12        0.000022107052    -0.000002021491    -0.000002332758
      13       -0.000023105732     0.000013466804    -0.000031802263
      14       -0.000008782905    -0.000003558146    -0.000004313400
      15       -0.000042871086     0.000019958259     0.000015868823

  **** Optimization is complete! (in 1 steps) ****
    Final optimized geometry and variables:
    Molecular point group: c1

    Geometry (in Angstrom), charge = 0, multiplicity = 1:

    H           -2.451493490577    -1.810375599294    -0.006801512895
    C           -1.673602490577    -1.072618599294    -0.004245512895
    C           -1.967530490577     0.331347400706    -0.000962512895
    C           -0.384880490577    -1.436778599294    -0.004031512895
    H           -2.993102490577     0.655763400706    -0.001062512895
    C           -0.977538490577     1.235431400706     0.002222487105
    H           -0.081060490577    -2.466386599294    -0.006354512895
    N            0.640212509423    -0.532895599294    -0.000870512895
    H           -1.159194490577     2.292479400706     0.004748487105
    C            0.424726509423     0.838903400706     0.002500487105
    C            2.010177509423    -1.032047599294    -0.000717512895
    O            1.343341509423     1.620147400706     0.005420487105
    H            2.187698509423    -1.635379599294    -0.883038512895
    H            2.677579509423    -0.189245599294    -0.002630512895
    H            2.188882509423    -1.632201599294     0.883528487105

  Mulliken Charges: (a.u.)
   Center  Symbol    Alpha    Beta     Spin     Total
       1     H     0.39281  0.39281  0.00000  0.21437
       2     C     3.16145  3.16145  0.00000 -0.32290
       3     C     3.05824  3.05824  0.00000 -0.11648
       4     C     2.92076  2.92076  0.00000  0.15848
       5     H     0.39083  0.39083  0.00000  0.21834
       6     C     3.16976  3.16976  0.00000 -0.33953
       7     H     0.38787  0.38787  0.00000  0.22425
       8     N     3.86567  3.86567  0.00000 -0.73135
       9     H     0.38634  0.38634  0.00000  0.22733
      10     C     2.59376  2.59376  0.00000  0.81248
      11     C     3.15655  3.15655  0.00000 -0.31311
      12     O     4.32205  4.32205  0.00000 -0.64410
      13     H     0.41046  0.41046  0.00000  0.17908
      14     H     0.37305  0.37305  0.00000  0.25390
      15     H     0.41038  0.41038  0.00000  0.17923

   Total alpha = 29.00000, Total beta = 29.00000, Total charge = -0.00000
