  ==> Input File <==

--------------------------------------------------------------------------
set {
	reference rhf
	basis 6-31G*
}

set_num_threads( 1 )
memory 2 gb

molecule MOL {
0 1

O	 -2.042549	 -1.228399	 -0.269030
C	 -1.653912	 -0.146171	 0.050137
C	 -0.332303	 0.024011	 0.778412
C	 -2.438579	 1.106236	 -0.272369
C	 0.214710	 -1.333245	 1.247991
H	 0.395421	 0.514413	 0.137861
H	 -0.510051	 0.660523	 1.638168
C	 1.531936	 -1.204017	 2.014312
H	 0.361717	 -1.987398	 0.390346
H	 -0.531868	 -1.808344	 1.877312
C	 2.073611	 -2.551347	 2.490228
H	 2.272299	 -0.719209	 1.381659
H	 1.384888	 -0.550106	 2.870668
H	 2.263202	 -3.216509	 1.652573
H	 1.367980	 -3.045538	 3.151518
H	 3.005757	 -2.428848	 3.032560
H	 -3.277823	 0.863061	 -0.908988
H	 -1.806773	 1.843019	 -0.759671
H	 -2.802853	 1.554979	 0.648059

	symmetry c1
}
set optking {
	frozen_dihedral = ("
		11 8 5 9,
		9 5 3 2
	")
}

ee = energy('scf')
oeprop('DIPOLE', 'QUADRUPOLE', 'MULLIKEN_CHARGES')
f=open( 'psi4out.xyz', 'w' )
f.write( "19  " )
f.write( str(ee) + "\n" )
f.write( MOL.save_string_xyz() )
f.close()
--------------------------------------------------------------------------

    Molecular point group: c1

    Geometry (in Angstrom), charge = 0, multiplicity = 1:

       Center              X                  Y                   Z               Mass
    ------------   -----------------  -----------------  -----------------  -----------------
           O         -1.665020892036    -0.456208880148    -1.134578638071    15.994914619560
           C         -1.276383892036     0.626019119852    -0.815411638071    12.000000000000
           C          0.045225107964     0.796201119852    -0.087136638071    12.000000000000
           C         -2.061050892036     1.878426119852    -1.137917638071    12.000000000000
           C          0.592238107964    -0.561054880148     0.382442361929    12.000000000000
           H          0.772949107964     1.286603119852    -0.727687638071     1.007825032070
           H         -0.132522892036     1.432713119852     0.772619361929     1.007825032070
           C          1.909464107964    -0.431826880148     1.148763361929    12.000000000000
           H          0.739245107964    -1.215207880148    -0.475202638071     1.007825032070
           H         -0.154339892036    -1.036153880148     1.011763361929     1.007825032070
           C          2.451139107964    -1.779156880148     1.624679361929    12.000000000000
           H          2.649827107964     0.052981119852     0.516110361929     1.007825032070
           H          1.762416107964     0.222084119852     2.005119361929     1.007825032070
           H          2.640730107964    -2.444318880148     0.787024361929     1.007825032070
           H          1.745508107964    -2.273347880148     2.285969361929     1.007825032070
           H          3.383285107964    -1.656657880148     2.167011361929     1.007825032070
           H         -2.900294892036     1.635251119852    -1.774536638071     1.007825032070
           H         -1.429244892036     2.615209119852    -1.625219638071     1.007825032070
           H         -2.425324892036     2.327169119852    -0.217489638071     1.007825032070

  Charge       = 0
  Multiplicity = 1
  Basis Set: 6-31G*
  Basis Set:

    Orbital Energies (a.u.)
    -----------------------

    Doubly Occupied:

       1A    -20.550219     2A    -11.326245     3A    -11.231372
       4A    -11.229305     5A    -11.217429     6A    -11.215718
       7A    -11.208970     8A     -1.396140     9A     -1.083293
      10A     -1.028608    11A     -0.983776    12A     -0.884589
      13A     -0.798456    14A     -0.730998    15A     -0.657188
      16A     -0.652008    17A     -0.625285    18A     -0.610923
      19A     -0.578657    20A     -0.571546    21A     -0.554735
      22A     -0.527982    23A     -0.511261    24A     -0.488206
      25A     -0.472808    26A     -0.469552    27A     -0.466836
      28A     -0.401230

  @DF-RHF Final Energy:  -309.06589533445299

   => Energetics <=

    Nuclear Repulsion Energy =            301.5307255706220531
    One-Electron Energy =               -1016.2465704624278260
    Two-Electron Energy =                 405.6499495573527838
    DFT Exchange-Correlation Energy =       0.0000000000000000
    Empirical Dispersion Energy =           0.0000000000000000
    PCM Polarization Energy =               0.0000000000000000
    EFP Energy =                            0.0000000000000000
    Total Energy =                       -309.0658953344529891

  Mulliken Charges: (a.u.)
   Center  Symbol    Alpha    Beta     Spin     Total
       1     O     4.26042  4.26042  0.00000 -0.52084
       2     C     2.73683  2.73683  0.00000  0.52633
       3     C     3.21097  3.21097  0.00000 -0.42195
       4     C     3.28605  3.28605  0.00000 -0.57209
       5     C     3.14767  3.14767  0.00000 -0.29533
       6     H     0.40587  0.40587  0.00000  0.18827
       7     H     0.41206  0.41206  0.00000  0.17588
       8     C     3.15293  3.15293  0.00000 -0.30585
       9     H     0.41016  0.41016  0.00000  0.17967
      10     H     0.41517  0.41517  0.00000  0.16967
      11     C     3.23909  3.23909  0.00000 -0.47817
      12     H     0.42456  0.42456  0.00000  0.15089
      13     H     0.42504  0.42504  0.00000  0.14992
      14     H     0.42000  0.42000  0.00000  0.16000
      15     H     0.42038  0.42038  0.00000  0.15925
      16     H     0.41956  0.41956  0.00000  0.16088
      17     H     0.39643  0.39643  0.00000  0.20715
      18     H     0.40954  0.40954  0.00000  0.18092
      19     H     0.40729  0.40729  0.00000  0.18541

   Total alpha = 28.00000, Total beta = 28.00000, Total charge = -0.00000
