                              Psi4 1.0.54 Driver

  ==> Input File <==

--------------------------------------------------------------------------
set {
	reference rhf
	basis cc-pvtz
}

set_num_threads( 4 )
memory 2 gb

molecule MOL {
0 1

H	 1.838450	 0.647802	 -1.143306
O	 1.061153	 0.112696	 -1.197510
C	 0.489979	 0.078084	 0.002623
C	 -0.763662	 -0.754014	 0.000816
O	 0.940465	 0.652599	 0.932627
C	 -2.038001	 0.074705	 -0.000833
H	 -0.712945	 -1.405886	 -0.864342
H	 -0.715137	 -1.405770	 0.866182
H	 -2.087267	 0.710831	 -0.874232
H	 -2.903419	 -0.576199	 -0.001922
H	 -2.089467	 0.710909	 0.872389

	symmetry c1
}
set optking {
	frozen_dihedral = ("
		2 3 4 7
	")
}

ee,wfn = optimize('scf', return_wfn=True)
oeprop( wfn, 'DIPOLE', 'QUADRUPOLE', 'MULLIKEN_CHARGES')
f=open( 'psi4out.xyz', 'w' )
f.write( "11  " )
f.write( str(ee) + "\n" )
f.write( MOL.save_string_xyz() )
f.close()
--------------------------------------------------------------------------

    Molecular point group: c1
  Charge       = 0
  Multiplicity = 1
  Basis Set: CC-PVTZ
  Basis Set:
  @DF-RHF Final Energy:  -266.95055412597378
    Total Energy =                       -266.9505541259738948
    Molecular point group: c1
  Basis Set: CC-PVTZ
  Basis Set:
  Basis Set: CC-PVTZ
  Basis Set:
  @DF-RHF Final Energy:  -266.95119174369540
    Total Energy =                       -266.9511917436953468
  Basis Set: CC-PVTZ
  Basis Set:
  Basis Set: CC-PVTZ
  Basis Set:
  @DF-RHF Final Energy:  -266.94919838279725
    Total Energy =                       -266.9491983827972490
  Basis Set: CC-PVTZ
  Basis Set:
  Basis Set: CC-PVTZ
  Basis Set:
  @DF-RHF Final Energy:  -266.95127731834219
    Total Energy =                       -266.9512773183423064
  Basis Set: CC-PVTZ
  Basis Set:
  Basis Set: CC-PVTZ
  Basis Set:
  @DF-RHF Final Energy:  -266.95133873810528
    Total Energy =                       -266.9513387381053917
  Basis Set: CC-PVTZ
  Basis Set:
  Basis Set: CC-PVTZ
  Basis Set:
  @DF-RHF Final Energy:  -266.95134162998590
    Total Energy =                       -266.9513416299859045
  Basis Set: CC-PVTZ
  Basis Set:
  Charge       = 0
  Multiplicity = 1
  Basis Set: CC-PVTZ
  Basis Set:

    Orbital Energies (a.u.)
    -----------------------

    Doubly Occupied:

       1A    -20.606980     2A    -20.538905     3A    -11.373792
       4A    -11.241384     5A    -11.228420     6A     -1.478759
       7A     -1.369108     8A     -1.068169     9A     -0.915220
      10A     -0.815644    11A     -0.706987    12A     -0.690007
      13A     -0.646646    14A     -0.617163    15A     -0.595902
      16A     -0.542474    17A     -0.527674    18A     -0.513356
      19A     -0.479335    20A     -0.444848

  @DF-RHF Final Energy:  -266.95134275268651

   => Energetics <=

    Nuclear Repulsion Energy =            180.2534055550856635
    One-Electron Energy =                -721.6079492042048287
    Two-Electron Energy =                 274.4032008964326224
    DFT Exchange-Correlation Energy =       0.0000000000000000
    Empirical Dispersion Energy =           0.0000000000000000
    PCM Polarization Energy =               0.0000000000000000
    EFP Energy =                            0.0000000000000000
    Total Energy =                       -266.9513427526865144
    Molecular point group: c1
  Basis Set: CC-PVTZ
  Basis Set:

  -Total Gradient:
     Atom            X                  Y                   Z
    ------   -----------------  -----------------  -----------------
       1       -0.000002546647     0.000003598947     0.000007443090
       2        0.000104726746    -0.000257207860     0.000081719986
       3       -0.000171774427     0.000355352689    -0.000194462019
       4        0.000172370038    -0.000340670336     0.000296390742
       5        0.000001275836     0.000032358294     0.000040866792
       6        0.000018236770    -0.000021927900     0.000014629038
       7       -0.000117666599     0.000216488363    -0.000246113993
       8        0.000007259466     0.000003966026     0.000002183337
       9        0.000004035318     0.000004046412    -0.000008771410
      10       -0.000011907571    -0.000005236739     0.000000969668
      11       -0.000004008929     0.000009232104     0.000005144773

  **** Optimization is complete! (in 7 steps) ****
    Final optimized geometry and variables:
    Molecular point group: c1

    Geometry (in Angstrom), charge = 0, multiplicity = 1:

    H            2.042523604585     0.348476216250    -0.822480713659
    O            1.244294747067    -0.142253643954    -0.951045728759
    C            0.502862754005    -0.031406624213     0.145749042424
    C           -0.819570613910    -0.742937604250     0.036451711455
    O            0.859743660138     0.588189584920     1.088308211092
    C           -1.948826402599     0.254029166026    -0.238058072348
    H           -0.769107876644    -1.482338797762    -0.749833034955
    H           -0.991550855777    -1.243972078264     0.979170537437
    H           -1.796315407242     0.766776252629    -1.180244090993
    H           -2.897212471502    -0.264944818242    -0.289063840384
    H           -2.005625038137     0.993978544512     0.549079460744

  Mulliken Charges: (a.u.)
   Center  Symbol    Alpha    Beta     Spin     Total
       1     H     0.37979  0.37979  0.00000  0.24042
       2     O     4.16189  4.16189  0.00000 -0.32377
       3     C     2.79848  2.79848  0.00000  0.40305
       4     C     3.08950  3.08950  0.00000 -0.17899
       5     O     4.19927  4.19927  0.00000 -0.39854
       6     C     3.14831  3.14831  0.00000 -0.29663
       7     H     0.44108  0.44108  0.00000  0.11783
       8     H     0.44040  0.44040  0.00000  0.11921
       9     H     0.45048  0.45048  0.00000  0.09905
      10     H     0.44748  0.44748  0.00000  0.10504
      11     H     0.44333  0.44333  0.00000  0.11334

   Total alpha = 20.00000, Total beta = 20.00000, Total charge = -0.00000

*** Psi4 exiting successfully. Buy a developer a beer!
