  ==> Input File <==

--------------------------------------------------------------------------
set {
	reference rhf
	basis 6-31G*
}

set_num_threads( 4 )
memory 2 gb

molecule MOL {
0 1

H	 -3.269016	 -0.876744	 0.468090
C	 -2.809304	 0.000122	 0.025886
N	 -1.391456	 0.000019	 0.300661
H	 -3.037557	 -0.000063	 -1.044252
H	 -3.269223	 0.876956	 0.468000
C	 -1.046670	 0.862359	 1.413890
C	 -0.603870	 0.332281	 -0.870287
H	 -1.296556	 1.907174	 1.205503
H	 -1.617749	 0.554476	 2.283740
C	 0.438194	 0.759432	 1.725585
H	 -0.852038	 -0.362195	 -1.666321
H	 -0.824442	 1.342008	 -1.229880
C	 0.880995	 0.229353	 -0.558592
H	 0.686363	 1.453908	 2.521620
H	 0.658767	 -0.250296	 2.085177
N	 1.225781	 1.091694	 0.554637
H	 1.452074	 0.537237	 -1.428442
H	 1.130881	 -0.815461	 -0.350205
C	 2.643629	 1.091592	 0.829412
H	 2.863470	 1.794918	 1.624883
H	 3.189098	 1.405299	 -0.053696
H	 3.020827	 0.109609	 1.130622

	symmetry c1
}
set optking {
	frozen_dihedral = ("
		6 3 2 4
	")
}

ee = optimize('scf')
oeprop('DIPOLE', 'QUADRUPOLE', 'MULLIKEN_CHARGES')
f=open( 'psi4out.xyz', 'w' )
f.write( "22  " )
f.write( str(ee) + "\n" )
f.write( MOL.save_string_xyz() )
f.close()
--------------------------------------------------------------------------

    Molecular point group: c1
  Charge       = 0
  Multiplicity = 1
  Basis Set: 6-31G*
  Basis Set:
  @DF-RHF Final Energy:  -344.22455783545706
    Total Energy =                       -344.2245578354568352
    Molecular point group: c1
  Basis Set: 6-31G*
  Basis Set:
  Basis Set: 6-31G*
  Basis Set:
  @DF-RHF Final Energy:  -344.22525343173174
    Total Energy =                       -344.2252534317318577
  Basis Set: 6-31G*
  Basis Set:
  Basis Set: 6-31G*
  Basis Set:
  @DF-RHF Final Energy:  -344.22537300847819
    Total Energy =                       -344.2253730084780727
  Basis Set: 6-31G*
  Basis Set:
  Basis Set: 6-31G*
  Basis Set:
  @DF-RHF Final Energy:  -344.22537505040719
    Total Energy =                       -344.2253750504073651
  Basis Set: 6-31G*
  Basis Set:
  Charge       = 0
  Multiplicity = 1
  Basis Set: 6-31G*
  Basis Set:

    Orbital Energies (a.u.)
    -----------------------

    Doubly Occupied:

       1A    -15.541301     2A    -15.539942     3A    -11.238484
       4A    -11.238326     5A    -11.237542     6A    -11.237514
       7A    -11.235682     8A    -11.235508     9A     -1.253237
      10A     -1.201578    11A     -1.023911    12A     -0.990693
      13A     -0.911689    14A     -0.865894    15A     -0.835664
      16A     -0.754936    17A     -0.664574    18A     -0.634370
      19A     -0.629177    20A     -0.624154    21A     -0.619482
      22A     -0.579808    23A     -0.551476    24A     -0.547947
      25A     -0.541451    26A     -0.519794    27A     -0.497357
      28A     -0.487090    29A     -0.463398    30A     -0.454727
      31A     -0.348732    32A     -0.342618

  @DF-RHF Final Energy:  -344.22537541021461

   => Energetics <=

    Nuclear Repulsion Energy =            420.9922587918845238
    One-Electron Energy =               -1300.7391495841452524
    Two-Electron Energy =                 535.5215153820460046
    DFT Exchange-Correlation Energy =       0.0000000000000000
    Empirical Dispersion Energy =           0.0000000000000000
    PCM Polarization Energy =               0.0000000000000000
    EFP Energy =                            0.0000000000000000
    Total Energy =                       -344.2253754102147241
    Molecular point group: c1
  Basis Set: 6-31G*
  Basis Set:

  -Total Gradient:
     Atom            X                  Y                   Z
    ------   -----------------  -----------------  -----------------
       1        0.000000612050     0.000004685906    -0.000001221341
       2        0.000230979190    -0.004191378649    -0.000744735229
       3       -0.000454889287    -0.002139794101     0.002641004342
       4       -0.000081964592     0.004018542715     0.000008848624
       5        0.000000606822    -0.000005416589     0.000003659704
       6        0.000293100480     0.002302682255    -0.001933062188
       7       -0.000008560560    -0.000005959262     0.000031526328
       8        0.000002182771     0.000003328779     0.000002730194
       9       -0.000002111895     0.000001350265    -0.000002193647
      10        0.000001889492     0.000013046383     0.000009590616
      11        0.000003944051     0.000003095482     0.000005007931
      12       -0.000004679453     0.000002947548    -0.000002856705
      13        0.000014799013    -0.000014812554    -0.000011524894
      14        0.000006456167     0.000001551722     0.000003105888
      15       -0.000005068172     0.000002856505    -0.000001832436
      16       -0.000005699571     0.000003271105    -0.000002008134
      17        0.000006412651     0.000001510804    -0.000000123286
      18        0.000000891789    -0.000000547993     0.000000252398
      19        0.000002720231    -0.000000331238    -0.000005989818
      20       -0.000001016481    -0.000000086725    -0.000000098876
      21        0.000000575864    -0.000000786933     0.000000645155
      22       -0.000001180562     0.000000244576    -0.000000724627

  **** Optimization is complete! (in 5 steps) ****
    Final optimized geometry and variables:
    Molecular point group: c1

    Geometry (in Angstrom), charge = 0, multiplicity = 1:

    H           -3.201158153620    -1.444101046641     0.055700285724
    C           -2.740885050754    -0.566967233681    -0.387359621138
    N           -1.309181073664    -0.540918294348    -0.131268906142
    H           -2.940595176737    -0.566207564730    -1.452567922854
    H           -3.241185720788     0.313964479083     0.014460106766
    C           -0.960253437080     0.322521355206     0.980588535985
    C           -0.520004446808    -0.200934494166    -1.301429380088
    H           -1.207470879109     1.366845319307     0.768410806749
    H           -1.532731492442     0.019870859917     1.851721609518
    C            0.522965806601     0.215473745737     1.296550964827
    H           -0.764218327735    -0.892083026462    -2.100780967370
    H           -0.734382800694     0.811065449300    -1.658030178165
    C            0.963943129064    -0.311369516115    -0.988127055989
    H            0.771013268971     0.909554729306     2.093158614133
    H            0.739802096374    -0.794778950750     1.656855550907
    N            1.313842435508     0.545870799920     0.127396662918
    H            1.537230433601    -0.004533508899    -1.857060461359
    H            1.207296449390    -1.358279511576    -0.782331625937
    C            2.731277566728     0.535847452683     0.403167012147
    H            2.955288551685     1.235143545287     1.201093672895
    H            3.279418121270     0.848871919733    -0.478556783916
    H            3.102128767962    -0.449506054178     0.701360020870

  Mulliken Charges: (a.u.)
   Center  Symbol    Alpha    Beta     Spin     Total
       1     H     0.41524  0.41524  0.00000  0.16952
       2     C     3.14006  3.14006  0.00000 -0.28012
       3     N     3.78912  3.78912  0.00000 -0.57824
       4     H     0.42008  0.42008  0.00000  0.15984
       5     H     0.42723  0.42723  0.00000  0.14555
       6     C     3.05834  3.05834  0.00000 -0.11668
       7     C     3.05784  3.05784  0.00000 -0.11568
       8     H     0.42818  0.42818  0.00000  0.14363
       9     H     0.41730  0.41730  0.00000  0.16540
      10     C     3.05591  3.05591  0.00000 -0.11183
      11     H     0.41741  0.41741  0.00000  0.16518
      12     H     0.42884  0.42884  0.00000  0.14232
      13     C     3.05629  3.05629  0.00000 -0.11257
      14     H     0.41825  0.41825  0.00000  0.16350
      15     H     0.42855  0.42855  0.00000  0.14289
      16     N     3.78707  3.78707  0.00000 -0.57415
      17     H     0.41829  0.41829  0.00000  0.16342
      18     H     0.42854  0.42854  0.00000  0.14292
      19     C     3.14019  3.14019  0.00000 -0.28039
      20     H     0.41689  0.41689  0.00000  0.16622
      21     H     0.41689  0.41689  0.00000  0.16622
      22     H     0.43348  0.43348  0.00000  0.13304

   Total alpha = 32.00000, Total beta = 32.00000, Total charge =  0.00000
