                              Psi4 1.0.54 Driver

  ==> Input File <==

--------------------------------------------------------------------------
set {
	reference rhf
	basis cc-pvtz
}

set_num_threads( 4 )
memory 2 gb

molecule MOL {
0 1

H	 -3.078288	 2.603489	 -1.428908
O	 -2.377613	 2.022633	 -1.660975
C	 -1.713781	 1.581322	 -0.506424
C	 -0.593456	 0.649035	 -0.920954
H	 -1.307532	 2.426321	 0.045584
H	 -2.403976	 1.060265	 0.153849
C	 0.196029	 0.106276	 0.266738
H	 0.068122	 1.184873	 -1.594313
H	 -1.020831	 -0.169971	 -1.490598
C	 1.330220	 -0.826136	 -0.155230
H	 0.595044	 0.938078	 0.839108
H	 -0.475471	 -0.430372	 0.933580
C	 2.719700	 -0.407669	 0.328325
H	 1.339388	 -0.911200	 -1.239363
H	 1.119001	 -1.821953	 0.224128
C	 3.241564	 0.893452	 -0.276737
H	 3.418299	 -1.204729	 0.093035
H	 2.711776	 -0.323368	 1.411960
H	 3.254204	 0.841071	 -1.360784
H	 2.634460	 1.745075	 0.005842
H	 4.254264	 1.092401	 0.054971

	symmetry c1
}
set optking {
	frozen_dihedral = ("
		4 7 10 14
	")
}

ee,wfn = optimize('scf', return_wfn=True)
oeprop( wfn, 'DIPOLE', 'QUADRUPOLE', 'MULLIKEN_CHARGES')
f=open( 'psi4out.xyz', 'w' )
f.write( "21  " )
f.write( str(ee) + "\n" )
f.write( MOL.save_string_xyz() )
f.close()
--------------------------------------------------------------------------

    Molecular point group: c1
  Charge       = 0
  Multiplicity = 1
  Basis Set: CC-PVTZ
  Basis Set:
  @DF-RHF Final Energy:  -310.32752950563605
    Total Energy =                       -310.3275295056357663
    Molecular point group: c1
  Basis Set: CC-PVTZ
  Basis Set:
  Basis Set: CC-PVTZ
  Basis Set:
  @DF-RHF Final Energy:  -310.32781390622813
    Total Energy =                       -310.3278139062280161
  Basis Set: CC-PVTZ
  Basis Set:
  Basis Set: CC-PVTZ
  Basis Set:
  @DF-RHF Final Energy:  -310.32784138127948
    Total Energy =                       -310.3278413812793701
  Basis Set: CC-PVTZ
  Basis Set:
  Basis Set: CC-PVTZ
  Basis Set:
  @DF-RHF Final Energy:  -310.32791650035517
    Total Energy =                       -310.3279165003551725
  Basis Set: CC-PVTZ
  Basis Set:
  Basis Set: CC-PVTZ
  Basis Set:
  @DF-RHF Final Energy:  -310.32791860551583
    Total Energy =                       -310.3279186055159471
  Basis Set: CC-PVTZ
  Basis Set:
  Charge       = 0
  Multiplicity = 1
  Basis Set: CC-PVTZ
  Basis Set:

    Orbital Energies (a.u.)
    -----------------------

    Doubly Occupied:

       1A    -20.545360     2A    -11.264759     3A    -11.213230
       4A    -11.213118     5A    -11.210947     6A    -11.209197
       7A    -11.205722     8A     -1.363189     9A     -1.085657
      10A     -1.033653    11A     -0.954505    12A     -0.876713
      13A     -0.807465    14A     -0.780353    15A     -0.696054
      16A     -0.661304    17A     -0.620428    18A     -0.611607
      19A     -0.588528    20A     -0.557258    21A     -0.553582
      22A     -0.520527    23A     -0.501372    24A     -0.494009
      25A     -0.481630    26A     -0.459961    27A     -0.450513
      28A     -0.443519    29A     -0.437564

  @DF-RHF Final Energy:  -310.32792008750954

   => Energetics <=

    Nuclear Repulsion Energy =            316.2184944973805045
    One-Electron Energy =               -1047.4093760444461623
    Two-Electron Energy =                 420.8629614595563453
    DFT Exchange-Correlation Energy =       0.0000000000000000
    Empirical Dispersion Energy =           0.0000000000000000
    PCM Polarization Energy =               0.0000000000000000
    EFP Energy =                            0.0000000000000000
    Total Energy =                       -310.3279200875092556
    Molecular point group: c1
  Basis Set: CC-PVTZ
  Basis Set:

  -Total Gradient:
     Atom            X                  Y                   Z
    ------   -----------------  -----------------  -----------------
       1       -0.000000023694    -0.000000059863     0.000000554271
       2       -0.000007756111     0.000005219319    -0.000010119129
       3        0.000008412301    -0.000003668384     0.000014624911
       4        0.000242679417     0.000290799239    -0.000008683201
       5       -0.000001718198    -0.000001010354    -0.000002924610
       6       -0.000000715514     0.000000658430    -0.000000825791
       7       -0.000388642161    -0.000506149930     0.000020172159
       8        0.000001295245    -0.000000856128     0.000005097705
       9        0.000003662185    -0.000003140363     0.000003916154
      10        0.000470160800     0.000634181640    -0.000015710873
      11       -0.000007129569     0.000004749814    -0.000009230634
      12       -0.000008400242    -0.000007485673    -0.000000479512
      13        0.000010591345    -0.000013747813    -0.000018157549
      14       -0.000309592599    -0.000396924068     0.000018316492
      15        0.000000474055    -0.000001919076     0.000008379165
      16       -0.000016036013    -0.000023328099     0.000022622183
      17        0.000004278634    -0.000005494516     0.000001572643
      18       -0.000008683100    -0.000000118617    -0.000008243363
      19        0.000005808038    -0.000005532568    -0.000045576966
      20       -0.000023783343     0.000034327713     0.000006294108
      21        0.000025118516    -0.000000500704     0.000018401838

  **** Optimization is complete! (in 6 steps) ****
    Final optimized geometry and variables:
    Molecular point group: c1

    Geometry (in Angstrom), charge = 0, multiplicity = 1:

    H           -3.448275712497     2.009089014240    -0.900749265064
    O           -2.742739865111     1.444302865859    -1.156353393624
    C           -2.074632471191     0.961797034578    -0.020880539933
    C           -0.946482081115     0.057193808364    -0.472666565403
    H           -1.675574946713     1.787038471904     0.565424364773
    H           -2.759882430504     0.408220459706     0.617749928853
    C           -0.149452405141    -0.525084601497     0.691787946715
    H           -0.290169079117     0.622959421005    -1.126167206636
    H           -1.366608600943    -0.744049684225    -1.072454938524
    C            0.997341460917    -1.459990518353     0.250974510242
    H            0.249715466924     0.289426876591     1.288514921762
    H           -0.824221731498    -1.066452703436     1.347455482177
    C            2.384659066356    -1.047655145425     0.746759584096
    H            1.018014243401    -1.526199047382    -0.832940110226
    H            0.793362415622    -2.465451378718     0.602498884124
    C            2.914865747675     0.237821279902     0.117263331828
    H            3.083171952510    -1.852139643504     0.537443187223
    H            2.361340721628    -0.940118487232     1.828058008331
    H            2.998952381667     0.135183212003    -0.959682565872
    H            2.267228817474     1.083990617205     0.316895153183
    H            3.897908131201     0.481921364090     0.503618585157

  Mulliken Charges: (a.u.)
   Center  Symbol    Alpha    Beta     Spin     Total
       1     H     0.39739  0.39739  0.00000  0.20522
       2     O     4.19497  4.19497  0.00000 -0.38995
       3     C     2.96394  2.96394  0.00000  0.07212
       4     C     3.08407  3.08407  0.00000 -0.16814
       5     H     0.47498  0.47498  0.00000  0.05004
       6     H     0.47476  0.47476  0.00000  0.05049
       7     C     3.11633  3.11633  0.00000 -0.23266
       8     H     0.44981  0.44981  0.00000  0.10038
       9     H     0.44991  0.44991  0.00000  0.10018
      10     C     3.09797  3.09797  0.00000 -0.19594
      11     H     0.45261  0.45261  0.00000  0.09477
      12     H     0.44570  0.44570  0.00000  0.10861
      13     C     3.08813  3.08813  0.00000 -0.17626
      14     H     0.45320  0.45320  0.00000  0.09360
      15     H     0.44522  0.44522  0.00000  0.10956
      16     C     3.15171  3.15171  0.00000 -0.30342
      17     H     0.44913  0.44913  0.00000  0.10174
      18     H     0.45500  0.45500  0.00000  0.08999
      19     H     0.45373  0.45373  0.00000  0.09253
      20     H     0.45496  0.45496  0.00000  0.09008
      21     H     0.44648  0.44648  0.00000  0.10705

   Total alpha = 29.00000, Total beta = 29.00000, Total charge = -0.00000

*** Psi4 exiting successfully. Buy a developer a beer!
