  ==> Input File <==

--------------------------------------------------------------------------
set {
	reference rhf
	basis 6-31G*
}

set_num_threads( 4 )
memory 2 gb

molecule MOL {
0 1

H	 -3.793768	 0.404102	 -1.001490
O	 -3.517110	 -0.026191	 -0.205115
C	 -2.306886	 0.532354	 0.237577
C	 -1.177863	 -0.397191	 -0.171080
H	 -2.156308	 1.517575	 -0.201710
H	 -2.315015	 0.655684	 1.319734
C	 0.198102	 0.111031	 0.262842
H	 -1.208843	 -0.518759	 -1.250427
H	 -1.368741	 -1.376554	 0.258909
C	 1.331804	 -0.827780	 -0.158768
H	 0.361943	 1.100838	 -0.156218
H	 0.217265	 0.229072	 1.345532
C	 2.723619	 -0.410569	 0.329459
H	 1.342964	 -0.912588	 -1.244120
H	 1.116806	 -1.824343	 0.220779
C	 3.243875	 0.895854	 -0.272975
H	 3.424222	 -1.207124	 0.091250
H	 2.714788	 -0.329854	 1.414619
H	 3.251977	 0.848779	 -1.358681
H	 2.637085	 1.747371	 0.016682
H	 4.259473	 1.094070	 0.055697

	symmetry c1
}
set optking {
	frozen_dihedral = ("
		1 2 3 5
	")
}

ee = optimize('scf')
oeprop('DIPOLE', 'QUADRUPOLE', 'MULLIKEN_CHARGES')
f=open( 'psi4out.xyz', 'w' )
f.write( "21  " )
f.write( str(ee) + "\n" )
f.write( MOL.save_string_xyz() )
f.close()
--------------------------------------------------------------------------

    Molecular point group: c1
  Charge       = 0
  Multiplicity = 1
  Basis Set: 6-31G*
  Basis Set:
  @DF-RHF Final Energy:  -310.21037769576964
    Total Energy =                       -310.2103776957699210
    Molecular point group: c1
  Basis Set: 6-31G*
  Basis Set:
  Basis Set: 6-31G*
  Basis Set:
  @DF-RHF Final Energy:  -310.21110067156650
    Total Energy =                       -310.2111006715667259
  Basis Set: 6-31G*
  Basis Set:
  Basis Set: 6-31G*
  Basis Set:
  @DF-RHF Final Energy:  -310.21131750108094
    Total Energy =                       -310.2113175010807140
  Basis Set: 6-31G*
  Basis Set:
  Basis Set: 6-31G*
  Basis Set:
  @DF-RHF Final Energy:  -310.21131896875721
    Total Energy =                       -310.2113189687572685
  Basis Set: 6-31G*
  Basis Set:
  Charge       = 0
  Multiplicity = 1
  Basis Set: 6-31G*
  Basis Set:

    Orbital Energies (a.u.)
    -----------------------

    Doubly Occupied:

       1A    -20.551031     2A    -11.267427     3A    -11.216619
       4A    -11.216024     5A    -11.214765     6A    -11.211273
       7A    -11.209162     8A     -1.357638     9A     -1.086966
      10A     -1.033430    11A     -0.954687    12A     -0.877689
      13A     -0.812219    14A     -0.779280    15A     -0.700261
      16A     -0.645544    17A     -0.623410    18A     -0.603085
      19A     -0.592815    20A     -0.569794    21A     -0.544069
      22A     -0.521004    23A     -0.507794    24A     -0.493497
      25A     -0.471401    26A     -0.467460    27A     -0.460389
      28A     -0.456260    29A     -0.419133

  @DF-RHF Final Energy:  -310.21131813405157

   => Energetics <=

    Nuclear Repulsion Energy =            312.1026779239526832
    One-Electron Energy =               -1038.8997421731990016
    Two-Electron Energy =                 416.5857461151945813
    DFT Exchange-Correlation Energy =       0.0000000000000000
    Empirical Dispersion Energy =           0.0000000000000000
    PCM Polarization Energy =               0.0000000000000000
    EFP Energy =                            0.0000000000000000
    Total Energy =                       -310.2113181340517372
    Molecular point group: c1
  Basis Set: 6-31G*
  Basis Set:

  -Total Gradient:
     Atom            X                  Y                   Z
    ------   -----------------  -----------------  -----------------
       1       -0.000624490816     0.001059889790     0.000852283789
       2        0.001132233496    -0.001414907731    -0.001246302412
       3       -0.000865518001     0.001010135542     0.001484193182
       4       -0.000185992470    -0.000030621233     0.000002479600
       5        0.000484667899    -0.000547455080    -0.001085554716
       6       -0.000048144145    -0.000046823893    -0.000012852435
       7       -0.000033222124     0.000020177921    -0.000020846935
       8       -0.000006569212     0.000002030988     0.000011186397
       9        0.000032599097    -0.000034698532    -0.000022584557
      10        0.000023691450    -0.000005217285     0.000076502960
      11        0.000049624384     0.000039947616     0.000005072771
      12        0.000014146713    -0.000008488877    -0.000035332221
      13        0.000069639495    -0.000068585547    -0.000062281149
      14        0.000002118859    -0.000020945566     0.000023565158
      15       -0.000025721302     0.000021623144     0.000019266889
      16       -0.000032405600     0.000004464401     0.000020190617
      17        0.000044296047     0.000024707198    -0.000014728451
      18        0.000013712410    -0.000030733713    -0.000010125683
      19        0.000010259668    -0.000010354370     0.000013896314
      20       -0.000048082565     0.000020585116    -0.000010712291
      21       -0.000006843276     0.000015270111     0.000012683172

  **** Optimization is complete! (in 5 steps) ****
    Final optimized geometry and variables:
    Molecular point group: c1

    Geometry (in Angstrom), charge = 0, multiplicity = 1:

    H           -3.878767456142     0.426974892367    -0.921598902946
    O           -3.558685428394    -0.003992343765    -0.144027052885
    C           -2.307751183111     0.527763097117     0.220917860313
    C           -1.172673130785    -0.403122798491    -0.184273032106
    H           -2.160307410288     1.507280707645    -0.229105439720
    H           -2.314664047191     0.663340314852     1.296751596461
    C            0.201596448638     0.106609993423     0.254233382953
    H           -1.193388982153    -0.531288625350    -1.264780764841
    H           -1.364516673163    -1.382036652651     0.246471696838
    C            1.339860575482    -0.833066092313    -0.153313276213
    H            0.368425265197     1.094904455870    -0.168088158071
    H            0.212305903408     0.230923821723     1.336252625971
    C            2.727713761621    -0.411296576122     0.342442216164
    H            1.359428978788    -0.924463120808    -1.238131106834
    H            1.123130766334    -1.827529859955     0.230585507206
    C            3.245136417680     0.898911965321    -0.254151357536
    H            3.432997901367    -1.204180224989     0.105766935600
    H            2.713167100121    -0.333224292035     1.427660406414
    H            3.260904410972     0.853841467108    -1.339908273905
    H            2.632024837282     1.746739517034     0.033046984012
    H            4.257427132802     1.101843722055     0.081664499627

  Mulliken Charges: (a.u.)
   Center  Symbol    Alpha    Beta     Spin     Total
       1     H     0.28040  0.28040  0.00000  0.43920
       2     O     4.37310  4.37310  0.00000 -0.74619
       3     C     2.99311  2.99311  0.00000  0.01378
       4     C     3.15811  3.15811  0.00000 -0.31622
       5     H     0.43249  0.43249  0.00000  0.13502
       6     H     0.42004  0.42004  0.00000  0.15993
       7     C     3.16277  3.16277  0.00000 -0.32553
       8     H     0.42472  0.42472  0.00000  0.15055
       9     H     0.41444  0.41444  0.00000  0.17112
      10     C     3.15137  3.15137  0.00000 -0.30274
      11     H     0.42269  0.42269  0.00000  0.15462
      12     H     0.42284  0.42284  0.00000  0.15433
      13     C     3.15247  3.15247  0.00000 -0.30494
      14     H     0.42399  0.42399  0.00000  0.15202
      15     H     0.42064  0.42064  0.00000  0.15871
      16     C     3.24127  3.24127  0.00000 -0.48253
      17     H     0.42057  0.42057  0.00000  0.15886
      18     H     0.42307  0.42307  0.00000  0.15385
      19     H     0.42243  0.42243  0.00000  0.15514
      20     H     0.42052  0.42052  0.00000  0.15896
      21     H     0.41896  0.41896  0.00000  0.16208

   Total alpha = 29.00000, Total beta = 29.00000, Total charge = -0.00000
