  ==> Input File <==

--------------------------------------------------------------------------
set {
	reference rhf
	basis 6-31G*
}

set_num_threads( 4 )
memory 2 gb

molecule MOL {
0 1

H	 -2.798360	 -0.862255	 -0.071053
N	 -1.863561	 -0.715187	 0.256814
C	 -1.344686	 0.554728	 -0.219830
H	 -1.300452	 -1.461917	 -0.101532
C	 -2.427405	 1.611619	 -0.157879
H	 -0.480812	 0.914222	 0.340962
H	 -1.035631	 0.437073	 -1.253959
O	 -2.765758	 1.814701	 1.184269
H	 -2.070981	 2.542206	 -0.599024
H	 -3.296893	 1.277797	 -0.719829
C	 -3.816262	 2.706029	 1.383134
H	 -3.984407	 2.782416	 2.448775
H	 -3.578932	 3.694277	 0.993234
H	 -4.729589	 2.356956	 0.905860

	symmetry c1
}
set optking {
	frozen_dihedral = ("
		6 3 2 4
	")
}

ee = optimize('scf')
oeprop('DIPOLE', 'QUADRUPOLE', 'MULLIKEN_CHARGES')
f=open( 'psi4out.xyz', 'w' )
f.write( "14  " )
f.write( str(ee) + "\n" )
f.write( MOL.save_string_xyz() )
f.close()
--------------------------------------------------------------------------

    Molecular point group: c1
  Charge       = 0
  Multiplicity = 1
  Basis Set: 6-31G*
  Basis Set:
  @DF-RHF Final Energy:  -248.11611320220342
    Total Energy =                       -248.1161132022034508
    Molecular point group: c1
  Basis Set: 6-31G*
  Basis Set:
  Basis Set: 6-31G*
  Basis Set:
  @DF-RHF Final Energy:  -248.11817503132849
    Total Energy =                       -248.1181750313285193
  Basis Set: 6-31G*
  Basis Set:
  Basis Set: 6-31G*
  Basis Set:
  @DF-RHF Final Energy:  -248.11841337287211
    Total Energy =                       -248.1184133728719985
  Basis Set: 6-31G*
  Basis Set:
  Basis Set: 6-31G*
  Basis Set:
  @DF-RHF Final Energy:  -248.11842211651467
    Total Energy =                       -248.1184221165148074
  Basis Set: 6-31G*
  Basis Set:
  Charge       = 0
  Multiplicity = 1
  Basis Set: 6-31G*
  Basis Set:

    Orbital Energies (a.u.)
    -----------------------

    Doubly Occupied:

       1A    -20.553206     2A    -15.531033     3A    -11.271154
       4A    -11.263930     5A    -11.243066     6A     -1.380284
       7A     -1.175351     8A     -1.000512     9A     -0.906086
      10A     -0.820421    11A     -0.682819    12A     -0.666842
      13A     -0.651653    14A     -0.611973    15A     -0.587202
      16A     -0.571102    17A     -0.519047    18A     -0.499660
      19A     -0.466042    20A     -0.416084    21A     -0.379360

  @DF-RHF Final Energy:  -248.11842277249769

   => Energetics <=

    Nuclear Repulsion Energy =            193.7183047845330179
    One-Electron Energy =                -721.2797945188372069
    Two-Electron Energy =                 279.4430669618067213
    DFT Exchange-Correlation Energy =       0.0000000000000000
    Empirical Dispersion Energy =           0.0000000000000000
    PCM Polarization Energy =               0.0000000000000000
    EFP Energy =                            0.0000000000000000
    Total Energy =                       -248.1184227724974107
    Molecular point group: c1
  Basis Set: 6-31G*
  Basis Set:

  -Total Gradient:
     Atom            X                  Y                   Z
    ------   -----------------  -----------------  -----------------
       1        0.000001433269     0.000015575602     0.000005349137
       2        0.001324677858     0.000552299108     0.002506409408
       3        0.001253367322    -0.001236776335    -0.001954399063
       4       -0.001294897204    -0.000215635605    -0.001807483494
       5       -0.000008030295    -0.000067148363    -0.000061847946
       6       -0.001295461230     0.000929888498     0.001278607806
       7       -0.000015702530    -0.000004215476    -0.000005629208
       8        0.000019748374     0.000015802015     0.000020144985
       9        0.000004388418     0.000008438546     0.000039714220
      10        0.000001342125    -0.000002130139    -0.000015781832
      11        0.000023522953     0.000008344253    -0.000007095013
      12       -0.000006432544    -0.000000218856     0.000001798172
      13       -0.000006589523     0.000002202878     0.000002222132
      14       -0.000001366989    -0.000006426125    -0.000002009304

  **** Optimization is complete! (in 5 steps) ****
    Final optimized geometry and variables:
    Molecular point group: c1

    Geometry (in Angstrom), charge = 0, multiplicity = 1:

    H           -0.267965889880    -2.139689667911    -0.589525111741
    N            0.651248062613    -1.936721179715    -0.245399365350
    C            1.099804595984    -0.637813734155    -0.722955390868
    H            1.248811471483    -2.663404102008    -0.588493777302
    C            0.007650010718     0.411213835775    -0.624458057769
    H            1.929148609611    -0.309220061316    -0.106386206627
    H            1.440530873184    -0.653337084621    -1.760379434612
    O           -0.334010945703     0.621818845685     0.707475950259
    H            0.364150996111     1.338100494600    -1.074809785500
    H           -0.868371429829     0.094038419243    -1.194926291873
    C           -1.339480244891     1.564036179614     0.895470847812
    H           -1.515783994745     1.645246892060     1.959074958532
    H           -1.050123437945     2.540910069208     0.510633157396
    H           -2.265380273302     1.263496483956     0.407523619158

  Mulliken Charges: (a.u.)
   Center  Symbol    Alpha    Beta     Spin     Total
       1     H     0.33588  0.33588  0.00000  0.32824
       2     N     3.91429  3.91429  0.00000 -0.82858
       3     C     3.06354  3.06354  0.00000 -0.12709
       4     H     0.33337  0.33337  0.00000  0.33326
       5     C     2.99496  2.99496  0.00000  0.01008
       6     H     0.41058  0.41058  0.00000  0.17884
       7     H     0.43403  0.43403  0.00000  0.13195
       8     O     4.29482  4.29482  0.00000 -0.58964
       9     H     0.42952  0.42952  0.00000  0.14097
      10     H     0.43655  0.43655  0.00000  0.12690
      11     C     3.07967  3.07967  0.00000 -0.15935
      12     H     0.41027  0.41027  0.00000  0.17947
      13     H     0.43140  0.43140  0.00000  0.13720
      14     H     0.43113  0.43113  0.00000  0.13775

   Total alpha = 21.00000, Total beta = 21.00000, Total charge = -0.00000
