                              Psi4 1.0.54 Driver

  ==> Input File <==

--------------------------------------------------------------------------
set {
	reference rhf
	basis cc-pvtz
}

set_num_threads( 4 )
memory 2 gb

molecule MOL {
0 1

H	 -2.430736	 0.288759	 2.180026
C	 -2.275922	 -0.491568	 1.438402
O	 -1.000619	 -0.428930	 0.893223
H	 -2.383552	 -1.453372	 1.918231
H	 -3.043520	 -0.395259	 0.672633
C	 -0.718530	 0.758693	 0.228682
C	 0.718529	 0.758687	 -0.228709
H	 -1.365840	 0.867121	 -0.641492
H	 -0.886398	 1.613581	 0.880154
O	 1.401606	 -0.295166	 0.366636
H	 0.748705	 0.673477	 -1.312803
H	 1.176496	 1.708671	 0.046552
C	 2.714315	 -0.441627	 -0.061017
H	 2.765292	 -0.641548	 -1.128869
H	 3.305661	 0.447341	 0.150952
H	 3.143725	 -1.278506	 0.470147

	symmetry c1
}
set optking {
	frozen_dihedral = ("
		3 6 7 11
	")
}

ee,wfn = optimize('scf', return_wfn=True)
oeprop( wfn, 'DIPOLE', 'QUADRUPOLE', 'MULLIKEN_CHARGES')
f=open( 'psi4out.xyz', 'w' )
f.write( "16  " )
f.write( str(ee) + "\n" )
f.write( MOL.save_string_xyz() )
f.close()
--------------------------------------------------------------------------

    Molecular point group: c1
  Charge       = 0
  Multiplicity = 1
  Basis Set: CC-PVTZ
  Basis Set:
  @DF-RHF Final Energy:  -307.08358405374213
    Total Energy =                       -307.0835840537425270
    Molecular point group: c1
  Basis Set: CC-PVTZ
  Basis Set:
  Basis Set: CC-PVTZ
  Basis Set:
  @DF-RHF Final Energy:  -307.08449949269760
    Total Energy =                       -307.0844994926979439
  Basis Set: CC-PVTZ
  Basis Set:
  Basis Set: CC-PVTZ
  Basis Set:
  @DF-RHF Final Energy:  -307.08548238595193
    Total Energy =                       -307.0854823859518206
  Basis Set: CC-PVTZ
  Basis Set:
  Basis Set: CC-PVTZ
  Basis Set:
  @DF-RHF Final Energy:  -307.08552070507392
    Total Energy =                       -307.0855207050740319
  Basis Set: CC-PVTZ
  Basis Set:
  Charge       = 0
  Multiplicity = 1
  Basis Set: CC-PVTZ
  Basis Set:

    Orbital Energies (a.u.)
    -----------------------

    Doubly Occupied:

       1A    -20.546691     2A    -20.545653     3A    -11.269907
       4A    -11.269318     5A    -11.260870     6A    -11.260418
       7A     -1.393108     8A     -1.372614     9A     -1.025167
      10A     -0.935062    11A     -0.897688    12A     -0.819395
      13A     -0.689209    14A     -0.675381    15A     -0.660566
      16A     -0.647142    17A     -0.619938    18A     -0.593006
      19A     -0.573812    20A     -0.516710    21A     -0.508742
      22A     -0.470769    23A     -0.469942    24A     -0.427198
      25A     -0.400628

  @DF-RHF Final Energy:  -307.08552277396018

   => Energetics <=

    Nuclear Repulsion Energy =            259.8955521548891738
    One-Electron Energy =                -934.2642804557776799
    Two-Electron Energy =                 367.2832055269281000
    DFT Exchange-Correlation Energy =       0.0000000000000000
    Empirical Dispersion Energy =           0.0000000000000000
    PCM Polarization Energy =               0.0000000000000000
    EFP Energy =                            0.0000000000000000
    Total Energy =                       -307.0855227739604061
    Molecular point group: c1
  Basis Set: CC-PVTZ
  Basis Set:

  -Total Gradient:
     Atom            X                  Y                   Z
    ------   -----------------  -----------------  -----------------
       1        0.000007150390    -0.000008335801    -0.000005923100
       2       -0.000046974092    -0.000019278181     0.000022902937
       3        0.001297936926     0.001682252878     0.003637883346
       4       -0.000003507784     0.000011318155    -0.000005486473
       5        0.000007673585    -0.000007676275     0.000007371070
       6       -0.001694728261    -0.000930605718    -0.004973742866
       7        0.000343026634    -0.005916015131     0.001586880197
       8       -0.000003433114    -0.000043549895     0.000022341375
       9        0.000038101411     0.000018462644    -0.000038828967
      10        0.000022844254    -0.000081201408     0.000034889567
      11       -0.000013537710     0.005339132324    -0.000280534611
      12        0.000007460751    -0.000023511088    -0.000008354877
      13        0.000012274366    -0.000020503527    -0.000008861804
      14        0.000006936848    -0.000002329719     0.000015096413
      15        0.000000690423    -0.000003797717     0.000003592520
      16        0.000018085370     0.000005638460    -0.000009224727

  **** Optimization is complete! (in 5 steps) ****
    Final optimized geometry and variables:
    Molecular point group: c1

    Geometry (in Angstrom), charge = 0, multiplicity = 1:

    H           -2.690387438596     0.373808112947     1.653266258677
    C           -2.505976656875    -0.431008939150     0.944083058174
    O           -1.199717805203    -0.408300638092     0.476570764903
    H           -2.660227431167    -1.376238952217     1.443486828089
    H           -3.225064550831    -0.342728127526     0.131771255998
    C           -0.860573767137     0.763963679387    -0.179860248650
    C            0.595326113662     0.732837548977    -0.675833561663
    H           -1.521966059727     0.933843321910    -1.027710423647
    H           -0.990634663495     1.605840070379     0.498356902085
    O            1.317865533333    -0.292615002825    -0.093542055723
    H            0.616447762339     0.664506125671    -1.762510357449
    H            1.053753305910     1.692487554756    -0.436301899536
    C            2.646656705607    -0.338766442383    -0.491684096217
    H            2.737076785502    -0.487850733279    -1.565837253067
    H            3.176191368779     0.574531223923    -0.226768504135
    H            3.112925867373    -1.170730940100     0.015266289609

  Mulliken Charges: (a.u.)
   Center  Symbol    Alpha    Beta     Spin     Total
       1     H     0.47308  0.47308  0.00000  0.05384
       2     C     3.03188  3.03188  0.00000 -0.06377
       3     O     4.15706  4.15706  0.00000 -0.31413
       4     H     0.44562  0.44562  0.00000  0.10877
       5     H     0.47319  0.47319  0.00000  0.05363
       6     C     2.96617  2.96617  0.00000  0.06766
       7     C     2.96501  2.96501  0.00000  0.06997
       8     H     0.47639  0.47639  0.00000  0.04722
       9     H     0.47677  0.47677  0.00000  0.04645
      10     O     4.15618  4.15618  0.00000 -0.31237
      11     H     0.47657  0.47657  0.00000  0.04686
      12     H     0.47881  0.47881  0.00000  0.04238
      13     C     3.03231  3.03231  0.00000 -0.06463
      14     H     0.47235  0.47235  0.00000  0.05529
      15     H     0.47305  0.47305  0.00000  0.05390
      16     H     0.44554  0.44554  0.00000  0.10892

   Total alpha = 25.00000, Total beta = 25.00000, Total charge = -0.00000

*** Psi4 exiting successfully. Buy a developer a beer!
