  ==> Input File <==

--------------------------------------------------------------------------
set {
	reference rhf
	basis cc-pvtz
}

set_num_threads( 4 )
memory 2 gb

molecule MOL {
0 1

H	 -3.962769	 -0.414093	 0.841125
C	 -2.913189	 -0.265435	 0.672426
C	 -2.420067	 1.011950	 0.475555
C	 -2.058257	 -1.351106	 0.652549
H	 -3.084250	 1.854160	 0.491118
C	 -1.071237	 1.202179	 0.258837
H	 -2.441669	 -2.341320	 0.805329
C	 -0.707408	 -1.162253	 0.435667
H	 -0.672591	 2.184195	 0.104616
C	 -0.209983	 0.116042	 0.238076
H	 -0.042606	 -2.000890	 0.419665
C	 1.238974	 0.374429	 0.000004
O	 1.968286	 -0.725612	 -0.000027
O	 1.696610	 1.454250	 -0.172443
C	 3.373556	 -0.568203	 0.000011
H	 3.695416	 -0.031588	 -0.879663
H	 3.782700	 -1.565294	 -0.000152
H	 3.695405	 -0.031851	 0.879862

	symmetry c1
}
set optking {
	frozen_dihedral = ("
		10 12 13 15
	")
}

ee = optimize('scf')
oeprop('DIPOLE', 'QUADRUPOLE', 'MULLIKEN_CHARGES')
f=open( 'psi4out.xyz', 'w' )
f.write( "18  " )
f.write( str(ee) + "\n" )
f.write( MOL.save_string_xyz() )
f.close()
--------------------------------------------------------------------------

    Molecular point group: c1
  Charge       = 0
  Multiplicity = 1
  Basis Set: CC-PVTZ
  Basis Set:
  @DF-RHF Final Energy:  -457.50964100846630
    Total Energy =                       -457.5096410084663603
    Molecular point group: c1
  Basis Set: CC-PVTZ
  Basis Set:
  Basis Set: CC-PVTZ
  Basis Set:
  @DF-RHF Final Energy:  -457.50867463968581
    Total Energy =                       -457.5086746396852959
  Basis Set: CC-PVTZ
  Basis Set:
  Basis Set: CC-PVTZ
  Basis Set:
  @DF-RHF Final Energy:  -457.50970307305403
    Total Energy =                       -457.5097030730537426
  Basis Set: CC-PVTZ
  Basis Set:
  Basis Set: CC-PVTZ
  Basis Set:
  @DF-RHF Final Energy:  -457.50970664385346
    Total Energy =                       -457.5097066438539741
  Basis Set: CC-PVTZ
  Basis Set:
  Charge       = 0
  Multiplicity = 1
  Basis Set: CC-PVTZ
  Basis Set:

    Orbital Energies (a.u.)
    -----------------------

    Doubly Occupied:

       1A    -20.600428     2A    -20.534705     3A    -11.371825
       4A    -11.281436     5A    -11.245090     6A    -11.243633
       7A    -11.242825     8A    -11.240181     9A    -11.236173
      10A    -11.235420    11A     -1.476719    12A     -1.368490
      13A     -1.170897    14A     -1.051810    15A     -1.029174
      16A     -0.980404    17A     -0.863469    18A     -0.838607
      19A     -0.781250    20A     -0.745007    21A     -0.687865
      22A     -0.681523    23A     -0.676337    24A     -0.634224
      25A     -0.630189    26A     -0.601451    27A     -0.588262
      28A     -0.564497    29A     -0.532013    30A     -0.520376
      31A     -0.509460    32A     -0.502357    33A     -0.464101
      34A     -0.449397    35A     -0.350334    36A     -0.346369

  @DF-RHF Final Energy:  -457.50970688322496

   => Energetics <=

    Nuclear Repulsion Energy =            494.0666999495794585
    One-Electron Energy =               -1602.6002239266927063
    Two-Electron Energy =                 651.0238170938885105
    DFT Exchange-Correlation Energy =       0.0000000000000000
    Empirical Dispersion Energy =           0.0000000000000000
    PCM Polarization Energy =               0.0000000000000000
    EFP Energy =                            0.0000000000000000
    Total Energy =                       -457.5097068832246805
    Molecular point group: c1
  Basis Set: CC-PVTZ
  Basis Set:

  -Total Gradient:
     Atom            X                  Y                   Z
    ------   -----------------  -----------------  -----------------
       1        0.000000883056    -0.000000687157     0.000001441686
       2       -0.000004194462     0.000019619976    -0.000007561969
       3       -0.000015257448    -0.000013544630     0.000008950313
       4        0.000018010491    -0.000007053379    -0.000001167657
       5        0.000001408622     0.000001196298     0.000002981572
       6        0.000020011123    -0.000007268137    -0.000013826427
       7       -0.000001021953     0.000000662554    -0.000000167735
       8       -0.000013557850    -0.000011559867    -0.000007411091
       9       -0.000000950558     0.000000224780     0.000001630299
      10        0.000338397321     0.000212867446     0.002335183781
      11        0.000001853806     0.000000900140     0.000002838205
      12       -0.000482148575    -0.000310320469    -0.002104362180
      13        0.000133726821     0.000152192301    -0.002780431852
      14       -0.000002420396    -0.000001113683    -0.000002561486
      15        0.000003812971    -0.000033337878     0.002578882453
      16       -0.000000055575     0.000004560218    -0.000003930343
      17        0.000004347703    -0.000002336113    -0.000000812166
      18       -0.000002845102    -0.000005002402    -0.000009675403

  **** Optimization is complete! (in 5 steps) ****
    Final optimized geometry and variables:
    Molecular point group: c1

    Geometry (in Angstrom), charge = 0, multiplicity = 1:

    H           -3.980388334472    -0.426709409970     0.601275822896
    C           -2.931120104288    -0.277996988987     0.430482763756
    C           -2.438208458755     0.999772008366     0.234554106931
    C           -2.076367117618    -1.363648916332     0.407056707102
    H           -3.102303767244     1.842066276210     0.252763472222
    C           -1.089899116814     1.190172797558     0.015244368642
    H           -2.459433198908    -2.354162839805     0.558962072772
    C           -0.725740894962    -1.174546846527     0.187931181464
    H           -0.691519710588     2.172526620470    -0.137900556787
    C           -0.228541833653     0.103996741063    -0.007696675954
    H           -0.061088067172    -2.013305553492     0.169447414495
    C            1.221424392240     0.363455811204    -0.240040472309
    O            1.950219312723    -0.737333681968    -0.253506551595
    O            1.683678089325     1.446485493391    -0.374890264880
    C            3.355439854066    -0.580932694405    -0.249188776800
    H            3.687570256652    -0.078633944173    -1.145040709363
    H            3.764358418506    -1.577279908731    -0.207195160230
    H            3.668623021485    -0.011439489532     0.613201964549

  Mulliken Charges: (a.u.)
   Center  Symbol    Alpha    Beta     Spin     Total
       1     H     0.42027  0.42027  0.00000  0.15947
       2     C     3.06966  3.06966  0.00000 -0.13931
       3     C     3.07555  3.07555  0.00000 -0.15109
       4     C     3.07504  3.07504  0.00000 -0.15007
       5     H     0.42039  0.42039  0.00000  0.15923
       6     C     3.07595  3.07595  0.00000 -0.15189
       7     H     0.42186  0.42186  0.00000  0.15628
       8     C     3.08251  3.08251  0.00000 -0.16502
       9     H     0.40668  0.40668  0.00000  0.18663
      10     C     3.01212  3.01212  0.00000 -0.02424
      11     H     0.41100  0.41100  0.00000  0.17800
      12     C     2.78246  2.78246  0.00000  0.43509
      13     O     4.14900  4.14900  0.00000 -0.29800
      14     O     4.21040  4.21040  0.00000 -0.42081
      15     C     3.03652  3.03652  0.00000 -0.07305
      16     H     0.45066  0.45066  0.00000  0.09868
      17     H     0.44536  0.44536  0.00000  0.10928
      18     H     0.45458  0.45458  0.00000  0.09085

   Total alpha = 36.00000, Total beta = 36.00000, Total charge =  0.00000
