                              Psi4 1.0.54 Driver

  ==> Input File <==

--------------------------------------------------------------------------
set {
	reference rhf
	basis cc-pvtz
}

set_num_threads( 4 )
memory 2 gb

molecule MOL {
0 1

H	 1.128311	 0.207724	 1.465118
C	 1.134565	 0.093781	 0.372499
C	 0.062554	 0.862911	 -0.350953
O	 1.948932	 -0.587720	 -0.146651
C	 -0.102573	 2.288903	 0.183739
H	 -0.863168	 0.305552	 -0.288632
H	 0.359602	 0.905030	 -1.396449
C	 -0.648419	 2.343856	 1.607706
H	 -0.768298	 2.828559	 -0.479702
H	 0.853142	 2.803593	 0.137384
H	 -1.620893	 1.868388	 1.669213
H	 -0.756923	 3.369557	 1.939074
H	 0.006891	 1.838496	 2.308574

	symmetry c1
}
set optking {
	frozen_dihedral = ("
		6 3 2 4
	")
}

ee,wfn = optimize('scf', return_wfn=True)
oeprop( wfn, 'DIPOLE', 'QUADRUPOLE', 'MULLIKEN_CHARGES')
f=open( 'psi4out.xyz', 'w' )
f.write( "13  " )
f.write( str(ee) + "\n" )
f.write( MOL.save_string_xyz() )
f.close()
--------------------------------------------------------------------------

    Molecular point group: c1
  Charge       = 0
  Multiplicity = 1
  Basis Set: CC-PVTZ
  Basis Set:
  @DF-RHF Final Energy:  -231.06778448910794
    Total Energy =                       -231.0677844891079360
    Molecular point group: c1
  Basis Set: CC-PVTZ
  Basis Set:
  Basis Set: CC-PVTZ
  Basis Set:
  @DF-RHF Final Energy:  -231.06836031595464
    Total Energy =                       -231.0683603159547488
  Basis Set: CC-PVTZ
  Basis Set:
  Basis Set: CC-PVTZ
  Basis Set:
  @DF-RHF Final Energy:  -231.06760283667563
    Total Energy =                       -231.0676028366756327
  Basis Set: CC-PVTZ
  Basis Set:
  Basis Set: CC-PVTZ
  Basis Set:
  @DF-RHF Final Energy:  -231.06876325419714
    Total Energy =                       -231.0687632541970515
  Basis Set: CC-PVTZ
  Basis Set:
  Basis Set: CC-PVTZ
  Basis Set:
  @DF-RHF Final Energy:  -231.06874398777259
    Total Energy =                       -231.0687439877727059
  Basis Set: CC-PVTZ
  Basis Set:
  Basis Set: CC-PVTZ
  Basis Set:
  @DF-RHF Final Energy:  -231.06881743795685
    Total Energy =                       -231.0688174379567386
  Basis Set: CC-PVTZ
  Basis Set:
  Charge       = 0
  Multiplicity = 1
  Basis Set: CC-PVTZ
  Basis Set:

    Orbital Energies (a.u.)
    -----------------------

    Doubly Occupied:

       1A    -20.551476     2A    -11.321224     3A    -11.237008
       4A    -11.234733     5A    -11.223935     6A     -1.406404
       7A     -1.087457     8A     -0.974937     9A     -0.852813
      10A     -0.788146    11A     -0.676081    12A     -0.652195
      13A     -0.608496    14A     -0.598726    15A     -0.582789
      16A     -0.529853    17A     -0.508016    18A     -0.495635
      19A     -0.486272    20A     -0.411279

  @DF-RHF Final Energy:  -231.06881812353635

   => Energetics <=

    Nuclear Repulsion Energy =            172.3691977519743546
    One-Electron Energy =                -654.4210796290465169
    Two-Electron Energy =                 250.9830637535358164
    DFT Exchange-Correlation Energy =       0.0000000000000000
    Empirical Dispersion Energy =           0.0000000000000000
    PCM Polarization Energy =               0.0000000000000000
    EFP Energy =                            0.0000000000000000
    Total Energy =                       -231.0688181235363459
    Molecular point group: c1
  Basis Set: CC-PVTZ
  Basis Set:

  -Total Gradient:
     Atom            X                  Y                   Z
    ------   -----------------  -----------------  -----------------
       1        0.000016519190    -0.000033347852    -0.000240780092
       2        0.000441075128     0.000339566272     0.000028707181
       3       -0.000176976937     0.000100301161     0.000298812321
       4       -0.000323405021    -0.000219613567     0.000138809876
       5       -0.000008299881    -0.000022066996     0.000030414871
       6        0.000072575147    -0.000169013470    -0.000320312628
       7        0.000015724955    -0.000029181402     0.000012899942
       8       -0.000007877112     0.000042044550     0.000036552094
       9        0.000012985484    -0.000011514047     0.000027510003
      10       -0.000027375407    -0.000026461160    -0.000026441614
      11        0.000024642007     0.000009896303    -0.000001232874
      12       -0.000011844460     0.000005749234     0.000039105627
      13       -0.000027743093     0.000013640971    -0.000024044709

  **** Optimization is complete! (in 7 steps) ****
    Final optimized geometry and variables:
    Molecular point group: c1

    Geometry (in Angstrom), charge = 0, multiplicity = 1:

    H            0.773846752114    -0.761902548588     1.140206460227
    C            0.697099388376    -0.914578763763     0.058243745756
    C           -0.401740386852    -0.161933219808    -0.645857530613
    O            1.449348511144    -1.648473460833    -0.484553026344
    C           -0.566121211181     1.289946311871    -0.181482365220
    H           -1.326238667027    -0.709039025163    -0.471570827306
    H           -0.195644669843    -0.211863718425    -1.706699377987
    C           -1.190455601842     1.447418982181     1.203285329307
    H           -1.188784949567     1.802671071679    -0.905358219486
    H            0.398347969178     1.788618085946    -0.208904297097
    H           -2.173806052075     0.990949547980     1.238455044703
    H           -1.303471659941     2.495292491835     1.453920455916
    H           -0.587991209915     0.992248349217     1.980342747171

  Mulliken Charges: (a.u.)
   Center  Symbol    Alpha    Beta     Spin     Total
       1     H     0.46333  0.46333  0.00000  0.07333
       2     C     2.90372  2.90372  0.00000  0.19256
       3     C     3.08811  3.08811  0.00000 -0.17623
       4     O     4.16558  4.16558  0.00000 -0.33115
       5     C     3.10081  3.10081  0.00000 -0.20161
       6     H     0.44956  0.44956  0.00000  0.10088
       7     H     0.43634  0.43634  0.00000  0.12733
       8     C     3.14910  3.14910  0.00000 -0.29819
       9     H     0.44397  0.44397  0.00000  0.11206
      10     H     0.44778  0.44778  0.00000  0.10444
      11     H     0.45305  0.45305  0.00000  0.09389
      12     H     0.44428  0.44428  0.00000  0.11145
      13     H     0.45438  0.45438  0.00000  0.09124

   Total alpha = 20.00000, Total beta = 20.00000, Total charge = -0.00000

*** Psi4 exiting successfully. Buy a developer a beer!
