  ==> Input File <==

--------------------------------------------------------------------------
set {
	reference rhf
	basis 6-31G*
}

set_num_threads( 4 )
memory 2 gb

molecule MOL {
0 1

H	 1.422855	 0.186857	 -2.635327
C	 0.692008	 -0.025358	 -1.863475
C	 1.322923	 0.120767	 -0.479465
H	 -0.137971	 0.661820	 -1.994982
H	 0.322915	 -1.033471	 -2.024945
C	 0.306652	 -0.176050	 0.621399
H	 1.700139	 1.129407	 -0.346116
H	 2.160983	 -0.558086	 -0.374224
N	 -1.068537	 -0.011044	 0.085269
H	 0.372515	 -1.192590	 0.973735
H	 0.391664	 0.520566	 1.441230
O	 -1.656956	 -0.997225	 -0.235017
O	 -1.478635	 1.104830	 -0.018026

	symmetry c1
}
set optking {
	frozen_dihedral = ("
		7 3 6 9
	")
}

ee = optimize('scf')
oeprop('DIPOLE', 'QUADRUPOLE', 'MULLIKEN_CHARGES')
f=open( 'psi4out.xyz', 'w' )
f.write( "13  " )
f.write( str(ee) + "\n" )
f.write( MOL.save_string_xyz() )
f.close()
--------------------------------------------------------------------------

    Molecular point group: c1
  Charge       = 0
  Multiplicity = 1
  Basis Set: 6-31G*
  Basis Set:
  @DF-RHF Final Energy:  -321.72682555978878
    Total Energy =                       -321.7268255597887219
    Molecular point group: c1
  Basis Set: 6-31G*
  Basis Set:
  Basis Set: 6-31G*
  Basis Set:
  @DF-RHF Final Energy:  -321.72460983619180
    Total Energy =                       -321.7246098361916893
  Basis Set: 6-31G*
  Basis Set:
  Basis Set: 6-31G*
  Basis Set:
  @DF-RHF Final Energy:  -321.72906214826492
    Total Energy =                       -321.7290621482648021
  Basis Set: 6-31G*
  Basis Set:
  Basis Set: 6-31G*
  Basis Set:
  @DF-RHF Final Energy:  -321.73038969497372
    Total Energy =                       -321.7303896949736668
  Basis Set: 6-31G*
  Basis Set:
  @DF-RHF Final Energy:  -321.73043531831081
    Total Energy =                       -321.7304353183108105
  @DF-RHF Final Energy:  -321.73045045169033
    Total Energy =                       -321.7304504516901602
  Basis Set: 6-31G*
  Basis Set:
  @DF-RHF Final Energy:  -321.73045767601042
    Total Energy =                       -321.7304576760105874
  Basis Set: 6-31G*
  Basis Set:
  Basis Set: 6-31G*
  Basis Set:
  @DF-RHF Final Energy:  -321.73046026137609
    Total Energy =                       -321.7304602613762654
  Basis Set: 6-31G*
  Basis Set:
  Basis Set: 6-31G*
  Basis Set:
  @DF-RHF Final Energy:  -321.73046131673789
    Total Energy =                       -321.7304613167379443
  Basis Set: 6-31G*
  Basis Set:
  Charge       = 0
  Multiplicity = 1
  Basis Set: 6-31G*
  Basis Set:

    Orbital Energies (a.u.)
    -----------------------

    Doubly Occupied:

       1A    -20.602762     2A    -20.598863     3A    -15.846402
       4A    -11.299316     5A    -11.257731     6A    -11.230367
       7A     -1.630653     8A     -1.415960     9A     -1.131098
      10A     -1.022251    11A     -0.896568    12A     -0.820506
      13A     -0.751892    14A     -0.734724    15A     -0.725536
      16A     -0.664047    17A     -0.607488    18A     -0.590293
      19A     -0.538010    20A     -0.519540    21A     -0.509802
      22A     -0.479678    23A     -0.474126    24A     -0.448456

  @DF-RHF Final Energy:  -321.73046136335790

   => Energetics <=

    Nuclear Repulsion Energy =            254.3943048723521940
    One-Electron Energy =                -942.6573926114336928
    Two-Electron Energy =                 366.5326263757235665
    DFT Exchange-Correlation Energy =       0.0000000000000000
    Empirical Dispersion Energy =           0.0000000000000000
    PCM Polarization Energy =               0.0000000000000000
    EFP Energy =                            0.0000000000000000
    Total Energy =                       -321.7304613633579038
    Molecular point group: c1
  Basis Set: 6-31G*
  Basis Set:

  -Total Gradient:
     Atom            X                  Y                   Z
    ------   -----------------  -----------------  -----------------
       1        0.000005095066     0.000008631005     0.000000040278
       2       -0.000039482181    -0.000057080353    -0.000013657811
       3       -0.005463452591     0.001156926219    -0.004553131090
       4        0.000020190526    -0.000003022815     0.000001034464
       5        0.000012059032    -0.000002213921    -0.000019004827
       6        0.001241836488     0.005263787638     0.002567106119
       7        0.004392321668    -0.002207239021     0.003272791250
       8        0.000006452355     0.000014225226     0.000027771564
       9       -0.000123338207    -0.004130121356    -0.001259929613
      10        0.000011352130     0.000000591035    -0.000043779290
      11       -0.000062133988    -0.000017019169     0.000032580524
      12       -0.000005605459     0.000015558786    -0.000046729266
      13        0.000004705165    -0.000043023274     0.000034907700

  **** Optimization is complete! (in 10 steps) ****
    Final optimized geometry and variables:
    Molecular point group: c1

    Geometry (in Angstrom), charge = 0, multiplicity = 1:

    H            1.929026271035     0.137962544737    -2.373155107204
    C            1.129736675400    -0.046482781447    -1.664493171756
    C            1.656658917705     0.140516576795    -0.242140610370
    H            0.324539157713     0.643860400109    -1.885382252945
    H            0.765656869675    -1.055330437670    -1.823336766494
    C            0.666764126947    -0.189297003600     0.893719954776
    H            2.046889979116     1.140307156820    -0.094536949855
    H            2.505336598638    -0.519927380897    -0.092514057059
    N           -0.742478015854    -0.014405175725     0.457105455496
    H            0.736460751239    -1.221207715855     1.194893575937
    H            0.796894563789     0.460885954551     1.743814563680
    O           -1.360400369532    -0.994356828851     0.177923636987
    O           -1.153960761506     1.104489331355     0.391654924218

  Mulliken Charges: (a.u.)
   Center  Symbol    Alpha    Beta     Spin     Total
       1     H     0.41044  0.41044  0.00000  0.17912
       2     C     3.25510  3.25510  0.00000 -0.51020
       3     C     3.17069  3.17069  0.00000 -0.34138
       4     H     0.40214  0.40214  0.00000  0.19571
       5     H     0.40677  0.40677  0.00000  0.18646
       6     C     3.08570  3.08570  0.00000 -0.17140
       7     H     0.40316  0.40316  0.00000  0.19367
       8     H     0.40792  0.40792  0.00000  0.18417
       9     N     3.22902  3.22902  0.00000  0.54196
      10     H     0.38783  0.38783  0.00000  0.22433
      11     H     0.38596  0.38596  0.00000  0.22808
      12     O     4.22482  4.22482  0.00000 -0.44965
      13     O     4.23045  4.23045  0.00000 -0.46089

   Total alpha = 24.00000, Total beta = 24.00000, Total charge = -0.00000
