                              Psi4 1.0.54 Driver

  ==> Input File <==

--------------------------------------------------------------------------
set {
	reference rhf
	basis cc-pvtz
}

set_num_threads( 4 )
memory 2 gb

molecule MOL {
0 1

H	 -3.377861	 -0.513330	 -0.993297
O	 -3.515113	 -0.019339	 -0.206321
C	 -2.302264	 0.528872	 0.237390
C	 -1.175688	 -0.398187	 -0.171891
H	 -2.148018	 1.514076	 -0.197759
H	 -2.310727	 0.646384	 1.319032
C	 0.196029	 0.106276	 0.266738
H	 -1.201873	 -0.515469	 -1.250677
H	 -1.365975	 -1.378728	 0.252664
C	 1.330220	 -0.826136	 -0.155230
H	 0.359542	 1.097229	 -0.145561
H	 0.212134	 0.218135	 1.348778
C	 2.719700	 -0.407669	 0.328325
H	 1.339388	 -0.911200	 -1.239363
H	 1.119001	 -1.821953	 0.224128
C	 3.241564	 0.893452	 -0.276737
H	 3.418299	 -1.204729	 0.093035
H	 2.711776	 -0.323368	 1.411960
H	 3.254204	 0.841071	 -1.360784
H	 2.634460	 1.745075	 0.005842
H	 4.254264	 1.092401	 0.054971

	symmetry c1
}
set optking {
	frozen_dihedral = ("
		1 2 3 5
	")
}

ee,wfn = optimize('scf', return_wfn=True)
oeprop( wfn, 'DIPOLE', 'QUADRUPOLE', 'MULLIKEN_CHARGES')
f=open( 'psi4out.xyz', 'w' )
f.write( "21  " )
f.write( str(ee) + "\n" )
f.write( MOL.save_string_xyz() )
f.close()
--------------------------------------------------------------------------

    Molecular point group: c1
  Charge       = 0
  Multiplicity = 1
  Basis Set: CC-PVTZ
  Basis Set:
  @DF-RHF Final Energy:  -310.33011274669730
    Total Energy =                       -310.3301127466967841
    Molecular point group: c1
  Basis Set: CC-PVTZ
  Basis Set:
  Basis Set: CC-PVTZ
  Basis Set:
  @DF-RHF Final Energy:  -310.33156528860627
    Total Energy =                       -310.3315652886059297
  Basis Set: CC-PVTZ
  Basis Set:
  Basis Set: CC-PVTZ
  Basis Set:
  @DF-RHF Final Energy:  -310.33190906323216
    Total Energy =                       -310.3319090632325015
  Basis Set: CC-PVTZ
  Basis Set:
  Basis Set: CC-PVTZ
  Basis Set:
  @DF-RHF Final Energy:  -310.33191368056072
    Total Energy =                       -310.3319136805606036
  Basis Set: CC-PVTZ
  Basis Set:
  Charge       = 0
  Multiplicity = 1
  Basis Set: CC-PVTZ
  Basis Set:

    Orbital Energies (a.u.)
    -----------------------

    Doubly Occupied:

       1A    -20.543817     2A    -11.264175     3A    -11.219378
       4A    -11.218626     5A    -11.216776     6A    -11.216136
       7A    -11.208952     8A     -1.362149     9A     -1.092272
      10A     -1.037647    11A     -0.957240    12A     -0.881688
      13A     -0.824716    14A     -0.783081    15A     -0.683108
      16A     -0.650174    17A     -0.626384    18A     -0.622176
      19A     -0.592738    20A     -0.574474    21A     -0.551708
      22A     -0.526815    23A     -0.506978    24A     -0.501713
      25A     -0.483323    26A     -0.465863    27A     -0.460562
      28A     -0.451285    29A     -0.429695

  @DF-RHF Final Energy:  -310.33191401680625

   => Energetics <=

    Nuclear Repulsion Energy =            312.9097514106292124
    One-Electron Energy =               -1040.5760381265547494
    Two-Electron Energy =                 417.3343726991192852
    DFT Exchange-Correlation Energy =       0.0000000000000000
    Empirical Dispersion Energy =           0.0000000000000000
    PCM Polarization Energy =               0.0000000000000000
    EFP Energy =                            0.0000000000000000
    Total Energy =                       -310.3319140168061949
    Molecular point group: c1
  Basis Set: CC-PVTZ
  Basis Set:

  -Total Gradient:
     Atom            X                  Y                   Z
    ------   -----------------  -----------------  -----------------
       1        0.000319901257    -0.001547950942     0.000935442782
       2       -0.000574945284     0.002059996354    -0.000810754819
       3        0.000914541175    -0.001158452053    -0.001414745428
       4       -0.000041279265     0.000004389194     0.000000977161
       5       -0.000629826105     0.000659374604     0.001287846265
       6       -0.000005937739    -0.000013020447    -0.000001080725
       7       -0.000005828078    -0.000002529135    -0.000000936098
       8       -0.000000930557     0.000001706670     0.000013778054
       9        0.000005529032    -0.000001652544    -0.000008516586
      10        0.000034207973    -0.000000556806    -0.000005327871
      11       -0.000005668604    -0.000006562392    -0.000002710223
      12        0.000002199941     0.000002983712    -0.000000757956
      13       -0.000010754117     0.000001398481     0.000015519790
      14       -0.000004657491     0.000007334378    -0.000002041234
      15        0.000003376861    -0.000001407356    -0.000000326025
      16        0.000000992934    -0.000001963032    -0.000008888358
      17       -0.000007927599    -0.000002263338    -0.000000524050
      18        0.000000428735    -0.000000029224     0.000007180408
      19        0.000000513866     0.000004354136    -0.000004368023
      20        0.000005237588    -0.000002533383     0.000000668859
      21        0.000000825479    -0.000002616875    -0.000000435925

  **** Optimization is complete! (in 5 steps) ****
    Final optimized geometry and variables:
    Molecular point group: c1

    Geometry (in Angstrom), charge = 0, multiplicity = 1:

    H           -3.512638855715    -0.420544537428    -0.959890749477
    O           -3.569954723934     0.058513213486    -0.153710054676
    C           -2.303542196899     0.536806448944     0.214379054642
    C           -1.174212035568    -0.400658442505    -0.176621825040
    H           -2.140962710654     1.524184579396    -0.211872280237
    H           -2.325514082334     0.658666156991     1.290600673343
    C            0.197527350444     0.105936299377     0.260178195652
    H           -1.181349992572    -0.532731073923    -1.257741518347
    H           -1.365253106649    -1.376966471472     0.259235697079
    C            1.332896142541    -0.833563961591    -0.142215481573
    H            0.362747256959     1.090949204384    -0.164254395116
    H            0.204824808434     0.231899435843     1.340204433285
    C            2.718727413207    -0.411981993770     0.348944379376
    H            1.351907107838    -0.930100888101    -1.225417645937
    H            1.116737112682    -1.824821491735     0.246297101530
    C            3.248113794549     0.881183402551    -0.266295224270
    H            3.417540151401    -1.213022376797     0.128771072003
    H            2.701095891462    -0.315605885989     1.431315042511
    H            3.269563390449     0.816796156182    -1.349555653957
    H            2.640996467058     1.737281762962     0.002149014152
    H            4.258456144741     1.081314408385     0.071429298759

  Mulliken Charges: (a.u.)
   Center  Symbol    Alpha    Beta     Spin     Total
       1     H     0.39337  0.39337  0.00000  0.21325
       2     O     4.20370  4.20370  0.00000 -0.40741
       3     C     2.95480  2.95480  0.00000  0.09040
       4     C     3.10025  3.10025  0.00000 -0.20050
       5     H     0.47364  0.47364  0.00000  0.05272
       6     H     0.46133  0.46133  0.00000  0.07734
       7     C     3.10231  3.10231  0.00000 -0.20463
       8     H     0.46178  0.46178  0.00000  0.07644
       9     H     0.44858  0.44858  0.00000  0.10285
      10     C     3.09477  3.09477  0.00000 -0.18954
      11     H     0.45159  0.45159  0.00000  0.09682
      12     H     0.45204  0.45204  0.00000  0.09592
      13     C     3.09047  3.09047  0.00000 -0.18093
      14     H     0.45368  0.45368  0.00000  0.09264
      15     H     0.44863  0.44863  0.00000  0.10273
      16     C     3.15250  3.15250  0.00000 -0.30500
      17     H     0.44809  0.44809  0.00000  0.10382
      18     H     0.45411  0.45411  0.00000  0.09177
      19     H     0.45485  0.45485  0.00000  0.09030
      20     H     0.45365  0.45365  0.00000  0.09269
      21     H     0.44584  0.44584  0.00000  0.10832

   Total alpha = 29.00000, Total beta = 29.00000, Total charge = -0.00000

*** Psi4 exiting successfully. Buy a developer a beer!
