  ==> Input File <==

--------------------------------------------------------------------------
set {
	reference rhf
	basis 6-31G*
}

set_num_threads( 1 )
memory 2 gb

molecule MOL {
0 1

H	 -1.340278	 -0.489544	 0.668612
N	 -0.626943	 -0.667432	 -0.000092
C	 -0.814170	 -1.762598	 -0.924361
C	 0.469286	 0.129090	 0.000148
H	 -0.912924	 -2.704679	 -0.395460
H	 0.048920	 -1.811469	 -1.568113
H	 -1.699308	 -1.610779	 -1.533059
C	 1.788933	 -0.616240	 -0.000037
O	 0.411098	 1.327768	 -0.000049
H	 1.872803	 -1.245775	 -0.880381
H	 2.595421	 0.101576	 0.003713
H	 1.870096	 -1.252171	 0.875943

	symmetry c1
}
set optking {
	frozen_dihedral = ("
		4 2 3 5
	")
}

ee = energy('scf')
oeprop('DIPOLE', 'QUADRUPOLE', 'MULLIKEN_CHARGES')
f=open( 'psi4out.xyz', 'w' )
f.write( "12  " )
f.write( str(ee) + "\n" )
f.write( MOL.save_string_xyz() )
f.close()
--------------------------------------------------------------------------

    Molecular point group: c1

    Geometry (in Angstrom), charge = 0, multiplicity = 1:

       Center              X                  Y                   Z               Mass
    ------------   -----------------  -----------------  -----------------  -----------------
           H         -1.580908430646    -0.158428442011     0.859487078769     1.007825032070
           N         -0.867573430646    -0.336316442011     0.190783078769    14.003074004780
           C         -1.054800430646    -1.431482442011    -0.733485921231    12.000000000000
           C          0.228655569354     0.460205557989     0.191023078769    12.000000000000
           H         -1.153554430646    -2.373563442011    -0.204584921231     1.007825032070
           H         -0.191710430646    -1.480353442011    -1.377237921231     1.007825032070
           H         -1.939938430646    -1.279663442011    -1.342183921231     1.007825032070
           C          1.548302569354    -0.285124442011     0.190838078769    12.000000000000
           O          0.170467569354     1.658883557989     0.190826078769    15.994914619560
           H          1.632172569354    -0.914659442011    -0.689505921231     1.007825032070
           H          2.354790569354     0.432691557989     0.194588078769     1.007825032070
           H          1.629465569354    -0.921055442011     1.066818078769     1.007825032070

  Charge       = 0
  Multiplicity = 1
  Basis Set: 6-31G*
  Basis Set:

    Orbital Energies (a.u.)
    -----------------------

    Doubly Occupied:

       1A    -20.531146     2A    -15.562497     3A    -11.345302
       4A    -11.267009     5A    -11.225698     6A     -1.389587
       7A     -1.226951     8A     -1.002685     9A     -0.949754
      10A     -0.785963    11A     -0.677925    12A     -0.657511
      13A     -0.638301    14A     -0.594240    15A     -0.581027
      16A     -0.564269    17A     -0.556456    18A     -0.492011
      19A     -0.418238    20A     -0.376792

  @DF-RHF Final Energy:  -246.97815574097268

   => Energetics <=

    Nuclear Repulsion Energy =            181.6986161811488500
    One-Electron Energy =                -695.6667565454229134
    Two-Electron Energy =                 266.9899846233014387
    DFT Exchange-Correlation Energy =       0.0000000000000000
    Empirical Dispersion Energy =           0.0000000000000000
    PCM Polarization Energy =               0.0000000000000000
    EFP Energy =                            0.0000000000000000
    Total Energy =                       -246.9781557409726247

  Mulliken Charges: (a.u.)
   Center  Symbol    Alpha    Beta     Spin     Total
       1     H     0.30624  0.30624  0.00000  0.38753
       2     N     3.89304  3.89304  0.00000 -0.78607
       3     C     3.13715  3.13715  0.00000 -0.27430
       4     C     2.65181  2.65181  0.00000  0.69637
       5     H     0.41721  0.41721  0.00000  0.16557
       6     H     0.41272  0.41272  0.00000  0.17456
       7     H     0.40871  0.40871  0.00000  0.18257
       8     C     3.28669  3.28669  0.00000 -0.57338
       9     O     4.27294  4.27294  0.00000 -0.54588
      10     H     0.41082  0.41082  0.00000  0.17836
      11     H     0.39707  0.39707  0.00000  0.20586
      12     H     0.40559  0.40559  0.00000  0.18882

   Total alpha = 20.00000, Total beta = 20.00000, Total charge =  0.00000
