                              Psi4 1.0.54 Driver

  ==> Input File <==

--------------------------------------------------------------------------
set {
	reference rhf
	basis cc-pvtz
}

set_num_threads( 4 )
memory 2 gb

molecule MOL {
0 1

H	 2.680112	 -0.779825	 -0.152906
O	 1.990971	 -0.217927	 -0.455246
C	 1.135873	 0.113391	 0.608264
C	 0.027642	 1.012027	 0.090274
H	 1.684931	 0.639290	 1.385266
H	 0.721501	 -0.785724	 1.055867
C	 -1.138737	 0.285728	 -0.581921
H	 0.464661	 1.708096	 -0.618252
H	 -0.340737	 1.603071	 0.925246
C	 -1.933983	 -0.631436	 0.343653
H	 -0.763151	 -0.285569	 -1.422081
H	 -1.808359	 1.035291	 -0.992333
H	 -2.789188	 -1.049673	 -0.174718
H	 -1.335629	 -1.461368	 0.700418
H	 -2.305435	 -0.092167	 1.209725

	symmetry c1
}
set optking {
	frozen_dihedral = ("
		2 3 4 8
	")
}

ee,wfn = optimize('scf', return_wfn=True)
oeprop( wfn, 'DIPOLE', 'QUADRUPOLE', 'MULLIKEN_CHARGES')
f=open( 'psi4out.xyz', 'w' )
f.write( "15  " )
f.write( str(ee) + "\n" )
f.write( MOL.save_string_xyz() )
f.close()
--------------------------------------------------------------------------

    Molecular point group: c1
  Charge       = 0
  Multiplicity = 1
  Basis Set: CC-PVTZ
  Basis Set:
  @DF-RHF Final Energy:  -232.23558711886096
    Total Energy =                       -232.2355871188607921
    Molecular point group: c1
  Basis Set: CC-PVTZ
  Basis Set:
  Basis Set: CC-PVTZ
  Basis Set:
  @DF-RHF Final Energy:  -232.22312683167465
    Total Energy =                       -232.2231268316746764
  Basis Set: CC-PVTZ
  Basis Set:
  Basis Set: CC-PVTZ
  Basis Set:
  @DF-RHF Final Energy:  -232.23588135032696
    Total Energy =                       -232.2358813503269630
  Basis Set: CC-PVTZ
  Basis Set:
  Basis Set: CC-PVTZ
  Basis Set:
  @DF-RHF Final Energy:  -232.23613805792888
    Total Energy =                       -232.2361380579290540
  Basis Set: CC-PVTZ
  Basis Set:
  Basis Set: CC-PVTZ
  Basis Set:
  @DF-RHF Final Energy:  -232.23614993375162
    Total Energy =                       -232.2361499337515056
  Basis Set: CC-PVTZ
  Basis Set:
  Basis Set: CC-PVTZ
  Basis Set:
  @DF-RHF Final Energy:  -232.23615379658088
    Total Energy =                       -232.2361537965809362
  Basis Set: CC-PVTZ
  Basis Set:
  Charge       = 0
  Multiplicity = 1
  Basis Set: CC-PVTZ
  Basis Set:

    Orbital Energies (a.u.)
    -----------------------

    Doubly Occupied:

       1A    -20.546037     2A    -11.265323     3A    -11.210447
       4A    -11.209641     5A    -11.205509     6A     -1.363473
       7A     -1.066497     8A     -0.971793     9A     -0.869014
      10A     -0.779039    11A     -0.707821    12A     -0.648569
      13A     -0.606625    14A     -0.580937    15A     -0.563272
      16A     -0.536525    17A     -0.510161    18A     -0.476376
      19A     -0.472111    20A     -0.453825    21A     -0.431920

  @DF-RHF Final Energy:  -232.23615405893321

   => Energetics <=

    Nuclear Repulsion Energy =            190.2660224344841140
    One-Electron Energy =                -692.0545261705567555
    Two-Electron Energy =                 269.5523496771393752
    DFT Exchange-Correlation Energy =       0.0000000000000000
    Empirical Dispersion Energy =           0.0000000000000000
    PCM Polarization Energy =               0.0000000000000000
    EFP Energy =                            0.0000000000000000
    Total Energy =                       -232.2361540589332662
    Molecular point group: c1
  Basis Set: CC-PVTZ
  Basis Set:

  -Total Gradient:
     Atom            X                  Y                   Z
    ------   -----------------  -----------------  -----------------
       1       -0.000015094913     0.000010081149    -0.000000243441
       2        0.001186022854     0.002559200099     0.000499441020
       3       -0.001505876852    -0.003878911599    -0.001141918215
       4        0.000270688562     0.003995418020     0.003109623303
       5        0.000004167945     0.000000512052    -0.000003851789
       6       -0.000003685277     0.000009733902     0.000010459354
       7       -0.000026116954     0.000004495409     0.000002069958
       8        0.000094852094    -0.002676315014    -0.002476255375
       9        0.000005837912    -0.000015361614    -0.000007548962
      10        0.000015537997    -0.000015626899    -0.000009723793
      11       -0.000001201415     0.000007151306     0.000021781240
      12       -0.000006718521     0.000012110646    -0.000018733678
      13       -0.000006322828    -0.000006946114     0.000002519257
      14       -0.000013151414    -0.000008254960     0.000013081514
      15        0.000001060810     0.000002713616    -0.000000700395

  **** Optimization is complete! (in 7 steps) ****
    Final optimized geometry and variables:
    Molecular point group: c1

    Geometry (in Angstrom), charge = 0, multiplicity = 1:

    H            2.668116232466    -0.581417577999     0.319672438756
    O            2.002163619233    -0.084311661943    -0.117913508930
    C            0.960151487574     0.220325160511     0.774944630772
    C           -0.156231493107     0.896619976968    -0.005641448474
    H            1.323060713702     0.894003799529     1.547030509150
    H            0.604015015438    -0.678497373043     1.269242551215
    C           -1.056147098355    -0.065874084125    -0.786445292536
    H            0.317561275713     1.566710102858    -0.713882074485
    H           -0.757929774302     1.496288204783     0.670411227452
    C           -2.019309830816    -0.873597908092     0.079989361673
    H           -0.432573548981    -0.736753497759    -1.367967851558
    H           -1.634938921930     0.509072368594    -1.502426700858
    H           -2.639807936669    -1.518499015854    -0.531739730824
    H           -1.498403665421    -1.505949912426     0.789762556424
    H           -2.678087831367    -0.220012176768     0.642958573092

  Mulliken Charges: (a.u.)
   Center  Symbol    Alpha    Beta     Spin     Total
       1     H     0.39521  0.39521  0.00000  0.20957
       2     O     4.20011  4.20011  0.00000 -0.40023
       3     C     2.96925  2.96925  0.00000  0.06150
       4     C     3.09352  3.09352  0.00000 -0.18704
       5     H     0.46715  0.46715  0.00000  0.06569
       6     H     0.47389  0.47389  0.00000  0.05222
       7     C     3.09217  3.09217  0.00000 -0.18434
       8     H     0.44618  0.44618  0.00000  0.10763
       9     H     0.45318  0.45318  0.00000  0.09363
      10     C     3.15081  3.15081  0.00000 -0.30162
      11     H     0.44802  0.44802  0.00000  0.10397
      12     H     0.45006  0.45006  0.00000  0.09987
      13     H     0.44743  0.44743  0.00000  0.10515
      14     H     0.45668  0.45668  0.00000  0.08663
      15     H     0.45632  0.45632  0.00000  0.08736

   Total alpha = 21.00000, Total beta = 21.00000, Total charge =  0.00000

*** Psi4 exiting successfully. Buy a developer a beer!
