  ==> Input File <==

--------------------------------------------------------------------------
set {
	reference rhf
	basis 6-31G*
}

set_num_threads( 4 )
memory 2 gb

molecule MOL {
0 1

O	 3.225979	 0.970355	 -0.599647
C	 2.701189	 0.057885	 -0.047330
C	 1.245376	 -0.013843	 0.345420
O	 3.347903	 -1.046386	 0.304773
C	 0.300692	 0.429160	 -0.769675
H	 1.051051	 -1.033193	 0.662210
H	 1.119384	 0.601787	 1.232449
C	 -1.173612	 0.462191	 -0.352745
H	 0.425930	 -0.225438	 -1.626959
H	 0.597997	 1.417821	 -1.102212
C	 -1.784837	 -0.905174	 -0.033644
H	 -1.742036	 0.916703	 -1.160852
H	 -1.292680	 1.120369	 0.506694
C	 -3.282729	 -0.831189	 0.269419
H	 -1.621203	 -1.575501	 -0.876084
H	 -1.276347	 -1.353619	 0.816830
C	 -3.903181	 -2.191066	 0.594851
H	 -3.801131	 -0.395366	 -0.582961
H	 -3.448001	 -0.152686	 1.104893
C	 -5.399962	 -2.108985	 0.892525
H	 -3.738060	 -2.870612	 -0.238572
H	 -3.389184	 -2.626337	 1.449326
H	 -5.810590	 -3.088022	 1.119415
H	 -5.947220	 -1.709626	 0.043281
H	 -5.595591	 -1.462970	 1.743799
C	 4.728119	 -1.109107	 -0.004993
H	 4.882018	 -1.033965	 -1.071845
H	 5.068212	 -2.067527	 0.355250
H	 5.265056	 -0.311663	 0.488280

	symmetry c1
}
set optking {
	frozen_dihedral = ("
		6 3 2 1
	")
}

ee = optimize('scf')
oeprop('DIPOLE', 'QUADRUPOLE', 'MULLIKEN_CHARGES')
f=open( 'psi4out.xyz', 'w' )
f.write( "29  " )
f.write( str(ee) + "\n" )
f.write( MOL.save_string_xyz() )
f.close()
--------------------------------------------------------------------------

    Molecular point group: c1
  Charge       = 0
  Multiplicity = 1
  Basis Set: 6-31G*
  Basis Set:
  @DF-RHF Final Energy:  -501.04258269410241
    Total Energy =                       -501.0425826941022933
    Molecular point group: c1
  Basis Set: 6-31G*
  Basis Set:
  Basis Set: 6-31G*
  Basis Set:
  @DF-RHF Final Energy:  -501.04240215633774
    Total Energy =                       -501.0424021563379711
  Basis Set: 6-31G*
  Basis Set:
  Basis Set: 6-31G*
  Basis Set:
  @DF-RHF Final Energy:  -501.04256623375829
    Total Energy =                       -501.0425662337579524
  Basis Set: 6-31G*
  Basis Set:
  Basis Set: 6-31G*
  Basis Set:
  @DF-RHF Final Energy:  -501.04305629455303
    Total Energy =                       -501.0430562945537076
  Basis Set: 6-31G*
  Basis Set:
  Basis Set: 6-31G*
  Basis Set:
  @DF-RHF Final Energy:  -501.04305848268575
    Total Energy =                       -501.0430584826860922
  Basis Set: 6-31G*
  Basis Set:
  Basis Set: 6-31G*
  Basis Set:
  @DF-RHF Final Energy:  -501.04306239260131
    Total Energy =                       -501.0430623926017688
  Basis Set: 6-31G*
  Basis Set:
  Charge       = 0
  Multiplicity = 1
  Basis Set: 6-31G*
  Basis Set:

    Orbital Energies (a.u.)
    -----------------------

    Doubly Occupied:

       1A    -20.605596     2A    -20.542690     3A    -11.371682
       4A    -11.280715     5A    -11.233562     6A    -11.223023
       7A    -11.218897     8A    -11.216600     9A    -11.216257
      10A    -11.214944    11A    -11.209362    12A     -1.469579
      13A     -1.361510    14A     -1.098865    15A     -1.067025
      16A     -1.019212    17A     -0.977463    18A     -0.929489
      19A     -0.862305    20A     -0.799402    21A     -0.790706
      22A     -0.767958    23A     -0.699547    24A     -0.680105
      25A     -0.672592    26A     -0.651560    27A     -0.627138
      28A     -0.605814    29A     -0.594900    30A     -0.580580
      31A     -0.562441    32A     -0.557939    33A     -0.533653
      34A     -0.528748    35A     -0.516360    36A     -0.515081
      37A     -0.495387    38A     -0.478585    39A     -0.470373
      40A     -0.463125    41A     -0.459452    42A     -0.455445
      43A     -0.441072    44A     -0.433584

  @DF-RHF Final Energy:  -501.04306298654853

   => Energetics <=

    Nuclear Repulsion Energy =            610.5724240930604765
    One-Electron Energy =               -1892.2303231888963637
    Two-Electron Energy =                 780.6148361092866708
    DFT Exchange-Correlation Energy =       0.0000000000000000
    Empirical Dispersion Energy =           0.0000000000000000
    PCM Polarization Energy =               0.0000000000000000
    EFP Energy =                            0.0000000000000000
    Total Energy =                       -501.0430629865493302
    Molecular point group: c1
  Basis Set: 6-31G*
  Basis Set:

  -Total Gradient:
     Atom            X                  Y                   Z
    ------   -----------------  -----------------  -----------------
       1        0.000212850197     0.000373462053     0.000905408937
       2       -0.000267114417    -0.000492650527    -0.001109017341
       3       -0.000194833311    -0.000093077826    -0.000736823932
       4        0.000018033678    -0.000014285156     0.000002130359
       5       -0.000006224217    -0.000019414331    -0.000005436595
       6        0.000219069861     0.000223063698     0.000927948707
       7        0.000009544190     0.000003303128     0.000001572556
       8       -0.000000589910    -0.000023152753    -0.000004162926
       9        0.000011199907     0.000021020524    -0.000000323462
      10       -0.000016089882     0.000013284634     0.000016190755
      11        0.000008257947     0.000002085747    -0.000002583249
      12       -0.000001201207     0.000007459051    -0.000004662173
      13        0.000011438053    -0.000005658090    -0.000001458690
      14       -0.000003268103     0.000005502935    -0.000009892196
      15        0.000011836060    -0.000003792780     0.000003757558
      16       -0.000003752772     0.000002827178     0.000011537212
      17        0.000001967160    -0.000000373433    -0.000001387218
      18       -0.000001427365     0.000002033791     0.000002135940
      19       -0.000000809271    -0.000001243882     0.000002685824
      20        0.000000082634     0.000000851462    -0.000000088636
      21        0.000000278650    -0.000000006656     0.000000416290
      22       -0.000000232292     0.000000034182     0.000000436153
      23        0.000000210558    -0.000000060440    -0.000000257956
      24        0.000000058454     0.000000226820     0.000000087288
      25        0.000000091169    -0.000000328465    -0.000000062869
      26       -0.000018326077     0.000002593117     0.000010367531
      27        0.000003872659    -0.000002040368    -0.000005196324
      28        0.000003862495    -0.000000599576    -0.000000394019
      29        0.000001215148    -0.000001064040    -0.000002927522

  **** Optimization is complete! (in 7 steps) ****
    Final optimized geometry and variables:
    Molecular point group: c1

    Geometry (in Angstrom), charge = 0, multiplicity = 1:

    O            3.134597871325     1.552910519617    -0.644028591069
    C            2.658305395815     0.601512112420    -0.111513248129
    C            1.205618949820     0.479863555841     0.285674001449
    O            3.364903045796    -0.466904619715     0.228498438679
    C            0.263053949315     0.962629986449    -0.821393449795
    H            1.005990592944    -0.539861742798     0.584438593441
    H            1.078502861010     1.102432860877     1.168901018068
    C           -1.208841262050     1.020016559398    -0.400801359057
    H            0.366689265366     0.314757932174    -1.689139971182
    H            0.584967686777     1.949310756680    -1.133049129775
    C           -1.844846024149    -0.337653168775    -0.089777721852
    H           -1.770151775895     1.492347670958    -1.203729604787
    H           -1.310222049769     1.673976773722     0.463866011044
    C           -3.340154499403    -0.237250503034     0.218342171373
    H           -1.696406539227    -1.005181617352    -0.937297227615
    H           -1.341841851434    -0.801304413049     0.755627070765
    C           -3.985261945838    -1.587408879582     0.536176484086
    H           -3.852812314451     0.214411457169    -0.629267954111
    H           -3.489986809833     0.438305903241     1.059073968302
    C           -5.479173363839    -1.478985056930     0.839763933426
    H           -3.835963531432    -2.263929932433    -0.302686407905
    H           -3.476693522576    -2.038545105111     1.385625310045
    H           -5.907556339511    -2.451651402585     1.061136119231
    H           -6.021661514589    -1.063175405985    -0.004632218659
    H           -5.659518942430    -0.835524426584     1.696313429245
    C            4.750986751560    -0.438148260748    -0.061466395841
    H            4.913922993987    -0.334644861714    -1.124489058983
    H            5.144890925151    -1.379751674951     0.287992692878
    H            5.229434463038     0.382801002222     0.452832514682

  Mulliken Charges: (a.u.)
   Center  Symbol    Alpha    Beta     Spin     Total
       1     O     4.28707  4.28707  0.00000 -0.57414
       2     C     2.60481  2.60481  0.00000  0.79037
       3     C     3.21010  3.21010  0.00000 -0.42019
       4     O     4.30483  4.30483  0.00000 -0.60967
       5     C     3.16135  3.16135  0.00000 -0.32270
       6     H     0.39812  0.39812  0.00000  0.20376
       7     H     0.40153  0.40153  0.00000  0.19694
       8     C     3.15608  3.15608  0.00000 -0.31216
       9     H     0.41807  0.41807  0.00000  0.16386
      10     H     0.40049  0.40049  0.00000  0.19902
      11     C     3.15486  3.15486  0.00000 -0.30972
      12     H     0.41820  0.41820  0.00000  0.16359
      13     H     0.42244  0.42244  0.00000  0.15512
      14     C     3.15046  3.15046  0.00000 -0.30092
      15     H     0.42309  0.42309  0.00000  0.15382
      16     H     0.42275  0.42275  0.00000  0.15450
      17     C     3.15146  3.15146  0.00000 -0.30292
      18     H     0.42339  0.42339  0.00000  0.15322
      19     H     0.42375  0.42375  0.00000  0.15250
      20     C     3.23937  3.23937  0.00000 -0.47874
      21     H     0.42291  0.42291  0.00000  0.15419
      22     H     0.42326  0.42326  0.00000  0.15347
      23     H     0.41919  0.41919  0.00000  0.16163
      24     H     0.42157  0.42157  0.00000  0.15686
      25     H     0.42172  0.42172  0.00000  0.15657
      26     C     3.09352  3.09352  0.00000 -0.18704
      27     H     0.40844  0.40844  0.00000  0.18312
      28     H     0.40842  0.40842  0.00000  0.18316
      29     H     0.40875  0.40875  0.00000  0.18250

   Total alpha = 44.00000, Total beta = 44.00000, Total charge =  0.00000
