                              Psi4 1.0.54 Driver

  ==> Input File <==

--------------------------------------------------------------------------
set {
	reference rhf
	basis cc-pvtz
}

set_num_threads( 4 )
memory 2 gb

molecule MOL {
0 1

H	 -3.258660	 -0.290394	 1.471450
C	 -3.307964	 -0.275695	 0.374072
C	 -2.653809	 0.914422	 -0.273689
O	 -3.855140	 -1.148880	 -0.205112
C	 -1.386353	 1.365558	 0.458232
H	 -2.452555	 0.675286	 -1.309857
H	 -3.384581	 1.719916	 -0.252348
C	 -0.238333	 0.362264	 0.370858
H	 -1.068340	 2.314425	 0.040073
H	 -1.623143	 1.559883	 1.501478
C	 1.020918	 0.830389	 1.095376
H	 -0.006703	 0.178481	 -0.674933
H	 -0.553091	 -0.593897	 0.780872
C	 2.171241	 -0.169683	 0.996066
H	 1.325333	 1.789201	 0.687509
H	 0.788027	 1.004005	 2.143668
C	 3.428750	 0.218490	 1.775741
H	 2.430224	 -0.315750	 -0.050059
H	 1.825225	 -1.133518	 1.358831
C	 4.146025	 1.460940	 1.253324
H	 4.119633	 -0.618376	 1.748762
H	 3.171427	 0.363883	 2.821662
H	 4.409980	 1.346883	 0.206751
H	 3.535722	 2.351313	 1.345256
H	 5.061626	 1.636683	 1.806275

	symmetry c1
}
set optking {
	frozen_dihedral = ("
		6 3 2 4
	")
}

ee,wfn = optimize('scf', return_wfn=True)
oeprop( wfn, 'DIPOLE', 'QUADRUPOLE', 'MULLIKEN_CHARGES')
f=open( 'psi4out.xyz', 'w' )
f.write( "25  " )
f.write( str(ee) + "\n" )
f.write( MOL.save_string_xyz() )
f.close()
--------------------------------------------------------------------------

    Molecular point group: c1
  Charge       = 0
  Multiplicity = 1
  Basis Set: CC-PVTZ
  Basis Set:
  @DF-RHF Final Energy:  -387.26006963959151
    Total Energy =                       -387.2600696395917339
    Molecular point group: c1
  Basis Set: CC-PVTZ
  Basis Set:
  Basis Set: CC-PVTZ
  Basis Set:
  @DF-RHF Final Energy:  -387.25920340927934
    Total Energy =                       -387.2592034092789390
  Basis Set: CC-PVTZ
  Basis Set:
  Basis Set: CC-PVTZ
  Basis Set:
  @DF-RHF Final Energy:  -387.26012110713725
    Total Energy =                       -387.2601211071369107
  Basis Set: CC-PVTZ
  Basis Set:
  Basis Set: CC-PVTZ
  Basis Set:
  @DF-RHF Final Energy:  -387.26013149998016
    Total Energy =                       -387.2601314999797069
  Basis Set: CC-PVTZ
  Basis Set:
  Basis Set: CC-PVTZ
  Basis Set:
  @DF-RHF Final Energy:  -387.26012885902628
    Total Energy =                       -387.2601288590265085
  Basis Set: CC-PVTZ
  Basis Set:
  Basis Set: CC-PVTZ
  Basis Set:
  @DF-RHF Final Energy:  -387.26013276021911
    Total Energy =                       -387.2601327602187666
  Basis Set: CC-PVTZ
  Basis Set:
  Charge       = 0
  Multiplicity = 1
  Basis Set: CC-PVTZ
  Basis Set:

    Orbital Energies (a.u.)
    -----------------------

    Doubly Occupied:

       1A    -20.550951     2A    -11.321300     3A    -11.233832
       4A    -11.231996     5A    -11.223302     6A    -11.218687
       7A    -11.217035     8A    -11.216016     9A    -11.209462
      10A     -1.406331    11A     -1.106212    12A     -1.071642
      13A     -1.015033    14A     -0.943711    15A     -0.876186
      16A     -0.822249    17A     -0.789785    18A     -0.782989
      19A     -0.667016    20A     -0.661167    21A     -0.635577
      22A     -0.630482    23A     -0.606661    24A     -0.597194
      25A     -0.574805    26A     -0.550538    27A     -0.538414
      28A     -0.529014    29A     -0.507795    30A     -0.498885
      31A     -0.492229    32A     -0.480606    33A     -0.466110
      34A     -0.460299    35A     -0.443549    36A     -0.411741

  @DF-RHF Final Energy:  -387.26013280728392

   => Energetics <=

    Nuclear Repulsion Energy =            438.6830057820354227
    One-Electron Energy =               -1393.9086754276131614
    Two-Electron Energy =                 567.9655368382937013
    DFT Exchange-Correlation Energy =       0.0000000000000000
    Empirical Dispersion Energy =           0.0000000000000000
    PCM Polarization Energy =               0.0000000000000000
    EFP Energy =                            0.0000000000000000
    Total Energy =                       -387.2601328072839806
    Molecular point group: c1
  Basis Set: CC-PVTZ
  Basis Set:

  -Total Gradient:
     Atom            X                  Y                   Z
    ------   -----------------  -----------------  -----------------
       1        0.000001385716    -0.000009477032    -0.000023296054
       2        0.001531442348    -0.000893355808    -0.000019305389
       3       -0.001504343428     0.000724076320    -0.000309948509
       4       -0.000933791402     0.000544288845     0.000070046696
       5       -0.000004472883     0.000013987142    -0.000016050711
       6        0.000911380712    -0.000383282284     0.000290278106
       7       -0.000008483422     0.000011973269    -0.000005417446
       8       -0.000000438483    -0.000003943054     0.000009946843
       9        0.000002431161     0.000009884291     0.000007833620
      10       -0.000000687396    -0.000008116820    -0.000005522408
      11        0.000002209827    -0.000005423756     0.000000015146
      12       -0.000004357314    -0.000004309009     0.000003214262
      13        0.000004250334     0.000001919620     0.000002590418
      14        0.000002874492     0.000003012458    -0.000002363109
      15        0.000002118758     0.000005613697     0.000002746880
      16       -0.000002370934    -0.000003731796    -0.000000513899
      17        0.000004579085    -0.000002953462    -0.000005363900
      18        0.000001304679    -0.000004403105    -0.000000078004
      19       -0.000000006226     0.000003434641     0.000002191912
      20       -0.000001680077    -0.000000051766     0.000000026900
      21        0.000001834259     0.000000653575    -0.000000488755
      22       -0.000000897247    -0.000001312478    -0.000000755074
      23        0.000000028246    -0.000000341948     0.000000839896
      24       -0.000004037186     0.000001476798    -0.000001247965
      25       -0.000000273621     0.000000381659     0.000000620544

  **** Optimization is complete! (in 7 steps) ****
    Final optimized geometry and variables:
    Molecular point group: c1

    Geometry (in Angstrom), charge = 0, multiplicity = 1:

    H           -3.236383999450    -0.665039558629     0.790543902361
    C           -3.243735796754    -0.655343802788    -0.307788636755
    C           -2.566460486146     0.530728380394    -0.944472244379
    O           -3.788816494685    -1.518810043646    -0.902937311263
    C           -1.307704655956     0.981908039819    -0.203239139563
    H           -2.353117747891     0.286837735155    -1.977425659116
    H           -3.299748527321     1.334182251592    -0.941702438654
    C           -0.163058665540    -0.026516669906    -0.277240947399
    H           -0.980519600846     1.928430245784    -0.619783353285
    H           -1.553493304062     1.179351910679     0.837356462163
    C            1.091490569690     0.434073189040     0.459965379642
    H            0.078467843485    -0.212377182483    -1.320568145230
    H           -0.486852267525    -0.981197074271     0.130710259239
    C            2.237436216655    -0.572033713325     0.371961010285
    H            1.404792838615     1.391275103964     0.055167074208
    H            0.848927817739     0.608915491361     1.505802554906
    C            3.488722497837    -0.190799176919     1.164896826149
    H            2.506640117881    -0.718853638163    -0.671482924783
    H            1.882736223403    -1.534311660371     0.730634920986
    C            4.216952679618     1.048951747536     0.651321609180
    H            4.175886240122    -1.030882695451     1.143865739401
    H            3.221350810637    -0.045499923827     2.208289731824
    H            4.490337579228     0.935207331798    -0.392853915032
    H            3.610203466085     1.942186593128     0.738883452478
    H            5.128063243646     1.219282439006     1.213275810140

  Mulliken Charges: (a.u.)
   Center  Symbol    Alpha    Beta     Spin     Total
       1     H     0.46280  0.46280  0.00000  0.07440
       2     C     2.90811  2.90811  0.00000  0.18378
       3     C     3.08965  3.08965  0.00000 -0.17931
       4     O     4.16556  4.16556  0.00000 -0.33111
       5     C     3.11604  3.11604  0.00000 -0.23209
       6     H     0.44162  0.44162  0.00000  0.11675
       7     H     0.43881  0.43881  0.00000  0.12238
       8     C     3.09029  3.09029  0.00000 -0.18057
       9     H     0.44287  0.44287  0.00000  0.11426
      10     H     0.45016  0.45016  0.00000  0.09968
      11     C     3.09295  3.09295  0.00000 -0.18589
      12     H     0.44977  0.44977  0.00000  0.10047
      13     H     0.44927  0.44927  0.00000  0.10147
      14     C     3.09564  3.09564  0.00000 -0.19128
      15     H     0.45118  0.45118  0.00000  0.09764
      16     H     0.45399  0.45399  0.00000  0.09202
      17     C     3.09075  3.09075  0.00000 -0.18149
      18     H     0.45295  0.45295  0.00000  0.09410
      19     H     0.44811  0.44811  0.00000  0.10378
      20     C     3.15270  3.15270  0.00000 -0.30540
      21     H     0.44759  0.44759  0.00000  0.10482
      22     H     0.45462  0.45462  0.00000  0.09077
      23     H     0.45449  0.45449  0.00000  0.09102
      24     H     0.45432  0.45432  0.00000  0.09137
      25     H     0.44578  0.44578  0.00000  0.10844

   Total alpha = 36.00000, Total beta = 36.00000, Total charge = -0.00000

*** Psi4 exiting successfully. Buy a developer a beer!
