                              Psi4 1.0.54 Driver

  ==> Input File <==

--------------------------------------------------------------------------
set {
	reference rhf
	basis cc-pvtz
}

set_num_threads( 4 )
memory 2 gb

molecule MOL {
0 1

O	 3.265038	 0.693226	 0.975791
C	 2.841259	 0.166180	 -0.000295
C	 1.542794	 -0.614730	 -0.000853
C	 3.577332	 0.241145	 -1.318931
C	 0.288398	 0.247429	 0.000314
H	 1.557171	 -1.273139	 -0.866508
H	 1.557484	 -1.274998	 0.863344
C	 -0.993089	 -0.581367	 -0.000217
H	 0.305153	 0.900562	 -0.864701
H	 0.305567	 0.898805	 0.866656
C	 -2.258482	 0.271340	 0.000669
H	 -1.002280	 -1.233920	 -0.870484
H	 -1.002061	 -1.235367	 0.868958
C	 -3.544441	 -0.550271	 -0.000253
H	 -2.250545	 0.925250	 -0.867923
H	 -2.250598	 0.923423	 0.870642
C	 -4.804551	 0.308747	 0.000556
H	 -3.553737	 -1.201524	 -0.870151
H	 -3.553831	 -1.203282	 0.868313
H	 -4.842050	 0.949078	 -0.874436
H	 -5.698404	 -0.304480	 -0.000254
H	 -4.842277	 0.947103	 0.876982
H	 2.947117	 0.698582	 -2.073668
H	 4.481173	 0.818770	 -1.201408
H	 3.823988	 -0.756029	 -1.666562

	symmetry c1
}
set optking {
	frozen_dihedral = ("
		1 2 3 6
	")
}

ee,wfn = optimize('scf', return_wfn=True)
oeprop( wfn, 'DIPOLE', 'QUADRUPOLE', 'MULLIKEN_CHARGES')
f=open( 'psi4out.xyz', 'w' )
f.write( "25  " )
f.write( str(ee) + "\n" )
f.write( MOL.save_string_xyz() )
f.close()
--------------------------------------------------------------------------

    Molecular point group: c1
  Charge       = 0
  Multiplicity = 1
  Basis Set: CC-PVTZ
  Basis Set:
  @DF-RHF Final Energy:  -387.27190075850507
    Total Energy =                       -387.2719007585051259
    Molecular point group: c1
  Basis Set: CC-PVTZ
  Basis Set:
  Basis Set: CC-PVTZ
  Basis Set:
  @DF-RHF Final Energy:  -387.27273058706243
    Total Energy =                       -387.2727305870623695
  Basis Set: CC-PVTZ
  Basis Set:
  Basis Set: CC-PVTZ
  Basis Set:
  @DF-RHF Final Energy:  -387.25300780102043
    Total Energy =                       -387.2530078010205443
  Basis Set: CC-PVTZ
  Basis Set:
  Basis Set: CC-PVTZ
  Basis Set:
  @DF-RHF Final Energy:  -387.27181291471288
    Total Energy =                       -387.2718129147132231
  Basis Set: CC-PVTZ
  Basis Set:
  Basis Set: CC-PVTZ
  Basis Set:
  @DF-RHF Final Energy:  -387.27293108275830
    Total Energy =                       -387.2729310827580775
  Basis Set: CC-PVTZ
  Basis Set:
  Basis Set: CC-PVTZ
  Basis Set:
  @DF-RHF Final Energy:  -387.27294619155248
    Total Energy =                       -387.2729461915525917
  Basis Set: CC-PVTZ
  Basis Set:
  Basis Set: CC-PVTZ
  Basis Set:
  @DF-RHF Final Energy:  -387.27294895945516
    Total Energy =                       -387.2729489594551069
  Basis Set: CC-PVTZ
  Basis Set:
  Charge       = 0
  Multiplicity = 1
  Basis Set: CC-PVTZ
  Basis Set:

    Orbital Energies (a.u.)
    -----------------------

    Doubly Occupied:

       1A    -20.536542     2A    -11.319299     3A    -11.227680
       4A    -11.226978     5A    -11.226838     6A    -11.219465
       7A    -11.216442     8A    -11.215576     9A    -11.208843
      10A     -1.396834    11A     -1.099752    12A     -1.060052
      13A     -1.014206    14A     -0.971773    15A     -0.894280
      16A     -0.817756    17A     -0.795538    18A     -0.733656
      19A     -0.668669    20A     -0.649689    21A     -0.639722
      22A     -0.611861    23A     -0.605726    24A     -0.588087
      25A     -0.569557    26A     -0.558452    27A     -0.542033
      28A     -0.540672    29A     -0.510291    30A     -0.499455
      31A     -0.491161    32A     -0.477032    33A     -0.467696
      34A     -0.467036    35A     -0.454518    36A     -0.397987

  @DF-RHF Final Energy:  -387.27294958875194

   => Energetics <=

    Nuclear Repulsion Energy =            439.8637169128660958
    One-Electron Energy =               -1396.4310241534144552
    Two-Electron Energy =                 569.2943576517967585
    DFT Exchange-Correlation Energy =       0.0000000000000000
    Empirical Dispersion Energy =           0.0000000000000000
    PCM Polarization Energy =               0.0000000000000000
    EFP Energy =                            0.0000000000000000
    Total Energy =                       -387.2729495887516578
    Molecular point group: c1
  Basis Set: CC-PVTZ
  Basis Set:

  -Total Gradient:
     Atom            X                  Y                   Z
    ------   -----------------  -----------------  -----------------
       1       -0.000131399066     0.000221584009    -0.000099309030
       2        0.000143092868    -0.000254254712     0.000094440075
       3        0.000196193857    -0.000170622289     0.000274838474
       4        0.000014235685     0.000024745625     0.000032619391
       5       -0.000044846182     0.000021062525    -0.000033209533
       6       -0.000107368168     0.000155804440    -0.000215488561
       7       -0.000002915276     0.000010871716    -0.000027197955
       8        0.000036051002     0.000026873755    -0.000010051706
       9       -0.000001424767    -0.000001097522     0.000011090443
      10       -0.000007431161     0.000012038426    -0.000010376036
      11       -0.000030278925    -0.000027953592     0.000001774942
      12        0.000001285295     0.000007619297    -0.000003360611
      13       -0.000008115812    -0.000008020987    -0.000004412937
      14        0.000010285115     0.000016897284     0.000006324997
      15        0.000003729092    -0.000009697397     0.000000406953
      16       -0.000005488113     0.000000906327    -0.000005530874
      17       -0.000027265696     0.000011102573     0.000019666886
      18        0.000013767430     0.000004109019     0.000000502868
      19        0.000001092692    -0.000008109977     0.000002203451
      20        0.000000534512     0.000002198368    -0.000007372242
      21        0.000004291218     0.000005556752     0.000000016623
      22       -0.000003028152    -0.000000422712    -0.000006536269
      23       -0.000003486381    -0.000011856633    -0.000014378902
      24       -0.000048355250    -0.000027551322     0.000011510053
      25       -0.000003155818    -0.000001782974    -0.000018170498

  **** Optimization is complete! (in 8 steps) ****
    Final optimized geometry and variables:
    Molecular point group: c1

    Geometry (in Angstrom), charge = 0, multiplicity = 1:

    O            3.170243793029     0.611576208997     1.204149092356
    C            2.823619400923    -0.097213768897     0.316058804359
    C            1.485868446241    -0.809753245126     0.363819705179
    C            3.678794498620    -0.308133752252    -0.909925305882
    C            0.341409976918     0.148229382557     0.011725612225
    H            1.481848441851    -1.654071813977    -0.316939852077
    H            1.349663301756    -1.184073779610     1.370843702180
    C           -1.027655594293    -0.522712037571     0.069445767161
    H            0.499923918547     0.555564347731    -0.983733522890
    H            0.369596512341     0.986957242290     0.697935938363
    C           -2.175114161384     0.424734885773    -0.268491925331
    H           -1.045029602354    -1.367196800974    -0.615301000864
    H           -1.181283085972    -0.933310314302     1.064063471891
    C           -3.547579502055    -0.239405885883    -0.204584442995
    H           -2.022013198752     0.834399394678    -1.264210936568
    H           -2.154468670810     1.270569054821     0.414207274283
    C           -4.690124757016     0.712738748504    -0.541834480477
    H           -3.569616563133    -1.084309270085    -0.887593312730
    H           -3.701811095324    -0.648467903940     0.790119410944
    H           -4.583482314616     1.112469177573    -1.544846212395
    H           -5.649065843482     0.210532152668    -0.486694845119
    H           -4.716193907184     1.551585884557     0.145626628496
    H            3.102631952388    -0.123603296044    -1.810132884736
    H            4.538856401203     0.342868592569    -0.880948355073
    H            4.005918848484    -1.342312265402    -0.946111738011

  Mulliken Charges: (a.u.)
   Center  Symbol    Alpha    Beta     Spin     Total
       1     O     4.17847  4.17847  0.00000 -0.35693
       2     C     2.85815  2.85815  0.00000  0.28370
       3     C     3.09906  3.09906  0.00000 -0.19811
       4     C     3.15487  3.15487  0.00000 -0.30975
       5     C     3.10016  3.10016  0.00000 -0.20033
       6     H     0.44910  0.44910  0.00000  0.10180
       7     H     0.43955  0.43955  0.00000  0.12090
       8     C     3.09017  3.09017  0.00000 -0.18035
       9     H     0.45294  0.45294  0.00000  0.09412
      10     H     0.43983  0.43983  0.00000  0.12034
      11     C     3.08672  3.08672  0.00000 -0.17344
      12     H     0.45439  0.45439  0.00000  0.09122
      13     H     0.45195  0.45195  0.00000  0.09609
      14     C     3.08466  3.08466  0.00000 -0.16932
      15     H     0.45508  0.45508  0.00000  0.08984
      16     H     0.45276  0.45276  0.00000  0.09448
      17     C     3.15033  3.15033  0.00000 -0.30066
      18     H     0.45489  0.45489  0.00000  0.09021
      19     H     0.45395  0.45395  0.00000  0.09210
      20     H     0.45521  0.45521  0.00000  0.08958
      21     H     0.44810  0.44810  0.00000  0.10380
      22     H     0.45439  0.45439  0.00000  0.09123
      23     H     0.45075  0.45075  0.00000  0.09850
      24     H     0.43614  0.43614  0.00000  0.12772
      25     H     0.44838  0.44838  0.00000  0.10323

   Total alpha = 36.00000, Total beta = 36.00000, Total charge = -0.00000

*** Psi4 exiting successfully. Buy a developer a beer!
