  ==> Input File <==

--------------------------------------------------------------------------
set {
	reference rhf
	basis cc-pvtz
}

set_num_threads( 4 )
memory 2 gb

molecule MOL {
0 1

H	 2.757696	 0.349871	 -0.792635
N	 2.326826	 -0.066186	 0.000000
C	 0.934676	 -0.005420	 0.000000
H	 2.700128	 -0.969012	 0.180483
C	 0.226436	 -0.001077	 -1.195129
C	 0.226436	 -0.001077	 1.195129
H	 0.759091	 -0.011439	 -2.128123
C	 -1.153391	 0.009141	 -1.189028
H	 0.759091	 -0.011439	 2.128123
C	 -1.153391	 0.009141	 1.189028
H	 -1.680905	 0.012964	 -2.124348
C	 -1.857876	 0.014675	 0.000000
H	 -1.680905	 0.012964	 2.124348
H	 -2.930222	 0.022904	 0.000000

	symmetry c1
}
set optking {
	frozen_dihedral = ("
		1 2 3 5
	")
}

ee = optimize('scf')
oeprop('DIPOLE', 'QUADRUPOLE', 'MULLIKEN_CHARGES')
f=open( 'psi4out.xyz', 'w' )
f.write( "14  " )
f.write( str(ee) + "\n" )
f.write( MOL.save_string_xyz() )
f.close()
--------------------------------------------------------------------------

    Molecular point group: c1
  Charge       = 0
  Multiplicity = 1
  Basis Set: CC-PVTZ
  Basis Set:
  @DF-RHF Final Energy:  -285.82797900438027
    Total Energy =                       -285.8279790043801540
    Molecular point group: c1
  Basis Set: CC-PVTZ
  Basis Set:
  Basis Set: CC-PVTZ
  Basis Set:
  @DF-RHF Final Energy:  -285.82863952860998
    Total Energy =                       -285.8286395286099264
  Basis Set: CC-PVTZ
  Basis Set:
  Basis Set: CC-PVTZ
  Basis Set:
  @DF-RHF Final Energy:  -285.82873482424407
    Total Energy =                       -285.8287348242440657
  Basis Set: CC-PVTZ
  Basis Set:
  Basis Set: CC-PVTZ
  Basis Set:
  @DF-RHF Final Energy:  -285.82877732945320
    Total Energy =                       -285.8287773294533167
  Basis Set: CC-PVTZ
  Basis Set:
  Basis Set: CC-PVTZ
  Basis Set:
  @DF-RHF Final Energy:  -285.82878503246855
    Total Energy =                       -285.8287850324689998
  Basis Set: CC-PVTZ
  Basis Set:
  Charge       = 0
  Multiplicity = 1
  Basis Set: CC-PVTZ
  Basis Set:

    Orbital Energies (a.u.)
    -----------------------

    Doubly Occupied:

       1A    -15.544285     2A    -11.262379     3A    -11.227897
       4A    -11.226763     5A    -11.221742     6A    -11.220653
       7A    -11.218149     8A     -1.213058     9A     -1.131188
      10A     -1.015074    11A     -0.989426    12A     -0.830855
      13A     -0.811406    14A     -0.706304    15A     -0.674973
      16A     -0.649746    17A     -0.622497    18A     -0.594933
      19A     -0.584745    20A     -0.511046    21A     -0.504258
      22A     -0.493294    23A     -0.422984    24A     -0.336060
      25A     -0.316921

  @DF-RHF Final Energy:  -285.82878572817742

   => Energetics <=

    Nuclear Repulsion Energy =            273.1707377292162846
    One-Electron Energy =                -927.3377780273324333
    Two-Electron Energy =                 368.3382545699388970
    DFT Exchange-Correlation Energy =       0.0000000000000000
    Empirical Dispersion Energy =           0.0000000000000000
    PCM Polarization Energy =               0.0000000000000000
    EFP Energy =                            0.0000000000000000
    Total Energy =                       -285.8287857281772517
    Molecular point group: c1
  Basis Set: CC-PVTZ
  Basis Set:

  -Total Gradient:
     Atom            X                  Y                   Z
    ------   -----------------  -----------------  -----------------
       1        0.000027899357     0.003047057339     0.001701257434
       2       -0.000047412990    -0.005300872582    -0.002143696583
       3        0.000070174548     0.005006552389     0.000351276551
       4        0.000017061752    -0.000012572894    -0.000002039820
       5       -0.000004182678    -0.002760907903     0.000034489334
       6       -0.000093031435     0.000015355044     0.000049275825
       7       -0.000005890990     0.000001546839     0.000006149835
       8       -0.000036485386     0.000042083832     0.000031452890
       9       -0.000000085294    -0.000010663179    -0.000008291336
      10        0.000092605502     0.000001466215     0.000031974546
      11       -0.000006006009    -0.000006821720    -0.000004382316
      12       -0.000009641784    -0.000020384074    -0.000057591410
      13       -0.000011476028     0.000003844307     0.000004965163
      14        0.000006471431    -0.000005683614     0.000005159887

  **** Optimization is complete! (in 6 steps) ****
    Final optimized geometry and variables:
    Molecular point group: c1

    Geometry (in Angstrom), charge = 0, multiplicity = 1:

    H            2.764429605919     0.399288176226    -0.752210488344
    N            2.346166160199    -0.038515600022     0.037360542640
    C            0.928273200754    -0.005399683209    -0.001649427939
    H            2.712607860838    -0.957401942171     0.154372518271
    C            0.220746805054    -0.005161295261    -1.193446370603
    C            0.226330292025     0.006570859849     1.193502544958
    H            0.753961122535    -0.030066344437    -2.125785293551
    C           -1.161360022464     0.031065756751    -1.190136124341
    H            0.774209147294     0.016493795482     2.115766960253
    C           -1.154450835724     0.018500942249     1.194791428739
    H           -1.693606897729     0.041261025345    -2.122469759361
    C           -1.856071611103     0.036917577860     0.003333833559
    H           -1.683409677958     0.026415488221     2.128991362660
    H           -2.928816104428     0.056915229283     0.006079534906

  Mulliken Charges: (a.u.)
   Center  Symbol    Alpha    Beta     Spin     Total
       1     H     0.42059  0.42059  0.00000  0.15882
       2     N     3.70474  3.70474  0.00000 -0.40948
       3     C     2.88965  2.88965  0.00000  0.22070
       4     H     0.41891  0.41891  0.00000  0.16217
       5     C     3.11392  3.11392  0.00000 -0.22785
       6     C     3.10768  3.10768  0.00000 -0.21536
       7     H     0.42883  0.42883  0.00000  0.14233
       8     C     3.07043  3.07043  0.00000 -0.14085
       9     H     0.42023  0.42023  0.00000  0.15955
      10     C     3.06456  3.06456  0.00000 -0.12913
      11     H     0.42391  0.42391  0.00000  0.15219
      12     C     3.08886  3.08886  0.00000 -0.17772
      13     H     0.42359  0.42359  0.00000  0.15283
      14     H     0.42410  0.42410  0.00000  0.15179

   Total alpha = 25.00000, Total beta = 25.00000, Total charge = -0.00000
