  ==> Input File <==

--------------------------------------------------------------------------
set {
	reference rhf
	basis 6-31G*
}

set_num_threads( 4 )
memory 2 gb

molecule MOL {
0 1

O	 -1.806910	 0.941989	 0.621715
C	 -1.083277	 0.139568	 0.115197
C	 0.323299	 -0.082943	 0.642902
C	 -1.515043	 -0.673772	 -1.084755
C	 1.355627	 -0.005344	 -0.493127
H	 0.396251	 -1.044647	 1.143147
H	 0.528637	 0.693580	 1.371677
C	 2.786168	 -0.195604	 0.007473
H	 1.132807	 -0.760304	 -1.243899
H	 1.259610	 0.958506	 -0.981915
H	 3.495561	 -0.130713	 -0.811210
H	 2.912696	 -1.165395	 0.480041
H	 3.049284	 0.565503	 0.735850
H	 -0.779714	 -0.605548	 -1.881188
H	 -2.475239	 -0.327067	 -1.440501
H	 -1.590307	 -1.721862	 -0.807180

	symmetry c1
}
set optking {
	frozen_dihedral = ("
		4 2 3 5
	")
}

ee = optimize('scf')
oeprop('DIPOLE', 'QUADRUPOLE', 'MULLIKEN_CHARGES')
f=open( 'psi4out.xyz', 'w' )
f.write( "16  " )
f.write( str(ee) + "\n" )
f.write( MOL.save_string_xyz() )
f.close()
--------------------------------------------------------------------------

    Molecular point group: c1
  Charge       = 0
  Multiplicity = 1
  Basis Set: 6-31G*
  Basis Set:
  @DF-RHF Final Energy:  -270.02703859841267
    Total Energy =                       -270.0270385984126733
    Molecular point group: c1
  Basis Set: 6-31G*
  Basis Set:
  Basis Set: 6-31G*
  Basis Set:
  @DF-RHF Final Energy:  -270.02861069047708
    Total Energy =                       -270.0286106904770804
  Basis Set: 6-31G*
  Basis Set:
  Basis Set: 6-31G*
  Basis Set:
  @DF-RHF Final Energy:  -270.02934688771393
    Total Energy =                       -270.0293468877141549
  Basis Set: 6-31G*
  Basis Set:
  Basis Set: 6-31G*
  Basis Set:
  @DF-RHF Final Energy:  -270.02947085193142
    Total Energy =                       -270.0294708519310234
  Basis Set: 6-31G*
  Basis Set:
  @DF-RHF Final Energy:  -270.02958340310602
    Total Energy =                       -270.0295834031062441
  @DF-RHF Final Energy:  -270.02970827352789
    Total Energy =                       -270.0297082735280583
  @DF-RHF Final Energy:  -270.02942876511099
    Total Energy =                       -270.0294287651108789
  Basis Set: 6-31G*
  Basis Set:
  @DF-RHF Final Energy:  -270.02975073702555
    Total Energy =                       -270.0297507370253243
  Basis Set: 6-31G*
  Basis Set:
  Basis Set: 6-31G*
  Basis Set:
  @DF-RHF Final Energy:  -270.02975233789380
    Total Energy =                       -270.0297523378940241
  Basis Set: 6-31G*
  Basis Set:
  Basis Set: 6-31G*
  Basis Set:
  @DF-RHF Final Energy:  -270.02975336187365
    Total Energy =                       -270.0297533618737020
  Basis Set: 6-31G*
  Basis Set:
  Charge       = 0
  Multiplicity = 1
  Basis Set: 6-31G*
  Basis Set:

    Orbital Energies (a.u.)
    -----------------------

    Doubly Occupied:

       1A    -20.548143     2A    -11.325099     3A    -11.235735
       4A    -11.230743     5A    -11.227955     6A    -11.221492
       7A     -1.393580     8A     -1.085741     9A     -1.010161
      10A     -0.951382    11A     -0.833947    12A     -0.734629
      13A     -0.658587    14A     -0.650342    15A     -0.619725
      16A     -0.603927    17A     -0.577614    18A     -0.552743
      19A     -0.536126    20A     -0.520848    21A     -0.505294
      22A     -0.487435    23A     -0.474271    24A     -0.398459

  @DF-RHF Final Energy:  -270.02975340124453

   => Energetics <=

    Nuclear Repulsion Energy =            236.8871758590625234
    One-Electron Energy =                -835.0659010879015796
    Two-Electron Energy =                 328.1489718275944369
    DFT Exchange-Correlation Energy =       0.0000000000000000
    Empirical Dispersion Energy =           0.0000000000000000
    PCM Polarization Energy =               0.0000000000000000
    EFP Energy =                            0.0000000000000000
    Total Energy =                       -270.0297534012446476
    Molecular point group: c1
  Basis Set: 6-31G*
  Basis Set:

  -Total Gradient:
     Atom            X                  Y                   Z
    ------   -----------------  -----------------  -----------------
       1        0.000000494060     0.000000789726     0.000006993677
       2       -0.000307488150    -0.000774234089     0.000476184153
       3        0.000178635797     0.000923287840    -0.000073293517
       4        0.000188410259     0.000378308211    -0.000347611581
       5       -0.000068488260    -0.000517217195    -0.000061086966
       6        0.000003430137    -0.000004187010     0.000001827175
       7        0.000003656509    -0.000000808311    -0.000002439010
       8        0.000001081512    -0.000003435062     0.000001256463
       9       -0.000002253465    -0.000000722806     0.000000194298
      10       -0.000002564363    -0.000000984724     0.000000273219
      11       -0.000000669505    -0.000001269079     0.000000766602
      12       -0.000000084627     0.000000147763     0.000000680401
      13        0.000000183173     0.000001468722    -0.000001321344
      14        0.000002383679     0.000000591330     0.000000591880
      15        0.000001117927    -0.000000996014     0.000000208859
      16        0.000002155317    -0.000000739306    -0.000003224309

  **** Optimization is complete! (in 11 steps) ****
    Final optimized geometry and variables:
    Molecular point group: c1

    Geometry (in Angstrom), charge = 0, multiplicity = 1:

    O           -1.816221069837     0.952562100726     0.650889453007
    C           -1.107899856202     0.143826623172     0.132868333766
    C            0.308815296780    -0.087803035511     0.627864755249
    C           -1.599640852954    -0.688222930600    -1.033999741131
    C            1.385389306553    -0.075566103972    -0.465125832189
    H            0.325072737094    -1.053095871453     1.133334998167
    H            0.511950178235     0.670734630093     1.374222067909
    C            2.790430250069    -0.235566341640     0.113927537014
    H            1.200836883564    -0.872088466258    -1.179903303462
    H            1.328708611043     0.858501421307    -1.018980053505
    H            3.538597710747    -0.225899940941    -0.671985447632
    H            2.887208683701    -1.173481044122     0.653128706732
    H            3.023136850208     0.569155666318     0.804461774326
    H           -1.153640054874    -0.329279714890    -1.956976807158
    H           -2.674475189055    -0.598568126984    -1.108775939918
    H           -1.322205563537    -1.731740350725    -0.923216807151

  Mulliken Charges: (a.u.)
   Center  Symbol    Alpha    Beta     Spin     Total
       1     O     4.26138  4.26138  0.00000 -0.52275
       2     C     2.73208  2.73208  0.00000  0.53584
       3     C     3.20524  3.20524  0.00000 -0.41049
       4     C     3.29126  3.29126  0.00000 -0.58252
       5     C     3.16399  3.16399  0.00000 -0.32798
       6     H     0.41079  0.41079  0.00000  0.17843
       7     H     0.39906  0.39906  0.00000  0.20189
       8     C     3.23972  3.23972  0.00000 -0.47943
       9     H     0.41782  0.41782  0.00000  0.16436
      10     H     0.41472  0.41472  0.00000  0.17057
      11     H     0.41555  0.41555  0.00000  0.16890
      12     H     0.41971  0.41971  0.00000  0.16057
      13     H     0.41682  0.41682  0.00000  0.16636
      14     H     0.40433  0.40433  0.00000  0.19133
      15     H     0.39588  0.39588  0.00000  0.20824
      16     H     0.41166  0.41166  0.00000  0.17668

   Total alpha = 24.00000, Total beta = 24.00000, Total charge = -0.00000
