  ==> Input File <==

--------------------------------------------------------------------------
set {
	reference rhf
	basis cc-pvtz
}

set_num_threads( 4 )
memory 2 gb

molecule MOL {
0 1

H	 -1.910173	 -0.878781	 -0.339344
O	 -2.041679	 -0.058866	 0.103463
C	 -0.959304	 0.780994	 -0.094939
C	 0.354905	 0.037902	 -0.006215
H	 -0.985899	 1.279578	 -1.057596
H	 -0.969809	 1.529522	 0.682889
F	 0.412060	 -0.931028	 -0.902708
F	 1.359641	 0.856111	 -0.239961
F	 0.545380	 -0.506387	 1.171682

	symmetry c1
}
set optking {
	frozen_dihedral = ("
		1 2 3 5
	")
}

ee = optimize('scf')
oeprop('DIPOLE', 'QUADRUPOLE', 'MULLIKEN_CHARGES')
f=open( 'psi4out.xyz', 'w' )
f.write( "9  " )
f.write( str(ee) + "\n" )
f.write( MOL.save_string_xyz() )
f.close()
--------------------------------------------------------------------------

    Molecular point group: c1
  Charge       = 0
  Multiplicity = 1
  Basis Set: CC-PVTZ
  Basis Set:
  @DF-RHF Final Energy:  -450.84601519071384
    Total Energy =                       -450.8460151907138993
    Molecular point group: c1
  Basis Set: CC-PVTZ
  Basis Set:
  Basis Set: CC-PVTZ
  Basis Set:
  @DF-RHF Final Energy:  -450.84609593203180
    Total Energy =                       -450.8460959320318580
  Basis Set: CC-PVTZ
  Basis Set:
  Basis Set: CC-PVTZ
  Basis Set:
  @DF-RHF Final Energy:  -450.84611396783015
    Total Energy =                       -450.8461139678305472
  Basis Set: CC-PVTZ
  Basis Set:
  Charge       = 0
  Multiplicity = 1
  Basis Set: CC-PVTZ
  Basis Set:

    Orbital Energies (a.u.)
    -----------------------

    Doubly Occupied:

       1A    -26.344493     2A    -26.343492     3A    -26.339767
       4A    -20.582410     5A    -11.498625     6A    -11.309745
       7A     -1.752262     8A     -1.649634     9A     -1.646815
      10A     -1.405780    11A     -1.052398    12A     -0.933005
      13A     -0.841838    14A     -0.840491    15A     -0.818976
      16A     -0.728720    17A     -0.723073    18A     -0.697416
      19A     -0.675440    20A     -0.670994    21A     -0.653535
      22A     -0.636745    23A     -0.626705    24A     -0.530725
      25A     -0.483712

  @DF-RHF Final Energy:  -450.84611506676356

   => Energetics <=

    Nuclear Repulsion Energy =            277.9194979869264444
    One-Electron Energy =               -1177.9576314996020301
    Two-Electron Energy =                 449.1920184459118559
    DFT Exchange-Correlation Energy =       0.0000000000000000
    Empirical Dispersion Energy =           0.0000000000000000
    PCM Polarization Energy =               0.0000000000000000
    EFP Energy =                            0.0000000000000000
    Total Energy =                       -450.8461150667637298
    Molecular point group: c1
  Basis Set: CC-PVTZ
  Basis Set:

  -Total Gradient:
     Atom            X                  Y                   Z
    ------   -----------------  -----------------  -----------------
       1        0.001262313008    -0.001093181010     0.002277292409
       2       -0.001958766218     0.001918083209    -0.002480975466
       3        0.001986844159    -0.002726266435    -0.000892346496
       4       -0.000139005528    -0.000075824141     0.000086987119
       5       -0.001228639519     0.001874032235     0.001071738732
       6       -0.000001054282    -0.000006443890     0.000012826628
       7        0.000018184659     0.000051753853     0.000137331999
       8        0.000094417888     0.000092839204    -0.000068927470
       9       -0.000034294165    -0.000034993026    -0.000143927454

  **** Optimization is complete! (in 4 steps) ****
    Final optimized geometry and variables:
    Molecular point group: c1

    Geometry (in Angstrom), charge = 0, multiplicity = 1:

    H           -1.934918796911    -0.871996661687    -0.369803055167
    O           -2.051354297201    -0.058924721796     0.090242176068
    C           -0.961985897266     0.776988115451    -0.095423143932
    C            0.355183810033     0.042816181310    -0.007725285370
    H           -0.996826535033     1.293763132415    -1.048266723899
    H           -0.973820554768     1.519441661455     0.689173633583
    F            0.406129431417    -0.944902857216    -0.885608302107
    F            1.354383015768     0.857541878571    -0.264117866634
    F            0.556997526201    -0.483821435327     1.177568773475

  Mulliken Charges: (a.u.)
   Center  Symbol    Alpha    Beta     Spin     Total
       1     H     0.38660  0.38660  0.00000  0.22680
       2     O     4.19374  4.19374  0.00000 -0.38747
       3     C     2.98003  2.98003  0.00000  0.03995
       4     C     2.68728  2.68728  0.00000  0.62543
       5     H     0.46461  0.46461  0.00000  0.07078
       6     H     0.45224  0.45224  0.00000  0.09551
       7     F     4.61806  4.61806  0.00000 -0.23613
       8     F     4.60959  4.60959  0.00000 -0.21918
       9     F     4.60785  4.60785  0.00000 -0.21570

   Total alpha = 25.00000, Total beta = 25.00000, Total charge =  0.00000
