  ==> Input File <==

--------------------------------------------------------------------------
set {
	reference rhf
	basis 6-31G*
}

set_num_threads( 1 )
memory 2 gb

molecule MOL {
0 1

O	 -0.988096	 -1.408613	 0.050699
C	 -0.676749	 -0.249230	 -0.009274
C	 -1.746085	 0.827156	 -0.009539
N	 0.623947	 0.147590	 -0.102813
H	 -1.701500	 1.431508	 -0.908902
H	 -2.703425	 0.330732	 0.036390
H	 -1.647323	 1.487769	 0.845106
C	 0.992658	 1.077600	 -1.152103
C	 1.727618	 -0.537692	 0.533225
H	 1.728510	 1.777675	 -0.772056
H	 0.119813	 1.617381	 -1.475707
H	 1.422332	 0.559149	 -2.006510
H	 2.495465	 0.184326	 0.784502
H	 1.421478	 -1.019774	 1.447998
H	 2.172048	 -1.286122	 -0.120340

	symmetry c1
}
set optking {
	frozen_dihedral = ("
		2 4 8 10
	")
}

ee = energy('scf')
oeprop('DIPOLE', 'QUADRUPOLE', 'MULLIKEN_CHARGES')
f=open( 'psi4out.xyz', 'w' )
f.write( "15  " )
f.write( str(ee) + "\n" )
f.write( MOL.save_string_xyz() )
f.close()
--------------------------------------------------------------------------

    Molecular point group: c1

    Geometry (in Angstrom), charge = 0, multiplicity = 1:

       Center              X                  Y                   Z               Mass
    ------------   -----------------  -----------------  -----------------  -----------------
           O         -0.986203779423    -1.386475154188     0.170921236247    15.994914619560
           C         -0.674856779423    -0.227092154188     0.110948236247    12.000000000000
           C         -1.744192779423     0.849293845812     0.110683236247    12.000000000000
           N          0.625839220577     0.169727845812     0.017409236247    14.003074004780
           H         -1.699607779423     1.453645845812    -0.788679763753     1.007825032070
           H         -2.701532779423     0.352869845812     0.156612236247     1.007825032070
           H         -1.645430779423     1.509906845812     0.965328236247     1.007825032070
           C          0.994550220577     1.099737845812    -1.031880763753    12.000000000000
           C          1.729510220577    -0.515554154188     0.653447236247    12.000000000000
           H          1.730402220577     1.799812845812    -0.651833763753     1.007825032070
           H          0.121705220577     1.639518845812    -1.355484763753     1.007825032070
           H          1.424224220577     0.581286845812    -1.886287763753     1.007825032070
           H          2.497357220577     0.206463845812     0.904724236247     1.007825032070
           H          1.423370220577    -0.997636154188     1.568220236247     1.007825032070
           H          2.173940220577    -1.263984154188    -0.000117763753     1.007825032070

  Charge       = 0
  Multiplicity = 1
  Basis Set: 6-31G*
  Basis Set:

    Orbital Energies (a.u.)
    -----------------------

    Doubly Occupied:

       1A    -20.526734     2A    -15.570079     3A    -11.343156
       4A    -11.262606     5A    -11.254570     6A    -11.226975
       7A     -1.388412     8A     -1.240749     9A     -1.012832
      10A     -0.970852    11A     -0.920011    12A     -0.738876
      13A     -0.677456    14A     -0.656478    15A     -0.650391
      16A     -0.598561    17A     -0.582801    18A     -0.563957
      19A     -0.558578    20A     -0.555622    21A     -0.531621
      22A     -0.490179    23A     -0.416123    24A     -0.360380

  @DF-RHF Final Energy:  -286.01229610809793

   => Energetics <=

    Nuclear Repulsion Energy =            251.7015948406463508
    One-Electron Energy =                -887.2317224805366322
    Two-Electron Energy =                 349.5178315317921829
    DFT Exchange-Correlation Energy =       0.0000000000000000
    Empirical Dispersion Energy =           0.0000000000000000
    PCM Polarization Energy =               0.0000000000000000
    EFP Energy =                            0.0000000000000000
    Total Energy =                       -286.0122961080980417

  Mulliken Charges: (a.u.)
   Center  Symbol    Alpha    Beta     Spin     Total
       1     O     4.28016  4.28016  0.00000 -0.56033
       2     C     2.64927  2.64927  0.00000  0.70146
       3     C     3.28764  3.28764  0.00000 -0.57527
       4     N     3.81855  3.81855  0.00000 -0.63709
       5     H     0.41027  0.41027  0.00000  0.17945
       6     H     0.39416  0.39416  0.00000  0.21168
       7     H     0.40433  0.40433  0.00000  0.19134
       8     C     3.14112  3.14112  0.00000 -0.28225
       9     C     3.13340  3.13340  0.00000 -0.26681
      10     H     0.41554  0.41554  0.00000  0.16893
      11     H     0.41307  0.41307  0.00000  0.17386
      12     H     0.41436  0.41436  0.00000  0.17128
      13     H     0.41790  0.41790  0.00000  0.16421
      14     H     0.40328  0.40328  0.00000  0.19343
      15     H     0.41694  0.41694  0.00000  0.16612

   Total alpha = 24.00000, Total beta = 24.00000, Total charge = -0.00000
