                              Psi4 1.0.54 Driver

  ==> Input File <==

--------------------------------------------------------------------------
set {
	reference rhf
	basis cc-pvtz
}

set_num_threads( 4 )
memory 2 gb

molecule MOL {
0 1

O	 1.603342	 1.105975	 -1.867285
C	 0.674431	 1.047616	 -1.113338
C	 -0.481037	 2.016376	 -1.259048
N	 0.622280	 0.144970	 -0.099307
H	 -0.615977	 2.607311	 -0.361868
H	 -0.251907	 2.669311	 -2.084681
H	 -1.408926	 1.496078	 -1.462233
C	 1.664396	 -0.854993	 0.000772
C	 -0.557404	 -0.111857	 0.691983
H	 2.462727	 -0.615153	 -0.690869
H	 1.261798	 -1.821849	 -0.240651
H	 2.081615	 -0.891605	 1.003877
H	 -0.259705	 -0.384750	 1.696244
H	 -1.186021	 0.759055	 0.764419
H	 -1.148331	 -0.929877	 0.286159

	symmetry c1
}
set optking {
	frozen_dihedral = ("
		2 4 8 10
	")
}

ee,wfn = optimize('scf', return_wfn=True)
oeprop( wfn, 'DIPOLE', 'QUADRUPOLE', 'MULLIKEN_CHARGES')
f=open( 'psi4out.xyz', 'w' )
f.write( "15  " )
f.write( str(ee) + "\n" )
f.write( MOL.save_string_xyz() )
f.close()
--------------------------------------------------------------------------

    Molecular point group: c1
  Charge       = 0
  Multiplicity = 1
  Basis Set: CC-PVTZ
  Basis Set:
  @DF-RHF Final Energy:  -286.13522132218588
    Total Energy =                       -286.1352213221857710
    Molecular point group: c1
  Basis Set: CC-PVTZ
  Basis Set:
  Basis Set: CC-PVTZ
  Basis Set:
  @DF-RHF Final Energy:  -286.13553805373755
    Total Energy =                       -286.1355380537374913
  Basis Set: CC-PVTZ
  Basis Set:
  Basis Set: CC-PVTZ
  Basis Set:
  @DF-RHF Final Energy:  -286.13557418409982
    Total Energy =                       -286.1355741840998235
  Basis Set: CC-PVTZ
  Basis Set:
  Basis Set: CC-PVTZ
  Basis Set:
  @DF-RHF Final Energy:  -286.13552474080194
    Total Energy =                       -286.1355247408019977
  Basis Set: CC-PVTZ
  Basis Set:
  @DF-RHF Final Energy:  -286.13560522045276
    Total Energy =                       -286.1356052204524190
  @DF-RHF Final Energy:  -286.13560915761843
    Total Energy =                       -286.1356091576184895
  @DF-RHF Final Energy:  -286.13561207496332
    Total Energy =                       -286.1356120749632055
  Basis Set: CC-PVTZ
  Basis Set:
  @DF-RHF Final Energy:  -286.13561403216818
    Total Energy =                       -286.1356140321684052
  Basis Set: CC-PVTZ
  Basis Set:
  Basis Set: CC-PVTZ
  Basis Set:
  @DF-RHF Final Energy:  -286.13561629885874
    Total Energy =                       -286.1356162988587357
  Basis Set: CC-PVTZ
  Basis Set:
  Basis Set: CC-PVTZ
  Basis Set:
  @DF-RHF Final Energy:  -286.13561743856417
    Total Energy =                       -286.1356174385640543
  Basis Set: CC-PVTZ
  Basis Set:
  Charge       = 0
  Multiplicity = 1
  Basis Set: CC-PVTZ
  Basis Set:

    Orbital Energies (a.u.)
    -----------------------

    Doubly Occupied:

       1A    -20.502567     2A    -15.578809     3A    -11.335341
       4A    -11.264111     5A    -11.246425     6A    -11.226431
       7A     -1.386630     8A     -1.246624     9A     -1.015099
      10A     -0.973428    11A     -0.921515    12A     -0.739400
      13A     -0.683390    14A     -0.662189    15A     -0.653864
      16A     -0.590709    17A     -0.577943    18A     -0.566862
      19A     -0.561434    20A     -0.548752    21A     -0.530500
      22A     -0.507705    23A     -0.413009    24A     -0.369858

  @DF-RHF Final Energy:  -286.13561760499783

   => Energetics <=

    Nuclear Repulsion Energy =            252.8135944942950744
    One-Electron Energy =                -889.6932391069869936
    Two-Electron Energy =                 350.7440270076939441
    DFT Exchange-Correlation Energy =       0.0000000000000000
    Empirical Dispersion Energy =           0.0000000000000000
    PCM Polarization Energy =               0.0000000000000000
    EFP Energy =                            0.0000000000000000
    Total Energy =                       -286.1356176049979467
    Molecular point group: c1
  Basis Set: CC-PVTZ
  Basis Set:

  -Total Gradient:
     Atom            X                  Y                   Z
    ------   -----------------  -----------------  -----------------
       1       -0.000010212348     0.000004044159     0.000006758352
       2        0.000069313918     0.000074849749     0.000048503459
       3       -0.000011221760    -0.000012309882    -0.000014695558
       4       -0.000104557598    -0.000111386587    -0.000113839021
       5        0.000005995659     0.000002489784     0.000005372267
       6        0.000001749886     0.000003065055     0.000000005067
       7        0.000003781203     0.000003941502     0.000002751690
       8        0.000114692005     0.000126863215     0.000149193789
       9        0.000007791621     0.000000476214    -0.000006178042
      10       -0.000061489442    -0.000068804855    -0.000088375995
      11       -0.000011013745    -0.000009251865    -0.000001328608
      12       -0.000001016442    -0.000005453361     0.000000139519
      13       -0.000003591130    -0.000002235099     0.000007738681
      14        0.000000078548    -0.000003099414     0.000003470377
      15       -0.000000300374    -0.000003188610     0.000000484023

  **** Optimization is complete! (in 11 steps) ****
    Final optimized geometry and variables:
    Molecular point group: c1

    Geometry (in Angstrom), charge = 0, multiplicity = 1:

    O            1.013517049986     0.589143816259    -1.259626111810
    C            0.083173826505     0.504447554130    -0.509328778906
    C           -1.074835017778     1.473985721846    -0.631797582197
    N            0.027817729673    -0.431730695847     0.471445641150
    H           -1.194872929169     2.059769412898     0.271009384117
    H           -0.855811324220     2.132891207057    -1.455376200911
    H           -2.006540337067     0.957169658302    -0.825012643910
    C            1.079704287895    -1.420170268230     0.573230988258
    C           -1.114495044340    -0.665237951211     1.320881471526
    H            1.888250847775    -1.154645939913    -0.082691401031
    H            0.711015806079    -2.404538056205     0.298348313702
    H            1.445005322564    -1.468356301335     1.592986420310
    H           -0.778117602511    -0.859409785148     2.332306227757
    H           -1.770661242622     0.186826102263     1.353144941145
    H           -1.688241401512    -1.527496358118     0.990358092584

  Mulliken Charges: (a.u.)
   Center  Symbol    Alpha    Beta     Spin     Total
       1     O     4.22208  4.22208  0.00000 -0.44416
       2     C     2.84649  2.84649  0.00000  0.30701
       3     C     3.16045  3.16045  0.00000 -0.32089
       4     N     3.55923  3.55923  0.00000 -0.11845
       5     H     0.44932  0.44932  0.00000  0.10136
       6     H     0.42851  0.42851  0.00000  0.14298
       7     H     0.44948  0.44948  0.00000  0.10104
       8     C     3.10050  3.10050  0.00000 -0.20099
       9     C     3.09486  3.09486  0.00000 -0.18973
      10     H     0.42512  0.42512  0.00000  0.14976
      11     H     0.45801  0.45801  0.00000  0.08397
      12     H     0.45636  0.45636  0.00000  0.08727
      13     H     0.45063  0.45063  0.00000  0.09874
      14     H     0.44495  0.44495  0.00000  0.11010
      15     H     0.45400  0.45400  0.00000  0.09200

   Total alpha = 24.00000, Total beta = 24.00000, Total charge = -0.00000

*** Psi4 exiting successfully. Buy a developer a beer!
