  ==> Input File <==

--------------------------------------------------------------------------
set {
	reference rhf
	basis 6-31G*
}

set_num_threads( 4 )
memory 2 gb

molecule MOL {
0 1

H	 0.821610	 0.566793	 2.259340
C	 -0.134458	 0.623739	 1.757348
O	 0.000000	 0.000000	 0.521119
H	 -0.885419	 0.131078	 2.373003
H	 -0.412824	 1.670713	 1.647582
C	 -1.165642	 0.000000	 -0.238270
H	 -1.228672	 0.883184	 -0.872070
H	 -2.003012	 0.000000	 0.445920
H	 -1.228672	 -0.883184	 -0.872070

	symmetry c1
}
set optking {
	frozen_dihedral = ("
		2 3 6 7
	")
}

ee = optimize('scf')
oeprop('DIPOLE', 'QUADRUPOLE', 'MULLIKEN_CHARGES')
f=open( 'psi4out.xyz', 'w' )
f.write( "9  " )
f.write( str(ee) + "\n" )
f.write( MOL.save_string_xyz() )
f.close()
--------------------------------------------------------------------------

    Molecular point group: c1
  Charge       = 0
  Multiplicity = 1
  Basis Set: 6-31G*
  Basis Set:
  @DF-RHF Final Energy:  -154.06132286676467
    Total Energy =                       -154.0613228667646695
    Molecular point group: c1
  Basis Set: 6-31G*
  Basis Set:
  Basis Set: 6-31G*
  Basis Set:
  @DF-RHF Final Energy:  -154.06237678189788
    Total Energy =                       -154.0623767818977967
  Basis Set: 6-31G*
  Basis Set:
  Basis Set: 6-31G*
  Basis Set:
  @DF-RHF Final Energy:  -154.06267365164885
    Total Energy =                       -154.0626736516488222
  Basis Set: 6-31G*
  Basis Set:
  Charge       = 0
  Multiplicity = 1
  Basis Set: 6-31G*
  Basis Set:

    Orbital Energies (a.u.)
    -----------------------

    Doubly Occupied:

       1A    -20.554417     2A    -11.265433     3A    -11.264814
       4A     -1.376821     5A     -0.975056     6A     -0.872687
       7A     -0.659798     8A     -0.653064     9A     -0.643987
      10A     -0.555614    11A     -0.528494    12A     -0.473929
      13A     -0.414506

  @DF-RHF Final Energy:  -154.06267549203366

   => Energetics <=

    Nuclear Repulsion Energy =             84.6159365637322765
    One-Electron Energy =                -376.8799837475007735
    Two-Electron Energy =                 138.2013716917347494
    DFT Exchange-Correlation Energy =       0.0000000000000000
    Empirical Dispersion Energy =           0.0000000000000000
    PCM Polarization Energy =               0.0000000000000000
    EFP Energy =                            0.0000000000000000
    Total Energy =                       -154.0626754920337760
    Molecular point group: c1
  Basis Set: 6-31G*
  Basis Set:

  -Total Gradient:
     Atom            X                  Y                   Z
    ------   -----------------  -----------------  -----------------
       1        0.000008420922    -0.000027243741    -0.000041014468
       2       -0.000793804862    -0.002154882530     0.001050261076
       3        0.001409215276     0.002748451433    -0.002330541795
       4       -0.000007300498    -0.000025974440    -0.000025180262
       5        0.000010207564    -0.000007059990     0.000014059323
       6       -0.002252695236     0.001072440804     0.003604582053
       7        0.001635270300    -0.001612384059    -0.002278866391
       8       -0.000048371391     0.000007372795     0.000017812229
       9        0.000039057925    -0.000000720272    -0.000011111764

  **** Optimization is complete! (in 4 steps) ****
    Final optimized geometry and variables:
    Molecular point group: c1

    Geometry (in Angstrom), charge = 0, multiplicity = 1:

    H            1.294648038696     0.335002284027     1.559730928358
    C            0.332623089612     0.413848845609     1.072161150633
    O            0.436869597938    -0.218002341174    -0.163505756114
    H           -0.419613904308    -0.061548305308     1.698672185379
    H            0.078916921297     1.467661650448     0.968117169867
    C           -0.732859565228    -0.212810662158    -0.921996536238
    H           -0.781536872559     0.666562212802    -1.560241275078
    H           -1.622753072935    -0.254134682579    -0.299165087785
    H           -0.717551509801    -1.087415013786    -1.560143255962

  Mulliken Charges: (a.u.)
   Center  Symbol    Alpha    Beta     Spin     Total
       1     H     0.41231  0.41231  0.00000  0.17538
       2     C     3.07965  3.07965  0.00000 -0.15929
       3     O     4.29754  4.29754  0.00000 -0.59507
       4     H     0.42972  0.42972  0.00000  0.14057
       5     H     0.43050  0.43050  0.00000  0.13900
       6     C     3.07888  3.07888  0.00000 -0.15776
       7     H     0.42625  0.42625  0.00000  0.14750
       8     H     0.43081  0.43081  0.00000  0.13839
       9     H     0.41436  0.41436  0.00000  0.17129

   Total alpha = 13.00000, Total beta = 13.00000, Total charge = -0.00000
