                              Psi4 1.0.54 Driver

  ==> Input File <==

--------------------------------------------------------------------------
set {
	reference rhf
	basis cc-pvtz
}

set_num_threads( 4 )
memory 2 gb

molecule MOL {
0 1

H	 -5.193845	 -3.368381	 -2.388194
O	 -5.581018	 -4.069920	 -1.898531
C	 -4.582258	 -4.899493	 -1.366027
C	 -3.822428	 -4.267970	 -0.209082
H	 -5.090496	 -5.790133	 -1.021884
H	 -3.887821	 -5.205962	 -2.145952
C	 -2.992311	 -3.046185	 -0.596377
H	 -4.534476	 -3.996190	 0.564405
H	 -3.169312	 -5.026665	 0.215440
C	 -2.218193	 -2.459455	 0.583167
H	 -3.645082	 -2.286788	 -1.013761
H	 -2.290550	 -3.321820	 -1.381770
C	 -1.311023	 -1.277304	 0.237018
H	 -2.920525	 -2.158307	 1.356644
H	 -1.607117	 -3.244676	 1.019610
C	 -2.041121	 -0.006551	 -0.194127
H	 -0.703162	 -1.047707	 1.107832
H	 -0.616143	 -1.575594	 -0.544851
C	 -3.489218	 0.042606	 0.286507
H	 -2.022185	 0.066287	 -1.279394
H	 -1.518764	 0.869305	 0.178730
C	 -4.219984	 1.311773	 -0.139038
H	 -4.022855	 -0.824300	 -0.093339
H	 -3.510372	 -0.038577	 1.370031
H	 -4.244251	 1.405725	 -1.219696
H	 -5.244345	 1.313233	 0.215630
H	 -3.732090	 2.196311	 0.257073

	symmetry c1
}
set optking {
	frozen_dihedral = ("
		10 13 16 20
	")
}

ee,wfn = optimize('scf', return_wfn=True)
oeprop( wfn, 'DIPOLE', 'QUADRUPOLE', 'MULLIKEN_CHARGES')
f=open( 'psi4out.xyz', 'w' )
f.write( "27  " )
f.write( str(ee) + "\n" )
f.write( MOL.save_string_xyz() )
f.close()
--------------------------------------------------------------------------

    Molecular point group: c1
  Charge       = 0
  Multiplicity = 1
  Basis Set: CC-PVTZ
  Basis Set:
  @DF-RHF Final Energy:  -388.41394537853029
    Total Energy =                       -388.4139453785307978
    Molecular point group: c1
  Basis Set: CC-PVTZ
  Basis Set:
  Basis Set: CC-PVTZ
  Basis Set:
  @DF-RHF Final Energy:  -388.41921211848387
    Total Energy =                       -388.4192121184839834
  Basis Set: CC-PVTZ
  Basis Set:
  Basis Set: CC-PVTZ
  Basis Set:
  @DF-RHF Final Energy:  -388.42008349892922
    Total Energy =                       -388.4200834989289888
  Basis Set: CC-PVTZ
  Basis Set:
  Basis Set: CC-PVTZ
  Basis Set:
  @DF-RHF Final Energy:  -388.42048343450784
    Total Energy =                       -388.4204834345084691
  Basis Set: CC-PVTZ
  Basis Set:
  Basis Set: CC-PVTZ
  Basis Set:
  @DF-RHF Final Energy:  -388.42050828904394
    Total Energy =                       -388.4205082890438234
  Basis Set: CC-PVTZ
  Basis Set:
  Basis Set: CC-PVTZ
  Basis Set:
  @DF-RHF Final Energy:  -388.42051737012724
    Total Energy =                       -388.4205173701270724
  Basis Set: CC-PVTZ
  Basis Set:
  Basis Set: CC-PVTZ
  Basis Set:
  @DF-RHF Final Energy:  -388.42051854981560
    Total Energy =                       -388.4205185498158244
  Basis Set: CC-PVTZ
  Basis Set:
  Charge       = 0
  Multiplicity = 1
  Basis Set: CC-PVTZ
  Basis Set:

    Orbital Energies (a.u.)
    -----------------------

    Doubly Occupied:

       1A    -20.545420     2A    -11.264977     3A    -11.216217
       4A    -11.214136     5A    -11.213916     6A    -11.213311
       7A    -11.213102     8A    -11.212421     9A    -11.207027
      10A     -1.363316    11A     -1.094740    12A     -1.060068
      13A     -1.010888    14A     -0.950080    15A     -0.888007
      16A     -0.834663    17A     -0.800822    18A     -0.763332
      19A     -0.696531    20A     -0.648640    21A     -0.642188
      22A     -0.615533    23A     -0.601754    24A     -0.585105
      25A     -0.575368    26A     -0.571376    27A     -0.532145
      28A     -0.518989    29A     -0.511490    30A     -0.497950
      31A     -0.487390    32A     -0.481095    33A     -0.469524
      34A     -0.450548    35A     -0.448066    36A     -0.444948
      37A     -0.423495

  @DF-RHF Final Energy:  -388.42051900516282

   => Energetics <=

    Nuclear Repulsion Energy =            471.3720068602243032
    One-Electron Energy =               -1461.0478986134326078
    Two-Electron Energy =                 601.2553727480458292
    DFT Exchange-Correlation Energy =       0.0000000000000000
    Empirical Dispersion Energy =           0.0000000000000000
    PCM Polarization Energy =               0.0000000000000000
    EFP Energy =                            0.0000000000000000
    Total Energy =                       -388.4205190051625323
    Molecular point group: c1
  Basis Set: CC-PVTZ
  Basis Set:

  -Total Gradient:
     Atom            X                  Y                   Z
    ------   -----------------  -----------------  -----------------
       1        0.000038447733     0.000001067061    -0.000006581150
       2       -0.000000209135    -0.000081477489     0.000061864717
       3       -0.000031614224     0.000034255469    -0.000019466179
       4        0.000032337536     0.000034713605    -0.000016615004
       5       -0.000051973288    -0.000009142928    -0.000025164470
       6        0.000012193241     0.000003962098    -0.000028915362
       7       -0.000019428829     0.000049853028     0.000035211863
       8       -0.000021880409     0.000005206993     0.000009375175
       9        0.000011019549    -0.000019724814     0.000008795890
      10        0.000066930971     0.001625541635     0.005331096374
      11        0.000003116976    -0.000013321006    -0.000009185928
      12        0.000009019468    -0.000007080053    -0.000005163702
      13        0.001466234635    -0.001472203034    -0.007776758315
      14       -0.000012690953     0.000009533284     0.000001460990
      15        0.000008623793    -0.000010543210     0.000012890825
      16       -0.007913606697    -0.003912165903     0.002292667111
      17       -0.000000595685     0.000003083302     0.000007253107
      18        0.000003693928     0.000000613388    -0.000001960501
      19        0.000011305044    -0.000034224551    -0.000043572208
      20        0.006387989072     0.003755537434     0.000143475876
      21       -0.000002883168     0.000022448602     0.000004125012
      22        0.000012239858    -0.000007195903    -0.000003480750
      23       -0.000010740469    -0.000006691776     0.000004561232
      24        0.000007215807    -0.000008760813     0.000016499116
      25       -0.000003326335     0.000003323171    -0.000014768430
      26       -0.000018400721     0.000000535094     0.000016201066
      27        0.000016982303     0.000032857314     0.000006153645

  **** Optimization is complete! (in 8 steps) ****
    Final optimized geometry and variables:
    Molecular point group: c1

    Geometry (in Angstrom), charge = 0, multiplicity = 1:

    H           -1.614704398698    -1.531153729382    -2.151333708690
    O           -2.042906157950    -2.187661504378    -1.634315333070
    C           -1.092933905583    -2.970834033132    -0.961004918107
    C           -0.420982647758    -2.246286475600     0.195748327068
    H           -1.631146647067    -3.831138535574    -0.586490037135
    H           -0.342226724710    -3.338599896537    -1.657822470340
    C            0.431808442434    -1.050983755509    -0.222414500709
    H           -1.188177747353    -1.922129203762     0.892561415988
    H            0.201566527108    -2.964753833420     0.723909165505
    C            1.148734173011    -0.386860032887     0.953148212542
    H           -0.191490726584    -0.319698227466    -0.727303604396
    H            1.175200199199    -1.375349170302    -0.948344915756
    C            1.989025712315     0.835515126613     0.573410387302
    H            0.427123746008    -0.119355040220     1.716876954091
    H            1.808475448263    -1.120038779107     1.408578360925
    C            1.239106985292     2.130377077337     0.186677620647
    H            2.616839381003     1.061299206880     1.430193477188
    H            2.670641907170     0.568929159459    -0.228063993424
    C           -0.140617225812     2.356447591248     0.797845596155
    H            1.203710157295     2.232744155985    -0.894631070775
    H            1.869662578728     2.960730311597     0.495550415726
    C           -0.723854016851     3.714546393604     0.419328211251
    H           -0.829608847329     1.578939861769     0.488645724046
    H           -0.070925366017     2.288805729957     1.879967236324
    H           -0.833980469933     3.806765102113    -0.656167005862
    H           -1.701437039727     3.858719076468     0.864833760312
    H           -0.084135867847     4.523923530744     0.754950935628

  Mulliken Charges: (a.u.)
   Center  Symbol    Alpha    Beta     Spin     Total
       1     H     0.39213  0.39213  0.00000  0.21574
       2     O     4.20583  4.20583  0.00000 -0.41166
       3     C     2.97983  2.97983  0.00000  0.04034
       4     C     3.08927  3.08927  0.00000 -0.17853
       5     H     0.44861  0.44861  0.00000  0.10278
       6     H     0.46935  0.46935  0.00000  0.06130
       7     C     3.10377  3.10377  0.00000 -0.20754
       8     H     0.45068  0.45068  0.00000  0.09864
       9     H     0.45533  0.45533  0.00000  0.08933
      10     C     3.10987  3.10987  0.00000 -0.21973
      11     H     0.45616  0.45616  0.00000  0.08768
      12     H     0.45064  0.45064  0.00000  0.09871
      13     C     3.10297  3.10297  0.00000 -0.20594
      14     H     0.44747  0.44747  0.00000  0.10506
      15     H     0.44246  0.44246  0.00000  0.11508
      16     C     3.10175  3.10175  0.00000 -0.20350
      17     H     0.44703  0.44703  0.00000  0.10594
      18     H     0.44907  0.44907  0.00000  0.10187
      19     C     3.08874  3.08874  0.00000 -0.17747
      20     H     0.45013  0.45013  0.00000  0.09975
      21     H     0.44908  0.44908  0.00000  0.10185
      22     C     3.15163  3.15163  0.00000 -0.30325
      23     H     0.44912  0.44912  0.00000  0.10175
      24     H     0.45207  0.45207  0.00000  0.09587
      25     H     0.45534  0.45534  0.00000  0.08932
      26     H     0.44748  0.44748  0.00000  0.10503
      27     H     0.45420  0.45420  0.00000  0.09160

   Total alpha = 37.00000, Total beta = 37.00000, Total charge = -0.00000

*** Psi4 exiting successfully. Buy a developer a beer!
