  ==> Input File <==

--------------------------------------------------------------------------
set {
	reference rhf
	basis 6-31G*
}

set_num_threads( 4 )
memory 2 gb

molecule MOL {
0 1

O	 3.225979	 0.970355	 -0.599647
C	 2.701189	 0.057885	 -0.047330
C	 1.245376	 -0.013843	 0.345420
O	 3.347903	 -1.046386	 0.304773
C	 0.455112	 1.231400	 -0.050772
H	 0.838542	 -0.913825	 -0.103701
H	 1.208210	 -0.175333	 1.419774
C	 -0.998893	 1.219485	 0.433193
H	 0.482531	 1.345121	 -1.130325
H	 0.957290	 2.103070	 0.354729
C	 -1.883438	 0.145884	 -0.207175
H	 -1.431207	 2.195402	 0.224832
H	 -1.019646	 1.105716	 1.516076
C	 -1.496546	 -1.273073	 0.214577
H	 -2.922138	 0.330506	 0.062707
H	 -1.832395	 0.216067	 -1.291353
C	 -2.370426	 -2.354520	 -0.423338
H	 -1.558009	 -1.355605	 1.298388
H	 -0.454819	 -1.454578	 -0.045347
C	 -1.979983	 -3.768362	 0.005969
H	 -3.411854	 -2.174079	 -0.165438
H	 -2.306879	 -2.276410	 -1.506685
H	 -2.617037	 -4.512193	 -0.462524
H	 -2.066712	 -3.889297	 1.082096
H	 -0.953034	 -3.992089	 -0.268978
C	 4.728119	 -1.109107	 -0.004993
H	 4.882018	 -1.033965	 -1.071845
H	 5.068212	 -2.067527	 0.355250
H	 5.265056	 -0.311663	 0.488280

	symmetry c1
}
set optking {
	frozen_dihedral = ("
		15 11 8 5
	")
}

ee = optimize('scf')
oeprop('DIPOLE', 'QUADRUPOLE', 'MULLIKEN_CHARGES')
f=open( 'psi4out.xyz', 'w' )
f.write( "29  " )
f.write( str(ee) + "\n" )
f.write( MOL.save_string_xyz() )
f.close()
--------------------------------------------------------------------------

    Molecular point group: c1
  Charge       = 0
  Multiplicity = 1
  Basis Set: 6-31G*
  Basis Set:
  @DF-RHF Final Energy:  -501.02405457645671
    Total Energy =                       -501.0240545764570470
    Molecular point group: c1
  Basis Set: 6-31G*
  Basis Set:
  Basis Set: 6-31G*
  Basis Set:
  @DF-RHF Final Energy:  -501.03585111637040
    Total Energy =                       -501.0358511163699404
  Basis Set: 6-31G*
  Basis Set:
  Basis Set: 6-31G*
  Basis Set:
  @DF-RHF Final Energy:  -501.03819572594500
    Total Energy =                       -501.0381957259453429
  Basis Set: 6-31G*
  Basis Set:
  Basis Set: 6-31G*
  Basis Set:
  @DF-RHF Final Energy:  -501.03726235111321
    Total Energy =                       -501.0372623511134407
  Basis Set: 6-31G*
  Basis Set:
  @DF-RHF Final Energy:  -501.03908034828476
    Total Energy =                       -501.0390803482850970
  @DF-RHF Final Energy:  -501.03938890045049
    Total Energy =                       -501.0393889004499215
  @DF-RHF Final Energy:  -501.03946585509095
    Total Energy =                       -501.0394658550912936
  @DF-RHF Final Energy:  -501.03954600965506
    Total Energy =                       -501.0395460096555098
  @DF-RHF Final Energy:  -501.03956169355899
    Total Energy =                       -501.0395616935593353
  Basis Set: 6-31G*
  Basis Set:
  @DF-RHF Final Energy:  -501.03956550143482
    Total Energy =                       -501.0395655014349359
  Basis Set: 6-31G*
  Basis Set:
  Basis Set: 6-31G*
  Basis Set:
  @DF-RHF Final Energy:  -501.03956753098601
    Total Energy =                       -501.0395675309866874
  Basis Set: 6-31G*
  Basis Set:
  Basis Set: 6-31G*
  Basis Set:
  @DF-RHF Final Energy:  -501.03956895462193
    Total Energy =                       -501.0395689546221547
  Basis Set: 6-31G*
  Basis Set:
  Charge       = 0
  Multiplicity = 1
  Basis Set: 6-31G*
  Basis Set:

    Orbital Energies (a.u.)
    -----------------------

    Doubly Occupied:

       1A    -20.603141     2A    -20.544978     3A    -11.371561
       4A    -11.280513     5A    -11.234057     6A    -11.218983
       7A    -11.217875     8A    -11.216463     9A    -11.215914
      10A    -11.215355    11A    -11.209671    12A     -1.468792
      13A     -1.362224    14A     -1.096786    15A     -1.065382
      16A     -1.019532    17A     -0.976202    18A     -0.930621
      19A     -0.862592    20A     -0.806440    21A     -0.781716
      22A     -0.765575    23A     -0.697940    24A     -0.682479
      25A     -0.671800    26A     -0.649523    27A     -0.628120
      28A     -0.605685    29A     -0.593985    30A     -0.579833
      31A     -0.564940    32A     -0.557705    33A     -0.535085
      34A     -0.527004    35A     -0.520930    36A     -0.503321
      37A     -0.492128    38A     -0.483263    39A     -0.473729
      40A     -0.461316    41A     -0.457304    42A     -0.456119
      43A     -0.437578    44A     -0.434279

  @DF-RHF Final Energy:  -501.03956920981159

   => Energetics <=

    Nuclear Repulsion Energy =            625.4724780902326984
    One-Electron Energy =               -1922.0672181765276036
    Two-Electron Energy =                 795.5551708764829755
    DFT Exchange-Correlation Energy =       0.0000000000000000
    Empirical Dispersion Energy =           0.0000000000000000
    PCM Polarization Energy =               0.0000000000000000
    EFP Energy =                            0.0000000000000000
    Total Energy =                       -501.0395692098119298
    Molecular point group: c1
  Basis Set: 6-31G*
  Basis Set:

  -Total Gradient:
     Atom            X                  Y                   Z
    ------   -----------------  -----------------  -----------------
       1        0.000026222727    -0.000007376536     0.000004139771
       2       -0.000026154817     0.000001964237     0.000019896373
       3       -0.000011107375    -0.000015934360    -0.000048018502
       4        0.000030419865     0.000004095626    -0.000019960194
       5       -0.000151703962     0.000506502724    -0.000401875618
       6       -0.000005203912    -0.000005953394     0.000016008671
       7        0.000006158213     0.000011869248     0.000002849653
       8        0.000219063812    -0.000565138765     0.000440195485
       9       -0.000011468550     0.000005564068     0.000015156421
      10       -0.000006345876     0.000002478721    -0.000002985106
      11        0.000079650586    -0.000517686452     0.000701653350
      12       -0.000013014923     0.000003895541     0.000001587967
      13        0.000007018356    -0.000009956015    -0.000027922683
      14       -0.000024972482    -0.000012625401     0.000017215475
      15       -0.000159145551     0.000599665392    -0.000707585663
      16        0.000012223012     0.000010600261     0.000006746277
      17        0.000009992721     0.000000430888    -0.000005648874
      18       -0.000003002372    -0.000000567373     0.000006953520
      19        0.000006247281    -0.000008496805    -0.000010188525
      20        0.000003600293    -0.000000510703    -0.000000951132
      21        0.000003549382     0.000004007158     0.000000507332
      22       -0.000002877760    -0.000000533268    -0.000007666196
      23       -0.000001742737     0.000003969637     0.000003951125
      24        0.000002972786     0.000003234001    -0.000000936129
      25        0.000001121528    -0.000006201002    -0.000003717558
      26        0.000002751899    -0.000009783797     0.000002883690
      27        0.000001689859     0.000000090896    -0.000000578185
      28        0.000006205093     0.000000864311    -0.000002474533
      29       -0.000002147099     0.000001531159     0.000000763792

  **** Optimization is complete! (in 13 steps) ****
    Final optimized geometry and variables:
    Molecular point group: c1

    Geometry (in Angstrom), charge = 0, multiplicity = 1:

    O            2.501909330099     1.327344543086    -0.985567166862
    C            2.177175735006     0.679909977395    -0.042834144280
    C            0.801992509290     0.659813639645     0.579551038020
    O            3.007714778368    -0.130582895030     0.601454361949
    C           -0.190867488983     1.580804590398    -0.128974085132
    H            0.470050778395    -0.372024885757     0.594294817895
    H            0.916951342117     0.946102111389     1.621567171735
    C           -1.599871651811     1.587344117286     0.494217399635
    H           -0.249476565035     1.312088683654    -1.178938524097
    H            0.215719295982     2.585770414177    -0.105780795558
    C           -2.611023298594     0.606722188738    -0.116017583840
    H           -2.013661800786     2.585108023538     0.377598528194
    H           -1.532418998161     1.419444644748     1.567820331362
    C           -2.329603308391    -0.880857246875     0.108042824757
    H           -3.592560793100     0.842181454750     0.290664290727
    H           -2.680403132829     0.797399403708    -1.185639543850
    C           -3.461008520968    -1.780156366316    -0.395111828660
    H           -2.170495070827    -1.066096036756     1.169508566279
    H           -1.409224638249    -1.165057365628    -0.396378369953
    C           -3.177458388456    -3.268145940839    -0.192530401526
    H           -4.384140701206    -1.515846417730     0.116075498341
    H           -3.631423396211    -1.585960136178    -1.451936726899
    H           -3.999065090606    -3.878120990606    -0.555043235878
    H           -3.032390684339    -3.500154036481     0.858887278908
    H           -2.280318223288    -3.572796136660    -0.724163318977
    C            4.336967750100    -0.204172452890     0.119317117098
    H            4.352027380205    -0.557247069964    -0.901785213467
    H            4.846605061950    -0.903098707524     0.764121411833
    H            4.812821466018     0.764764032412     0.167012092118

  Mulliken Charges: (a.u.)
   Center  Symbol    Alpha    Beta     Spin     Total
       1     O     4.28616  4.28616  0.00000 -0.57233
       2     C     2.60602  2.60602  0.00000  0.78795
       3     C     3.20993  3.20993  0.00000 -0.41986
       4     O     4.30741  4.30741  0.00000 -0.61482
       5     C     3.15612  3.15612  0.00000 -0.31224
       6     H     0.39742  0.39742  0.00000  0.20516
       7     H     0.40093  0.40093  0.00000  0.19813
       8     C     3.15936  3.15936  0.00000 -0.31873
       9     H     0.41056  0.41056  0.00000  0.17888
      10     H     0.40970  0.40970  0.00000  0.18059
      11     C     3.15223  3.15223  0.00000 -0.30446
      12     H     0.41682  0.41682  0.00000  0.16635
      13     H     0.42355  0.42355  0.00000  0.15290
      14     C     3.15393  3.15393  0.00000 -0.30786
      15     H     0.42192  0.42192  0.00000  0.15617
      16     H     0.42209  0.42209  0.00000  0.15581
      17     C     3.15117  3.15117  0.00000 -0.30235
      18     H     0.42474  0.42474  0.00000  0.15052
      19     H     0.42382  0.42382  0.00000  0.15235
      20     C     3.23940  3.23940  0.00000 -0.47881
      21     H     0.42261  0.42261  0.00000  0.15479
      22     H     0.42221  0.42221  0.00000  0.15557
      23     H     0.41889  0.41889  0.00000  0.16223
      24     H     0.42189  0.42189  0.00000  0.15622
      25     H     0.42187  0.42187  0.00000  0.15626
      26     C     3.09233  3.09233  0.00000 -0.18466
      27     H     0.40919  0.40919  0.00000  0.18162
      28     H     0.40854  0.40854  0.00000  0.18293
      29     H     0.40916  0.40916  0.00000  0.18168

   Total alpha = 44.00000, Total beta = 44.00000, Total charge =  0.00000
