  ==> Input File <==

--------------------------------------------------------------------------
set {
	reference rhf
	basis 6-31G*
}

set_num_threads( 1 )
memory 2 gb

molecule MOL {
0 1

H	 -3.271026	 1.560337	 0.562941
C	 -3.286853	 0.805362	 -0.232914
C	 -2.318538	 1.049487	 -1.362241
O	 -4.030956	 -0.118462	 -0.165021
C	 -0.883717	 1.280005	 -0.867865
H	 -2.374187	 0.211777	 -2.047699
H	 -2.661894	 1.937465	 -1.891634
C	 -0.252658	 0.041456	 -0.226725
H	 -0.276906	 1.599088	 -1.710036
H	 -0.874436	 2.105859	 -0.158192
C	 1.180775	 0.282413	 0.250794
H	 -0.263709	 -0.775809	 -0.944920
H	 -0.859805	 -0.288840	 0.613998
C	 2.148627	 -0.814315	 -0.201312
H	 1.516199	 1.249228	 -0.115937
H	 1.192670	 0.346017	 1.338083
C	 3.580890	 -0.659131	 0.322722
H	 2.166869	 -0.852443	 -1.289387
H	 1.762857	 -1.776509	 0.128956
C	 4.324889	 0.564933	 -0.213704
H	 4.142010	 -1.551473	 0.056605
H	 3.564836	 -0.624694	 1.410140
H	 4.342616	 0.565491	 -1.300421
H	 3.866655	 1.493402	 0.110242
H	 5.353900	 0.572371	 0.132816

	symmetry c1
}
set optking {
	frozen_dihedral = ("
		6 3 5 8,
		6 3 2 4,
		3 5 8 12,
		8 11 14 18,
		20 17 14 18
	")
}

ee = energy('scf')
oeprop('DIPOLE', 'QUADRUPOLE', 'MULLIKEN_CHARGES')
f=open( 'psi4out.xyz', 'w' )
f.write( "25  " )
f.write( str(ee) + "\n" )
f.write( MOL.save_string_xyz() )
f.close()
--------------------------------------------------------------------------

    Molecular point group: c1

    Geometry (in Angstrom), charge = 0, multiplicity = 1:

       Center              X                  Y                   Z               Mass
    ------------   -----------------  -----------------  -----------------  -----------------
           H         -3.324947380899     1.290869885192     0.860777325012     1.007825032070
           C         -3.340774380899     0.535894885192     0.064922325012    12.000000000000
           C         -2.372459380899     0.780019885192    -1.064404674988    12.000000000000
           O         -4.084877380899    -0.387929114808     0.132815325012    15.994914619560
           C         -0.937638380899     1.010537885192    -0.570028674988    12.000000000000
           H         -2.428108380899    -0.057690114808    -1.749862674988     1.007825032070
           H         -2.715815380899     1.667997885192    -1.593797674988     1.007825032070
           C         -0.306579380899    -0.228011114808     0.071111325012    12.000000000000
           H         -0.330827380899     1.329620885192    -1.412199674988     1.007825032070
           H         -0.928357380899     1.836391885192     0.139644325012     1.007825032070
           C          1.126853619101     0.012945885192     0.548630325012    12.000000000000
           H         -0.317630380899    -1.045276114808    -0.647083674988     1.007825032070
           H         -0.913726380899    -0.558307114808     0.911834325012     1.007825032070
           C          2.094705619101    -1.083782114808     0.096524325012    12.000000000000
           H          1.462277619101     0.979760885192     0.181899325012     1.007825032070
           H          1.138748619101     0.076549885192     1.635919325012     1.007825032070
           C          3.526968619101    -0.928598114808     0.620558325012    12.000000000000
           H          2.112947619101    -1.121910114808    -0.991550674988     1.007825032070
           H          1.708935619101    -2.045976114808     0.426792325012     1.007825032070
           C          4.270967619101     0.295465885192     0.084132325012    12.000000000000
           H          4.088088619101    -1.820940114808     0.354441325012     1.007825032070
           H          3.510914619101    -0.894161114808     1.707976325012     1.007825032070
           H          4.288694619101     0.296023885192    -1.002584674988     1.007825032070
           H          3.812733619101     1.223934885192     0.408078325012     1.007825032070
           H          5.299978619101     0.302903885192     0.430652325012     1.007825032070

  Charge       = 0
  Multiplicity = 1
  Basis Set: 6-31G*
  Basis Set:

    Orbital Energies (a.u.)
    -----------------------

    Doubly Occupied:

       1A    -20.561835     2A    -11.326042     3A    -11.235593
       4A    -11.234272     5A    -11.222527     6A    -11.218577
       7A    -11.218046     8A    -11.217516     9A    -11.211081
      10A     -1.401834    11A     -1.104275    12A     -1.069567
      13A     -1.013326    14A     -0.942131    15A     -0.875978
      16A     -0.821250    17A     -0.788073    18A     -0.782187
      19A     -0.665685    20A     -0.653870    21A     -0.635382
      22A     -0.624224    23A     -0.607299    24A     -0.596555
      25A     -0.565205    26A     -0.562141    27A     -0.526969
      28A     -0.524138    29A     -0.517245    30A     -0.498761
      31A     -0.487921    32A     -0.477782    33A     -0.460934
      34A     -0.458121    35A     -0.440937    36A     -0.409449

  @DF-RHF Final Energy:  -387.11698328890628

   => Energetics <=

    Nuclear Repulsion Energy =            439.9826021732457662
    One-Electron Energy =               -1396.2855776586873162
    Two-Electron Energy =                 569.1859921965365174
    DFT Exchange-Correlation Energy =       0.0000000000000000
    Empirical Dispersion Energy =           0.0000000000000000
    PCM Polarization Energy =               0.0000000000000000
    EFP Energy =                            0.0000000000000000
    Total Energy =                       -387.1169832889049758

  Mulliken Charges: (a.u.)
   Center  Symbol    Alpha    Beta     Spin     Total
       1     H     0.43267  0.43267  0.00000  0.13466
       2     C     2.83082  2.83082  0.00000  0.33837
       3     C     3.20863  3.20863  0.00000 -0.41727
       4     O     4.23782  4.23782  0.00000 -0.47564
       5     C     3.16945  3.16945  0.00000 -0.33889
       6     H     0.39965  0.39965  0.00000  0.20070
       7     H     0.40685  0.40685  0.00000  0.18629
       8     C     3.15661  3.15661  0.00000 -0.31322
       9     H     0.41252  0.41252  0.00000  0.17496
      10     H     0.41905  0.41905  0.00000  0.16189
      11     C     3.15707  3.15707  0.00000 -0.31414
      12     H     0.41556  0.41556  0.00000  0.16888
      13     H     0.41599  0.41599  0.00000  0.16801
      14     C     3.15539  3.15539  0.00000 -0.31077
      15     H     0.41918  0.41918  0.00000  0.16163
      16     H     0.41998  0.41998  0.00000  0.16004
      17     C     3.15333  3.15333  0.00000 -0.30666
      18     H     0.42390  0.42390  0.00000  0.15219
      19     H     0.41977  0.41977  0.00000  0.16046
      20     C     3.24129  3.24129  0.00000 -0.48258
      21     H     0.42024  0.42024  0.00000  0.15952
      22     H     0.42276  0.42276  0.00000  0.15448
      23     H     0.42241  0.42241  0.00000  0.15518
      24     H     0.42053  0.42053  0.00000  0.15894
      25     H     0.41853  0.41853  0.00000  0.16295

   Total alpha = 36.00000, Total beta = 36.00000, Total charge = -0.00000
