  ==> Input File <==

--------------------------------------------------------------------------
set {
	reference rhf
	basis cc-pvtz
}

set_num_threads( 4 )
memory 2 gb

molecule MOL {
0 1

H	 3.273419	 0.176595	 -0.102789
N	 2.433987	 -0.362316	 -0.080024
C	 1.263552	 0.494993	 0.021953
H	 2.497638	 -0.973615	 0.707122
C	 -0.016533	 -0.325589	 -0.026925
H	 1.280915	 1.180773	 -0.818522
H	 1.263064	 1.106893	 0.925038
C	 -1.280353	 0.525521	 0.047747
H	 -0.016686	 -0.912532	 -0.939714
H	 -0.014099	 -1.037598	 0.796369
C	 -1.848793	 0.627052	 1.459327
H	 -2.034544	 0.106756	 -0.613159
H	 -1.068521	 1.523531	 -0.326391
H	 -2.102642	 -0.352700	 1.849680
H	 -2.746743	 1.233896	 1.478742
H	 -1.131552	 1.075975	 2.138454

	symmetry c1
}
set optking {
	frozen_dihedral = ("
		12 8 5 9
	")
}

ee = optimize('scf')
oeprop('DIPOLE', 'QUADRUPOLE', 'MULLIKEN_CHARGES')
f=open( 'psi4out.xyz', 'w' )
f.write( "16  " )
f.write( str(ee) + "\n" )
f.write( MOL.save_string_xyz() )
f.close()
--------------------------------------------------------------------------

    Molecular point group: c1
  Charge       = 0
  Multiplicity = 1
  Basis Set: CC-PVTZ
  Basis Set:
  @DF-RHF Final Energy:  -212.39630205562480
    Total Energy =                       -212.3963020556245738
    Molecular point group: c1
  Basis Set: CC-PVTZ
  Basis Set:
  Basis Set: CC-PVTZ
  Basis Set:
  @DF-RHF Final Energy:  -212.39659228923659
    Total Energy =                       -212.3965922892367075
  Basis Set: CC-PVTZ
  Basis Set:
  Basis Set: CC-PVTZ
  Basis Set:
  @DF-RHF Final Energy:  -212.39664592986290
    Total Energy =                       -212.3966459298630411
  Basis Set: CC-PVTZ
  Basis Set:
  Charge       = 0
  Multiplicity = 1
  Basis Set: CC-PVTZ
  Basis Set:

    Orbital Energies (a.u.)
    -----------------------

    Doubly Occupied:

       1A    -15.526643     2A    -11.238578     3A    -11.213060
       4A    -11.207850     5A    -11.207107     6A     -1.178510
       7A     -1.059229     8A     -0.958199     9A     -0.851641
      10A     -0.788618    11A     -0.660633    12A     -0.637146
      13A     -0.612018    14A     -0.578745    15A     -0.562439
      16A     -0.528824    17A     -0.503864    18A     -0.468253
      19A     -0.462802    20A     -0.461211    21A     -0.383779

  @DF-RHF Final Energy:  -212.39664680944705

   => Energetics <=

    Nuclear Repulsion Energy =            188.0287424147303170
    One-Electron Energy =                -658.6724831382166485
    Two-Electron Energy =                 258.2470939140392829
    DFT Exchange-Correlation Energy =       0.0000000000000000
    Empirical Dispersion Energy =           0.0000000000000000
    PCM Polarization Energy =               0.0000000000000000
    EFP Energy =                            0.0000000000000000
    Total Energy =                       -212.3966468094470201
    Molecular point group: c1
  Basis Set: CC-PVTZ
  Basis Set:

  -Total Gradient:
     Atom            X                  Y                   Z
    ------   -----------------  -----------------  -----------------
       1        0.000050371210    -0.000014136741     0.000007501058
       2        0.000058701917    -0.000006666906    -0.000012701862
       3       -0.000020320734     0.000000837980     0.000001816357
       4        0.000002469497    -0.000005841421     0.000006750578
       5        0.001873551415     0.003162522122    -0.002241879677
       6       -0.000025238010     0.000004117000     0.000001967652
       7       -0.000014998585    -0.000011913147    -0.000013550814
       8       -0.001527661677    -0.002669622926     0.002994930069
       9       -0.001313826147    -0.002203895542     0.001408974845
      10        0.000009227607     0.000005374121    -0.000012167002
      11       -0.000024328741     0.000009376934     0.000032614102
      12        0.000922831536     0.001731820565    -0.002148147239
      13       -0.000005625300    -0.000007649738     0.000014088874
      14        0.000018404297     0.000002890492    -0.000017049798
      15       -0.000009328462     0.000003197862    -0.000003914053
      16        0.000005770174    -0.000000410655    -0.000019233088

  **** Optimization is complete! (in 4 steps) ****
    Final optimized geometry and variables:
    Molecular point group: c1

    Geometry (in Angstrom), charge = 0, multiplicity = 1:

    H            3.129170084166    -0.008456389842    -0.363026918018
    N            2.290223888262    -0.548533327371    -0.349367361966
    C            1.115816527207     0.306675036151    -0.293441756851
    H            2.336061810318    -1.144607489484     0.450559036068
    C           -0.161018999502    -0.518061612078    -0.364566355836
    H            1.151779312792     0.977055303719    -1.145415234640
    H            1.090480939724     0.935576708194     0.597543373029
    C           -1.441354013808     0.323256770665    -0.251675025366
    H           -0.160152065412    -1.093197394806    -1.282808366534
    H           -0.146893071806    -1.254686869656     0.436478740233
    C           -1.982970478409     0.439945605864     1.169749108327
    H           -2.205461167199    -0.086837626991    -0.902732463280
    H           -1.246076433025     1.320330585894    -0.638660199817
    H           -2.265559772978    -0.532475997950     1.558567980589
    H           -2.858422224414     1.078402811633     1.205587603661
    H           -1.241865812369     0.860034340920     1.841577993653

  Mulliken Charges: (a.u.)
   Center  Symbol    Alpha    Beta     Spin     Total
       1     H     0.43011  0.43011  0.00000  0.13979
       2     N     3.68999  3.68999  0.00000 -0.37999
       3     C     3.02551  3.02551  0.00000 -0.05101
       4     H     0.43035  0.43035  0.00000  0.13930
       5     C     3.08654  3.08654  0.00000 -0.17309
       6     H     0.45644  0.45644  0.00000  0.08712
       7     H     0.46760  0.46760  0.00000  0.06480
       8     C     3.09625  3.09625  0.00000 -0.19249
       9     H     0.44382  0.44382  0.00000  0.11237
      10     H     0.46225  0.46225  0.00000  0.07550
      11     C     3.14725  3.14725  0.00000 -0.29450
      12     H     0.44717  0.44717  0.00000  0.10565
      13     H     0.45687  0.45687  0.00000  0.08627
      14     H     0.45485  0.45485  0.00000  0.09030
      15     H     0.44886  0.44886  0.00000  0.10227
      16     H     0.45614  0.45614  0.00000  0.08771

   Total alpha = 21.00000, Total beta = 21.00000, Total charge = -0.00000
