  ==> Input File <==

--------------------------------------------------------------------------
set {
	reference rhf
	basis 6-31G*
}

set_num_threads( 1 )
memory 2 gb

molecule MOL {
0 1

H	 -2.116093	 -1.208640	 0.099913
O	 -2.347518	 -0.290803	 0.079804
C	 -1.184022	 0.487508	 -0.006784
C	 0.062599	 -0.378592	 0.031606
H	 -1.176523	 1.099369	 -0.904519
H	 -1.187323	 1.153111	 0.844927
O	 1.171513	 0.459272	 -0.058250
H	 0.050699	 -1.089204	 -0.797170
H	 0.078739	 -0.954914	 0.954740
C	 2.397842	 -0.198080	 -0.002151
H	 2.508049	 -0.905315	 -0.822092
H	 3.173794	 0.550865	 -0.078850
H	 2.517602	 -0.735921	 0.936026

	symmetry c1
}
set optking {
	frozen_dihedral = ("
		8 4 3 5,
		10 7 4 8,
		4 7 10 13
	")
}

ee = energy('scf')
oeprop('DIPOLE', 'QUADRUPOLE', 'MULLIKEN_CHARGES')
f=open( 'psi4out.xyz', 'w' )
f.write( "13  " )
f.write( str(ee) + "\n" )
f.write( MOL.save_string_xyz() )
f.close()
--------------------------------------------------------------------------

    Molecular point group: c1

    Geometry (in Angstrom), charge = 0, multiplicity = 1:

       Center              X                  Y                   Z               Mass
    ------------   -----------------  -----------------  -----------------  -----------------
           H         -2.121168321665    -1.202297939298     0.088715403392     1.007825032070
           O         -2.352593321665    -0.284460939298     0.068606403392    15.994914619560
           C         -1.189097321665     0.493850060702    -0.017981596608    12.000000000000
           C          0.057523678335    -0.372249939298     0.020408403392    12.000000000000
           H         -1.181598321665     1.105711060702    -0.915716596608     1.007825032070
           H         -1.192398321665     1.159453060702     0.833729403392     1.007825032070
           O          1.166437678335     0.465614060702    -0.069447596608    15.994914619560
           H          0.045623678335    -1.082861939298    -0.808367596608     1.007825032070
           H          0.073663678335    -0.948571939298     0.943542403392     1.007825032070
           C          2.392766678335    -0.191737939298    -0.013348596608    12.000000000000
           H          2.502973678335    -0.898972939298    -0.833289596608     1.007825032070
           H          3.168718678335     0.557207060702    -0.090047596608     1.007825032070
           H          2.512526678335    -0.729578939298     0.924828403392     1.007825032070

  Charge       = 0
  Multiplicity = 1
  Basis Set: 6-31G*
  Basis Set:

    Orbital Energies (a.u.)
    -----------------------

    Doubly Occupied:

       1A    -20.569012     2A    -20.557394     3A    -11.281660
       4A    -11.274774     5A    -11.268185     6A     -1.394966
       7A     -1.364711     8A     -1.022458     9A     -0.915944
      10A     -0.853738    11A     -0.693233    12A     -0.688474
      13A     -0.671763    14A     -0.624157    15A     -0.610603
      16A     -0.579958    17A     -0.547282    18A     -0.498479
      19A     -0.472965    20A     -0.439145    21A     -0.428671

  @DF-RHF Final Energy:  -267.94569574373725

   => Energetics <=

    Nuclear Repulsion Energy =            190.6158538040494648
    One-Electron Energy =                -743.6078123616025550
    Two-Electron Energy =                 285.0462628138158721
    DFT Exchange-Correlation Energy =       0.0000000000000000
    Empirical Dispersion Energy =           0.0000000000000000
    PCM Polarization Energy =               0.0000000000000000
    EFP Energy =                            0.0000000000000000
    Total Energy =                       -267.9456957437371898

  Mulliken Charges: (a.u.)
   Center  Symbol    Alpha    Beta     Spin     Total
       1     H     0.27981  0.27981  0.00000  0.44039
       2     O     4.37746  4.37746  0.00000 -0.75492
       3     C     2.98077  2.98077  0.00000  0.03847
       4     C     3.01789  3.01789  0.00000 -0.03578
       5     H     0.41671  0.41671  0.00000  0.16657
       6     H     0.41646  0.41646  0.00000  0.16707
       7     O     4.30511  4.30511  0.00000 -0.61021
       8     H     0.43050  0.43050  0.00000  0.13900
       9     H     0.42880  0.42880  0.00000  0.14240
      10     C     3.08172  3.08172  0.00000 -0.16344
      11     H     0.42808  0.42808  0.00000  0.14385
      12     H     0.40890  0.40890  0.00000  0.18221
      13     H     0.42780  0.42780  0.00000  0.14439

   Total alpha = 21.00000, Total beta = 21.00000, Total charge =  0.00000
