  ==> Input File <==

--------------------------------------------------------------------------
set {
	reference rhf
	basis 6-31G*
}

set_num_threads( 1 )
memory 2 gb

molecule MOL {
0 1

H	 2.844651	 -0.422309	 -0.156993
O	 2.016064	 -0.864478	 0.000222
C	 1.050492	 0.053836	 0.000068
C	 -0.318135	 -0.576402	 0.000164
O	 1.285279	 1.218255	 -0.000078
C	 -1.454360	 0.441875	 -0.000474
H	 -0.374042	 -1.230163	 -0.866135
H	 -0.374274	 -1.229227	 0.867154
C	 -2.826123	 -0.230780	 0.000056
H	 -1.357605	 1.085198	 -0.868380
H	 -1.357504	 1.086451	 0.866496
H	 -2.959731	 -0.858053	 -0.876869
H	 -3.619374	 0.509403	 -0.000080
H	 -2.959371	 -0.857318	 0.877556

	symmetry c1
}
set optking {
	frozen_dihedral = ("
		7 4 6 10,
		2 3 4 7
	")
}

ee = energy('scf')
oeprop('DIPOLE', 'QUADRUPOLE', 'MULLIKEN_CHARGES')
f=open( 'psi4out.xyz', 'w' )
f.write( "14  " )
f.write( str(ee) + "\n" )
f.write( MOL.save_string_xyz() )
f.close()
--------------------------------------------------------------------------

    Molecular point group: c1

    Geometry (in Angstrom), charge = 0, multiplicity = 1:

       Center              X                  Y                   Z               Mass
    ------------   -----------------  -----------------  -----------------  -----------------
           H          2.844759383064    -0.422195090674    -0.155193955643     1.007825032070
           O          2.016172383064    -0.864364090674     0.002021044357    15.994914619560
           C          1.050600383064     0.053949909326     0.001867044357    12.000000000000
           C         -0.318026616936    -0.576288090674     0.001963044357    12.000000000000
           O          1.285387383064     1.218368909326     0.001721044357    15.994914619560
           C         -1.454251616936     0.441988909326     0.001325044357    12.000000000000
           H         -0.373933616936    -1.230049090674    -0.864335955643     1.007825032070
           H         -0.374165616936    -1.229113090674     0.868953044357     1.007825032070
           C         -2.826014616936    -0.230666090674     0.001855044357    12.000000000000
           H         -1.357496616936     1.085311909326    -0.866580955643     1.007825032070
           H         -1.357395616936     1.086564909326     0.868295044357     1.007825032070
           H         -2.959622616936    -0.857939090674    -0.875069955643     1.007825032070
           H         -3.619265616936     0.509516909326     0.001719044357     1.007825032070
           H         -2.959262616936    -0.857204090674     0.879355044357     1.007825032070

  Charge       = 0
  Multiplicity = 1
  Basis Set: 6-31G*
  Basis Set:

    Orbital Energies (a.u.)
    -----------------------

    Doubly Occupied:

       1A    -20.612721     2A    -20.552405     3A    -11.381746
       4A    -11.241330     5A    -11.225609     6A    -11.217125
       7A     -1.475061     8A     -1.366340     9A     -1.083153
      10A     -0.979634    11A     -0.857227    12A     -0.791332
      13A     -0.700251    14A     -0.688823    15A     -0.667420
      16A     -0.616642    17A     -0.592569    18A     -0.572802
      19A     -0.545351    20A     -0.505207    21A     -0.491716
      22A     -0.482498    23A     -0.478937    24A     -0.444755

  @DF-RHF Final Energy:  -305.88021984752811

   => Energetics <=

    Nuclear Repulsion Energy =            239.9656106488621674
    One-Electron Energy =                -892.5503932422808475
    Two-Electron Energy =                 346.7045627458908257
    DFT Exchange-Correlation Energy =       0.0000000000000000
    Empirical Dispersion Energy =           0.0000000000000000
    PCM Polarization Energy =               0.0000000000000000
    EFP Energy =                            0.0000000000000000
    Total Energy =                       -305.8802198475278828

  Mulliken Charges: (a.u.)
   Center  Symbol    Alpha    Beta     Spin     Total
       1     H     0.26764  0.26764  0.00000  0.46473
       2     O     4.35131  4.35131  0.00000 -0.70262
       3     C     2.62372  2.62372  0.00000  0.75256
       4     C     3.20930  3.20930  0.00000 -0.41861
       5     O     4.27847  4.27847  0.00000 -0.55695
       6     C     3.15243  3.15243  0.00000 -0.30487
       7     H     0.39919  0.39919  0.00000  0.20161
       8     H     0.39858  0.39858  0.00000  0.20283
       9     C     3.24292  3.24292  0.00000 -0.48583
      10     H     0.41035  0.41035  0.00000  0.17930
      11     H     0.40992  0.40992  0.00000  0.18016
      12     H     0.42095  0.42095  0.00000  0.15810
      13     H     0.41446  0.41446  0.00000  0.17108
      14     H     0.42075  0.42075  0.00000  0.15850

   Total alpha = 24.00000, Total beta = 24.00000, Total charge =  0.00000
