  ==> Input File <==

--------------------------------------------------------------------------
set {
	reference rhf
	basis 6-31G*
}

set_num_threads( 1 )
memory 2 gb

molecule MOL {
0 1

H	 -2.798360	 -0.862255	 -0.071053
N	 -1.863561	 -0.715187	 0.256814
C	 -1.344686	 0.554728	 -0.219830
H	 -1.300452	 -1.461917	 -0.101532
C	 0.081427	 0.741154	 0.254071
H	 -1.362155	 0.656231	 -1.305829
H	 -1.952773	 1.354456	 0.191809
O	 0.874168	 -0.245412	 -0.342030
H	 0.444037	 1.730782	 -0.023037
H	 0.121165	 0.653424	 1.337565
C	 0.801165	 -1.491092	 0.274834
H	 1.450485	 -2.164505	 -0.267933
H	 1.132464	 -1.442323	 1.310616
H	 -0.212567	 -1.885762	 0.254998

	symmetry c1
}
set optking {
	frozen_dihedral = ("
		8 5 3 6,
		6 3 2 4,
		5 8 11 13
	")
}

ee = energy('scf')
oeprop('DIPOLE', 'QUADRUPOLE', 'MULLIKEN_CHARGES')
f=open( 'psi4out.xyz', 'w' )
f.write( "14  " )
f.write( str(ee) + "\n" )
f.write( MOL.save_string_xyz() )
f.close()
--------------------------------------------------------------------------

    Molecular point group: c1

    Geometry (in Angstrom), charge = 0, multiplicity = 1:

       Center              X                  Y                   Z               Mass
    ------------   -----------------  -----------------  -----------------  -----------------
           H         -2.503007206050    -0.599410420222    -0.113285432107     1.007825032070
           N         -1.568208206050    -0.452342420222     0.214581567893    14.003074004780
           C         -1.049333206050     0.817572579778    -0.262062432107    12.000000000000
           H         -1.005099206050    -1.199072420222    -0.143764432107     1.007825032070
           C          0.376779793950     1.003998579778     0.211838567893    12.000000000000
           H         -1.066802206050     0.919075579778    -1.348061432107     1.007825032070
           H         -1.657420206050     1.617300579778     0.149576567893     1.007825032070
           O          1.169520793950     0.017432579778    -0.384262432107    15.994914619560
           H          0.739389793950     1.993626579778    -0.065269432107     1.007825032070
           H          0.416517793950     0.916268579778     1.295332567893     1.007825032070
           C          1.096517793950    -1.228247420222     0.232601567893    12.000000000000
           H          1.745837793950    -1.901660420222    -0.310165432107     1.007825032070
           H          1.427816793950    -1.179478420222     1.268383567893     1.007825032070
           H          0.082785793950    -1.622917420222     0.212765567893     1.007825032070

  Charge       = 0
  Multiplicity = 1
  Basis Set: 6-31G*
  Basis Set:

    Orbital Energies (a.u.)
    -----------------------

    Doubly Occupied:

       1A    -20.556531     2A    -15.534836     3A    -11.267087
       4A    -11.262535     5A    -11.241782     6A     -1.383721
       7A     -1.185361     8A     -1.007738     9A     -0.907224
      10A     -0.824321    11A     -0.719287    12A     -0.675546
      13A     -0.641050    14A     -0.599945    15A     -0.592066
      16A     -0.569402    17A     -0.531346    18A     -0.510883
      19A     -0.464138    20A     -0.406920    21A     -0.387169

  @DF-RHF Final Energy:  -248.08915879971076

   => Energetics <=

    Nuclear Repulsion Energy =            201.9751595073701367
    One-Electron Energy =                -737.5908726105806181
    Two-Electron Energy =                 287.5265543034996654
    DFT Exchange-Correlation Energy =       0.0000000000000000
    Empirical Dispersion Energy =           0.0000000000000000
    PCM Polarization Energy =               0.0000000000000000
    EFP Energy =                            0.0000000000000000
    Total Energy =                       -248.0891587997108445

  Mulliken Charges: (a.u.)
   Center  Symbol    Alpha    Beta     Spin     Total
       1     H     0.33100  0.33100  0.00000  0.33801
       2     N     3.92959  3.92959  0.00000 -0.85917
       3     C     3.06784  3.06784  0.00000 -0.13567
       4     H     0.32250  0.32250  0.00000  0.35499
       5     C     3.00229  3.00229  0.00000 -0.00457
       6     H     0.42537  0.42537  0.00000  0.14926
       7     H     0.42240  0.42240  0.00000  0.15521
       8     O     4.30674  4.30674  0.00000 -0.61348
       9     H     0.41405  0.41405  0.00000  0.17190
      10     H     0.42201  0.42201  0.00000  0.15599
      11     C     3.07633  3.07633  0.00000 -0.15266
      12     H     0.41325  0.41325  0.00000  0.17350
      13     H     0.42374  0.42374  0.00000  0.15251
      14     H     0.44291  0.44291  0.00000  0.11418

   Total alpha = 21.00000, Total beta = 21.00000, Total charge =  0.00000
