                              Psi4 1.0.54 Driver

  ==> Input File <==

--------------------------------------------------------------------------
set {
	reference rhf
	basis cc-pvtz
}

set_num_threads( 4 )
memory 2 gb

molecule MOL {
0 1

H	 1.328843	 -1.573722	 0.157381
O	 1.583947	 -0.677544	 -0.001533
C	 0.489979	 0.078084	 0.002623
C	 -0.763662	 -0.754014	 0.000816
O	 0.539051	 1.259395	 -0.000088
C	 -2.038001	 0.074705	 -0.000833
H	 -0.712945	 -1.405886	 -0.864342
H	 -0.715137	 -1.405770	 0.866182
H	 -2.087267	 0.710831	 -0.874232
H	 -2.903419	 -0.576199	 -0.001922
H	 -2.089467	 0.710909	 0.872389

	symmetry c1
}
set optking {
	frozen_dihedral = ("
		1 2 3 5
	")
}

ee,wfn = optimize('scf', return_wfn=True)
oeprop( wfn, 'DIPOLE', 'QUADRUPOLE', 'MULLIKEN_CHARGES')
f=open( 'psi4out.xyz', 'w' )
f.write( "11  " )
f.write( str(ee) + "\n" )
f.write( MOL.save_string_xyz() )
f.close()
--------------------------------------------------------------------------

    Molecular point group: c1
  Charge       = 0
  Multiplicity = 1
  Basis Set: CC-PVTZ
  Basis Set:
  @DF-RHF Final Energy:  -266.94215892777811
    Total Energy =                       -266.9421589277782232
    Molecular point group: c1
  Basis Set: CC-PVTZ
  Basis Set:
  Basis Set: CC-PVTZ
  Basis Set:
  @DF-RHF Final Energy:  -266.94340949888738
    Total Energy =                       -266.9434094988873767
  Basis Set: CC-PVTZ
  Basis Set:
  Basis Set: CC-PVTZ
  Basis Set:
  @DF-RHF Final Energy:  -266.94321897123911
    Total Energy =                       -266.9432189712390482
  Basis Set: CC-PVTZ
  Basis Set:
  Basis Set: CC-PVTZ
  Basis Set:
  @DF-RHF Final Energy:  -266.94362405803474
    Total Energy =                       -266.9436240580347999
  Basis Set: CC-PVTZ
  Basis Set:
  Basis Set: CC-PVTZ
  Basis Set:
  @DF-RHF Final Energy:  -266.94362753976520
    Total Energy =                       -266.9436275397652025
  Basis Set: CC-PVTZ
  Basis Set:
  Charge       = 0
  Multiplicity = 1
  Basis Set: CC-PVTZ
  Basis Set:

    Orbital Energies (a.u.)
    -----------------------

    Doubly Occupied:

       1A    -20.605202     2A    -20.537557     3A    -11.373627
       4A    -11.254144     5A    -11.224506     6A     -1.472448
       7A     -1.374548     8A     -1.070046     9A     -0.909487
      10A     -0.832491    11A     -0.720163    12A     -0.669518
      13A     -0.662365    14A     -0.612129    15A     -0.598499
      16A     -0.535347    17A     -0.529816    18A     -0.513925
      19A     -0.482640    20A     -0.445485

  @DF-RHF Final Energy:  -266.94362784090237

   => Energetics <=

    Nuclear Repulsion Energy =            180.0809278281294041
    One-Electron Energy =                -721.2012230547707077
    Two-Electron Energy =                 274.1766673857389378
    DFT Exchange-Correlation Energy =       0.0000000000000000
    Empirical Dispersion Energy =           0.0000000000000000
    PCM Polarization Energy =               0.0000000000000000
    EFP Energy =                            0.0000000000000000
    Total Energy =                       -266.9436278409023089
    Molecular point group: c1
  Basis Set: CC-PVTZ
  Basis Set:

  -Total Gradient:
     Atom            X                  Y                   Z
    ------   -----------------  -----------------  -----------------
       1        0.000358616710     0.000440099434     0.002327581558
       2       -0.000386146742    -0.000571559464    -0.002037131646
       3       -0.000083346690     0.000100167959    -0.002338700322
       4        0.000033031064     0.000022559119    -0.000020679932
       5        0.000088453719     0.000013163494     0.002058521707
       6       -0.000007330540    -0.000005880038     0.000004946863
       7       -0.000002948236    -0.000000866929     0.000007906303
       8        0.000002890322     0.000007554489     0.000001363987
       9        0.000002988819    -0.000004175976     0.000002464812
      10       -0.000010388981     0.000003742906    -0.000001025514
      11        0.000004180552    -0.000004804989    -0.000005247815

  **** Optimization is complete! (in 6 steps) ****
    Final optimized geometry and variables:
    Molecular point group: c1

    Geometry (in Angstrom), charge = 0, multiplicity = 1:

    H            1.502284697169    -1.520637184486     0.107976479227
    O            1.638447617833    -0.607812124934    -0.075902902337
    C            0.498815871212     0.087701300020    -0.033208081708
    C           -0.757970688481    -0.749068452071     0.058827936244
    O            0.520654277398     1.262816100093    -0.066289006155
    C           -2.031651028297     0.078945960012     0.111261583175
    H           -0.766849019624    -1.420694237130    -0.794752151528
    H           -0.672436333350    -1.378445183167     0.941014363666
    H           -2.127931427221     0.693219489928    -0.773223958101
    H           -2.895966363210    -0.570334616710     0.176136551338
    H           -2.029382701970     0.736292676493     0.969713660490

  Mulliken Charges: (a.u.)
   Center  Symbol    Alpha    Beta     Spin     Total
       1     H     0.38804  0.38804  0.00000  0.22393
       2     O     4.14549  4.14549  0.00000 -0.29098
       3     C     2.80509  2.80509  0.00000  0.38982
       4     C     3.11718  3.11718  0.00000 -0.23436
       5     O     4.17537  4.17537  0.00000 -0.35073
       6     C     3.14053  3.14053  0.00000 -0.28106
       7     H     0.44087  0.44087  0.00000  0.11826
       8     H     0.44698  0.44698  0.00000  0.10604
       9     H     0.44469  0.44469  0.00000  0.11063
      10     H     0.45046  0.45046  0.00000  0.09908
      11     H     0.44532  0.44532  0.00000  0.10937

   Total alpha = 20.00000, Total beta = 20.00000, Total charge = -0.00000

*** Psi4 exiting successfully. Buy a developer a beer!
