  ==> Input File <==

--------------------------------------------------------------------------
set {
	reference rhf
	basis 6-31G*
}

set_num_threads( 4 )
memory 2 gb

molecule MOL {
0 1

O	 -2.495939	 0.865567	 1.461725
C	 -2.495917	 -0.105459	 0.774903
C	 -3.647953	 -1.073298	 0.689053
O	 -1.481751	 -0.454642	 0.000584
H	 -4.531111	 -0.535177	 0.366069
H	 -3.442405	 -1.884925	 0.006815
H	 -3.847144	 -1.465752	 1.679095
C	 -0.334255	 0.388708	 0.000906
C	 0.891947	 -0.504646	 0.000751
H	 -0.365390	 1.025305	 -0.873475
H	 -0.365484	 1.024911	 0.875569
C	 2.191998	 0.301789	 0.000897
H	 0.855148	 -1.151283	 -0.871571
H	 0.855132	 -1.151660	 0.872805
C	 3.441114	 -0.581407	 0.000108
H	 2.215074	 0.954890	 -0.869742
H	 2.215465	 0.953923	 0.872248
C	 4.739576	 0.224112	 -0.001102
H	 3.419457	 -1.233487	 -0.870178
H	 3.420834	 -1.233096	 0.870717
H	 4.804918	 0.861552	 -0.878265
H	 5.606527	 -0.429058	 -0.001824
H	 4.806469	 0.861674	 0.875853

	symmetry c1
}
set optking {
	frozen_dihedral = ("
		2 4 8 10
	")
}

ee = optimize('scf')
oeprop('DIPOLE', 'QUADRUPOLE', 'MULLIKEN_CHARGES')
f=open( 'psi4out.xyz', 'w' )
f.write( "23  " )
f.write( str(ee) + "\n" )
f.write( MOL.save_string_xyz() )
f.close()
--------------------------------------------------------------------------

    Molecular point group: c1
  Charge       = 0
  Multiplicity = 1
  Basis Set: 6-31G*
  Basis Set:
  @DF-RHF Final Energy:  -422.97734455491820
    Total Energy =                       -422.9773445549178632
    Molecular point group: c1
  Basis Set: 6-31G*
  Basis Set:
  Basis Set: 6-31G*
  Basis Set:
  @DF-RHF Final Energy:  -422.97753909756432
    Total Energy =                       -422.9775390975637492
  Basis Set: 6-31G*
  Basis Set:
  Basis Set: 6-31G*
  Basis Set:
  @DF-RHF Final Energy:  -422.97788598558697
    Total Energy =                       -422.9778859855865676
  Basis Set: 6-31G*
  Basis Set:
  Basis Set: 6-31G*
  Basis Set:
  @DF-RHF Final Energy:  -422.97759017665965
    Total Energy =                       -422.9775901766597599
  Basis Set: 6-31G*
  Basis Set:
  Basis Set: 6-31G*
  Basis Set:
  @DF-RHF Final Energy:  -422.97790864715108
    Total Energy =                       -422.9779086471510254
  Basis Set: 6-31G*
  Basis Set:
  Charge       = 0
  Multiplicity = 1
  Basis Set: 6-31G*
  Basis Set:

    Orbital Energies (a.u.)
    -----------------------

    Doubly Occupied:

       1A    -20.602460     2A    -20.540057     3A    -11.375318
       4A    -11.280406     5A    -11.231880     6A    -11.224309
       7A    -11.223714     8A    -11.221647     9A    -11.212919
      10A     -1.465876    11A     -1.361264    12A     -1.093987
      13A     -1.042189    14A     -1.003069    15A     -0.931534
      16A     -0.844168    17A     -0.801567    18A     -0.773410
      19A     -0.696534    20A     -0.680526    21A     -0.663752
      22A     -0.647463    23A     -0.605976    24A     -0.588127
      25A     -0.583975    26A     -0.570083    27A     -0.554705
      28A     -0.537407    29A     -0.523504    30A     -0.506138
      31A     -0.490394    32A     -0.478151    33A     -0.472298
      34A     -0.470253    35A     -0.444636    36A     -0.433773

  @DF-RHF Final Energy:  -422.97790943712454

   => Energetics <=

    Nuclear Repulsion Energy =            450.1970690644439514
    One-Electron Energy =               -1467.9950221118751870
    Two-Electron Energy =                 594.8200436103072661
    DFT Exchange-Correlation Energy =       0.0000000000000000
    Empirical Dispersion Energy =           0.0000000000000000
    PCM Polarization Energy =               0.0000000000000000
    EFP Energy =                            0.0000000000000000
    Total Energy =                       -422.9779094371240262
    Molecular point group: c1
  Basis Set: 6-31G*
  Basis Set:

  -Total Gradient:
     Atom            X                  Y                   Z
    ------   -----------------  -----------------  -----------------
       1       -0.000019690118    -0.000028906088    -0.000021589030
       2        0.000374749634    -0.000466655049     0.000774732147
       3        0.000012077423     0.000023404081    -0.000029005332
       4       -0.000377886451     0.000545822693    -0.001251537473
       5        0.000003729302     0.000005569866     0.000015431325
       6        0.000011386128     0.000008763582     0.000004380876
       7        0.000009434616    -0.000014963154     0.000009672133
       8       -0.000568955794     0.000653680722     0.001059180217
       9       -0.000004229207     0.000020285553    -0.000019324983
      10        0.000557360940    -0.000770780278    -0.000558035746
      11        0.000008549677     0.000022394847     0.000012308067
      12       -0.000005892794    -0.000005969822     0.000006695143
      13       -0.000006105796     0.000000401132    -0.000003251135
      14       -0.000004118062     0.000007642826    -0.000002765159
      15        0.000000965910     0.000001929110     0.000003795029
      16        0.000000899654    -0.000003265357     0.000000509379
      17       -0.000000999293     0.000003144406    -0.000002973832
      18        0.000005440306    -0.000004066948     0.000001489433
      19       -0.000001650389     0.000001130535     0.000001424159
      20        0.000002515763     0.000000010971     0.000000202061
      21       -0.000000819038    -0.000000395238     0.000000056737
      22        0.000003471881     0.000001464147    -0.000000515244
      23       -0.000000234281    -0.000000642536    -0.000000878771

  **** Optimization is complete! (in 6 steps) ****
    Final optimized geometry and variables:
    Molecular point group: c1

    Geometry (in Angstrom), charge = 0, multiplicity = 1:

    O           -2.652821345153     0.973568514082     1.124509235873
    C           -2.595647665793     0.003904701386     0.438447948883
    C           -3.717676094796    -0.994660896199     0.312526380602
    O           -1.549012870911    -0.325879745005    -0.302195017684
    H           -4.600657176597    -0.481056841818    -0.048635314918
    H           -3.464263203646    -1.804282093964    -0.355693119460
    H           -3.946181875414    -1.386055426859     1.296663445542
    C           -0.385923342034     0.498069062081    -0.276728393837
    C            0.836882663675    -0.402688295631    -0.292939146646
    H           -0.412500469341     1.126169371380    -1.159154076515
    H           -0.410119704594     1.128069049788     0.597892404486
    C            2.140452079991     0.397149926577    -0.329481226320
    H            0.779382783441    -1.060550831818    -1.155599985079
    H            0.814588228919    -1.037771085236     0.588685808930
    C            3.385623411322    -0.491552778105    -0.339752197859
    H            2.150200928867     1.036128283213    -1.210955984187
    H            2.182922033336     1.062994215816     0.530696222766
    C            4.687218373327     0.308006545236    -0.378203704315
    H            3.344674064006    -1.157307927793    -1.198938084302
    H            3.379016412954    -1.129090155847     0.541439158078
    H            4.738989644641     0.930794458103    -1.266759631239
    H            5.551240456043    -0.348996535081    -0.384323718323
    H            4.773094795728     0.959403984635     0.486825062929

  Mulliken Charges: (a.u.)
   Center  Symbol    Alpha    Beta     Spin     Total
       1     O     4.28345  4.28345  0.00000 -0.56690
       2     C     2.61557  2.61557  0.00000  0.76886
       3     C     3.28834  3.28834  0.00000 -0.57669
       4     O     4.31340  4.31340  0.00000 -0.62679
       5     H     0.39751  0.39751  0.00000  0.20498
       6     H     0.39995  0.39995  0.00000  0.20010
       7     H     0.39778  0.39778  0.00000  0.20444
       8     C     3.00292  3.00292  0.00000 -0.00583
       9     C     3.16324  3.16324  0.00000 -0.32647
      10     H     0.41576  0.41576  0.00000  0.16847
      11     H     0.39626  0.39626  0.00000  0.20748
      12     C     3.16073  3.16073  0.00000 -0.32145
      13     H     0.41419  0.41419  0.00000  0.17163
      14     H     0.41577  0.41577  0.00000  0.16845
      15     C     3.15136  3.15136  0.00000 -0.30272
      16     H     0.42154  0.42154  0.00000  0.15692
      17     H     0.42001  0.42001  0.00000  0.15998
      18     C     3.23989  3.23989  0.00000 -0.47979
      19     H     0.42147  0.42147  0.00000  0.15706
      20     H     0.42116  0.42116  0.00000  0.15768
      21     H     0.42110  0.42110  0.00000  0.15780
      22     H     0.41798  0.41798  0.00000  0.16405
      23     H     0.42062  0.42062  0.00000  0.15875

   Total alpha = 36.00000, Total beta = 36.00000, Total charge = -0.00000
