  ==> Input File <==

--------------------------------------------------------------------------
set {
	reference rhf
	basis cc-pvtz
}

set_num_threads( 4 )
memory 2 gb

molecule MOL {
0 1

H	 -0.000105	 1.988529	 0.748933
O	 -0.000098	 1.879786	 -0.188206
C	 -0.000014	 0.545691	 -0.532416
C	 1.039375	 -0.213044	 0.294488
C	 0.159655	 0.390710	 -2.045777
H	 -0.965863	 0.136425	 -0.274933
F	 0.754609	 -0.089075	 1.567437
F	 1.064737	 -1.490783	 0.010851
F	 2.247805	 0.272564	 0.106720
F	 -0.830909	 0.999047	 -2.650399
F	 0.150467	 -0.863308	 -2.421367
F	 1.280184	 0.936653	 -2.467364

	symmetry c1
}
set optking {
	frozen_dihedral = ("
		6 3 2 1
	")
}

ee = optimize('scf')
oeprop('DIPOLE', 'QUADRUPOLE', 'MULLIKEN_CHARGES')
f=open( 'psi4out.xyz', 'w' )
f.write( "12  " )
f.write( str(ee) + "\n" )
f.write( MOL.save_string_xyz() )
f.close()
--------------------------------------------------------------------------

    Molecular point group: c1
  Charge       = 0
  Multiplicity = 1
  Basis Set: CC-PVTZ
  Basis Set:
  @DF-RHF Final Energy:  -786.58534709648347
    Total Energy =                       -786.5853470964834742
    Molecular point group: c1
  Basis Set: CC-PVTZ
  Basis Set:
  Basis Set: CC-PVTZ
  Basis Set:
  @DF-RHF Final Energy:  -786.58726209905160
    Total Energy =                       -786.5872620990517134
  Basis Set: CC-PVTZ
  Basis Set:
  Basis Set: CC-PVTZ
  Basis Set:
  @DF-RHF Final Energy:  -786.58768242956205
    Total Energy =                       -786.5876824295626193
  Basis Set: CC-PVTZ
  Basis Set:
  Basis Set: CC-PVTZ
  Basis Set:
  @DF-RHF Final Energy:  -786.58774073215466
    Total Energy =                       -786.5877407321546571
  Basis Set: CC-PVTZ
  Basis Set:
  Basis Set: CC-PVTZ
  Basis Set:
  @DF-RHF Final Energy:  -786.58775280237990
    Total Energy =                       -786.5877528023800096
  Basis Set: CC-PVTZ
  Basis Set:
  Basis Set: CC-PVTZ
  Basis Set:
  @DF-RHF Final Energy:  -786.58775506152460
    Total Energy =                       -786.5877550615248310
  Basis Set: CC-PVTZ
  Basis Set:
  Charge       = 0
  Multiplicity = 1
  Basis Set: CC-PVTZ
  Basis Set:

    Orbital Energies (a.u.)
    -----------------------

    Doubly Occupied:

       1A    -26.362353     2A    -26.359016     3A    -26.357145
       4A    -26.351847     5A    -26.348290     6A    -26.348016
       7A    -20.608566     8A    -11.522155     9A    -11.516028
      10A    -11.351595    11A     -1.772719    12A     -1.762331
      13A     -1.667621    14A     -1.666387    15A     -1.657698
      16A     -1.655940    17A     -1.439068    18A     -1.104403
      19A     -1.001369    20A     -0.941729    21A     -0.874854
      22A     -0.865364    23A     -0.860872    24A     -0.849229
      25A     -0.838641    26A     -0.792046    27A     -0.759147
      28A     -0.738491    29A     -0.727360    30A     -0.724459
      31A     -0.720451    32A     -0.691963    33A     -0.688619
      34A     -0.674894    35A     -0.674101    36A     -0.668910
      37A     -0.658939    38A     -0.645140    39A     -0.622295
      40A     -0.550230    41A     -0.509675

  @DF-RHF Final Energy:  -786.58775562127516

   => Energetics <=

    Nuclear Repulsion Energy =            671.0489664715591971
    One-Electron Energy =               -2429.4135297403699951
    Two-Electron Energy =                 971.7768076475360886
    DFT Exchange-Correlation Energy =       0.0000000000000000
    Empirical Dispersion Energy =           0.0000000000000000
    PCM Polarization Energy =               0.0000000000000000
    EFP Energy =                            0.0000000000000000
    Total Energy =                       -786.5877556212747095
    Molecular point group: c1
  Basis Set: CC-PVTZ
  Basis Set:

  -Total Gradient:
     Atom            X                  Y                   Z
    ------   -----------------  -----------------  -----------------
       1        0.001486202699     0.000030324201     0.000059684889
       2       -0.001989351593     0.000121121801    -0.000397306060
       3        0.000917598266    -0.000424804352     0.001489384324
       4       -0.000006621984     0.000101755066    -0.000026591542
       5       -0.000012015438    -0.000018776548     0.000071791452
       6       -0.000394999981     0.000282024027    -0.001215987521
       7       -0.000029140948    -0.000084919180     0.000052387763
       8        0.000073007207     0.000059779697     0.000063899622
       9       -0.000002140334    -0.000097713032    -0.000023502627
      10       -0.000000986694     0.000029645765    -0.000053678177
      11        0.000010194537     0.000035872177    -0.000010484254
      12       -0.000051745741    -0.000034309620    -0.000009597869

  **** Optimization is complete! (in 7 steps) ****
    Final optimized geometry and variables:
    Molecular point group: c1

    Geometry (in Angstrom), charge = 0, multiplicity = 1:

    H           -0.666147943324     1.765914671155     1.564948538432
    O           -0.636224026959     1.639458410417     0.632542549881
    C           -0.625934683590     0.298372129802     0.313712206662
    C            0.432875487572    -0.453425803776     1.121089231011
    C           -0.431285586691     0.209880961078    -1.198497787122
    H           -1.575223399139    -0.184288391157     0.521066712464
    F            0.237813076489    -0.187885490745     2.401397054763
    F            0.328457789099    -1.748588415966     0.966555881523
    F            1.655275102596    -0.098687830109     0.827574096366
    F           -1.450611336399     0.774167307932    -1.799283874922
    F           -0.380442389338    -1.043862611318    -1.586754587390
    F            0.658406251431     0.806050695125    -1.601947078291

  Mulliken Charges: (a.u.)
   Center  Symbol    Alpha    Beta     Spin     Total
       1     H     0.38375  0.38375  0.00000  0.23251
       2     O     4.18507  4.18507  0.00000 -0.37013
       3     C     2.99713  2.99713  0.00000  0.00573
       4     C     2.68403  2.68403  0.00000  0.63194
       5     C     2.67707  2.67707  0.00000  0.64587
       6     H     0.44511  0.44511  0.00000  0.10978
       7     F     4.61468  4.61468  0.00000 -0.22937
       8     F     4.60228  4.60228  0.00000 -0.20456
       9     F     4.59950  4.59950  0.00000 -0.19901
      10     F     4.60386  4.60386  0.00000 -0.20772
      11     F     4.60615  4.60615  0.00000 -0.21230
      12     F     4.60137  4.60137  0.00000 -0.20275

   Total alpha = 41.00000, Total beta = 41.00000, Total charge = -0.00000
