                              Psi4 1.0.54 Driver

  ==> Input File <==

--------------------------------------------------------------------------
set {
	reference rhf
	basis cc-pvtz
}

set_num_threads( 4 )
memory 2 gb

molecule MOL {
0 1

O	 -2.071633	 -1.227563	 -0.223463
C	 -1.652164	 -0.152425	 0.058082
C	 -0.327811	 0.006324	 0.778296
C	 -2.402515	 1.108629	 -0.298924
C	 0.843231	 -0.001575	 -0.211665
H	 -0.319484	 0.928173	 1.350354
H	 -0.227804	 -0.823091	 1.466705
C	 2.197693	 0.138030	 0.476937
H	 0.722944	 0.805202	 -0.930230
H	 0.813976	 -0.926978	 -0.776588
C	 2.197061	 -0.403145	 1.902521
H	 2.953644	 -0.380701	 -0.106142
H	 2.485396	 1.185236	 0.488145
H	 1.946740	 -1.458621	 1.921060
H	 1.472476	 0.118604	 2.518252
H	 3.169970	 -0.286216	 2.365314
H	 -3.240910	 0.874416	 -0.936711
H	 -1.747554	 1.818823	 -0.790984
H	 -2.760419	 1.579708	 0.610998

	symmetry c1
}
set optking {
	frozen_dihedral = ("
		11 8 5 9
	")
}

ee,wfn = optimize('scf', return_wfn=True)
oeprop( wfn, 'DIPOLE', 'QUADRUPOLE', 'MULLIKEN_CHARGES')
f=open( 'psi4out.xyz', 'w' )
f.write( "19  " )
f.write( str(ee) + "\n" )
f.write( MOL.save_string_xyz() )
f.close()
--------------------------------------------------------------------------

    Molecular point group: c1
  Charge       = 0
  Multiplicity = 1
  Basis Set: CC-PVTZ
  Basis Set:
  @DF-RHF Final Energy:  -309.16844465899879
    Total Energy =                       -309.1684446589987942
    Molecular point group: c1
  Basis Set: CC-PVTZ
  Basis Set:
  Basis Set: CC-PVTZ
  Basis Set:
  @DF-RHF Final Energy:  -309.16189806810257
    Total Energy =                       -309.1618980681021185
  Basis Set: CC-PVTZ
  Basis Set:
  Basis Set: CC-PVTZ
  Basis Set:
  @DF-RHF Final Energy:  -309.17065339924523
    Total Energy =                       -309.1706533992447703
  Basis Set: CC-PVTZ
  Basis Set:
  Basis Set: CC-PVTZ
  Basis Set:
  @DF-RHF Final Energy:  -309.17107137557673
    Total Energy =                       -309.1710713755765028
  Basis Set: CC-PVTZ
  Basis Set:
  @DF-RHF Final Energy:  -309.16991787665586
    Total Energy =                       -309.1699178766563136
  @DF-RHF Final Energy:  -309.17092923208207
    Total Energy =                       -309.1709292320823010
  Basis Set: CC-PVTZ
  Basis Set:
  @DF-RHF Final Energy:  -309.17112625476852
    Total Energy =                       -309.1711262547685806
  Basis Set: CC-PVTZ
  Basis Set:
  Basis Set: CC-PVTZ
  Basis Set:
  @DF-RHF Final Energy:  -309.17112757366749
    Total Energy =                       -309.1711275736672633
  Basis Set: CC-PVTZ
  Basis Set:
  Basis Set: CC-PVTZ
  Basis Set:
  @DF-RHF Final Energy:  -309.17112975821755
    Total Energy =                       -309.1711297582178304
  Basis Set: CC-PVTZ
  Basis Set:
  Charge       = 0
  Multiplicity = 1
  Basis Set: CC-PVTZ
  Basis Set:

    Orbital Energies (a.u.)
    -----------------------

    Doubly Occupied:

       1A    -20.536556     2A    -11.319100     3A    -11.229340
       4A    -11.227165     5A    -11.226968     6A    -11.223724
       7A    -11.213511     8A     -1.396737     9A     -1.090779
      10A     -1.027916    11A     -0.981778    12A     -0.903518
      13A     -0.795953    14A     -0.734809    15A     -0.663492
      16A     -0.653485    17A     -0.624184    18A     -0.604761
      19A     -0.587298    20A     -0.576892    21A     -0.551499
      22A     -0.545422    23A     -0.518661    24A     -0.505381
      25A     -0.482006    26A     -0.467236    27A     -0.463515
      28A     -0.399575

  @DF-RHF Final Energy:  -309.17113028072475

   => Energetics <=

    Nuclear Repulsion Energy =            305.6517260566551499
    One-Electron Energy =               -1024.5431910946495009
    Two-Electron Energy =                 409.7203347572698817
    DFT Exchange-Correlation Energy =       0.0000000000000000
    Empirical Dispersion Energy =           0.0000000000000000
    PCM Polarization Energy =               0.0000000000000000
    EFP Energy =                            0.0000000000000000
    Total Energy =                       -309.1711302807244124
    Molecular point group: c1
  Basis Set: CC-PVTZ
  Basis Set:

  -Total Gradient:
     Atom            X                  Y                   Z
    ------   -----------------  -----------------  -----------------
       1        0.000011213092    -0.000005961500     0.000004630678
       2       -0.000013079477    -0.000002655176     0.000002143323
       3        0.000012579313    -0.000007132227    -0.000013770341
       4       -0.000006537158     0.000012357723     0.000015116068
       5        0.002333461744    -0.001250227368    -0.005233386985
       6       -0.000009364143    -0.000003074589    -0.000006919753
       7       -0.000002706918     0.000001765272     0.000000960350
       8        0.001350285225    -0.004855066320    -0.002549077124
       9       -0.002394400508     0.002378078029     0.005232265030
      10        0.000007723824     0.000005244426     0.000004475285
      11       -0.001297181765     0.003728983614     0.002556346916
      12       -0.000004892364     0.000003012072    -0.000000318991
      13       -0.000004350060    -0.000006415554    -0.000007286224
      14        0.000003437426     0.000005424955     0.000004634202
      15        0.000004313524    -0.000006594531    -0.000001799215
      16       -0.000002812861    -0.000000416068     0.000001374099
      17        0.000005983910    -0.000003431230     0.000005164461
      18        0.000005009903     0.000007518924    -0.000003288762
      19        0.000001317294    -0.000001410452    -0.000011263021

  **** Optimization is complete! (in 10 steps) ****
    Final optimized geometry and variables:
    Molecular point group: c1

    Geometry (in Angstrom), charge = 0, multiplicity = 1:

    O           -1.957311163402    -0.998153423315    -0.771655562391
    C           -1.520045333783    -0.018539018629    -0.261239837557
    C           -0.183479333771    -0.040508749905     0.453616105032
    C           -2.261451796079     1.296465131832    -0.308464288596
    C            0.961041032435     0.150166905516    -0.555477247762
    H           -0.151188486905     0.740376547740     1.206204205229
    H           -0.098600363453    -0.997138280405     0.949047230441
    C            2.371206962080     0.213020151810     0.063162396123
    H            0.777173350698     1.089412323695    -1.067343726833
    H            0.901526532982    -0.645263468891    -1.287490741196
    C            2.589264686429    -0.590847697607     1.342934991412
    H            3.089048959231    -0.099229071333    -0.686906508046
    H            2.604431996031     1.250662028802     0.283703819889
    H            2.372487513272    -1.644501616399     1.201428417760
    H            1.970484957391    -0.230911159890     2.155076538175
    H            3.622440912106    -0.510225190575     1.659964007667
    H           -3.108950649987     1.221793083316    -0.972308533206
    H           -1.605577476474     2.097281447356    -0.630795157499
    H           -2.605470248947     1.546162213522     0.690206099949

  Mulliken Charges: (a.u.)
   Center  Symbol    Alpha    Beta     Spin     Total
       1     O     4.17717  4.17717  0.00000 -0.35434
       2     C     2.85875  2.85875  0.00000  0.28250
       3     C     3.10326  3.10326  0.00000 -0.20653
       4     C     3.15566  3.15566  0.00000 -0.31131
       5     C     3.10352  3.10352  0.00000 -0.20703
       6     H     0.44875  0.44875  0.00000  0.10249
       7     H     0.43665  0.43665  0.00000  0.12671
       8     C     3.08882  3.08882  0.00000 -0.17765
       9     H     0.44947  0.44947  0.00000  0.10106
      10     H     0.43866  0.43866  0.00000  0.12269
      11     C     3.15675  3.15675  0.00000 -0.31350
      12     H     0.44697  0.44697  0.00000  0.10605
      13     H     0.45359  0.45359  0.00000  0.09282
      14     H     0.45058  0.45058  0.00000  0.09884
      15     H     0.45259  0.45259  0.00000  0.09482
      16     H     0.44360  0.44360  0.00000  0.11279
      17     H     0.43571  0.43571  0.00000  0.12858
      18     H     0.45114  0.45114  0.00000  0.09772
      19     H     0.44835  0.44835  0.00000  0.10330

   Total alpha = 28.00000, Total beta = 28.00000, Total charge = -0.00000

*** Psi4 exiting successfully. Buy a developer a beer!
