  ==> Input File <==

--------------------------------------------------------------------------
set {
	reference rhf
	basis cc-pvtz
}

set_num_threads( 4 )
memory 2 gb

molecule MOL {
0 1

H	 -1.088256	 -1.364742	 0.152233
O	 -1.432053	 -0.565244	 -0.200812
C	 -0.727158	 0.534527	 0.310686
C	 0.680222	 0.664433	 -0.252229
H	 -1.306802	 1.408001	 0.044211
H	 -0.690821	 0.490158	 1.397609
C	 0.792685	 0.293849	 -1.728056
H	 1.019974	 1.684063	 -0.103386
H	 1.335105	 0.023709	 0.331937
H	 0.197351	 0.952718	 -2.350626
H	 1.817540	 0.370810	 -2.070550
H	 0.462410	 -0.725405	 -1.904114

	symmetry c1
}
set optking {
	frozen_dihedral = ("
		8 4 3 2
	")
}

ee = optimize('scf')
oeprop('DIPOLE', 'QUADRUPOLE', 'MULLIKEN_CHARGES')
f=open( 'psi4out.xyz', 'w' )
f.write( "12  " )
f.write( str(ee) + "\n" )
f.write( MOL.save_string_xyz() )
f.close()
--------------------------------------------------------------------------

    Molecular point group: c1
  Charge       = 0
  Multiplicity = 1
  Basis Set: CC-PVTZ
  Basis Set:
  @DF-RHF Final Energy:  -193.18794336450435
    Total Energy =                       -193.1879433645042354
    Molecular point group: c1
  Basis Set: CC-PVTZ
  Basis Set:
  Basis Set: CC-PVTZ
  Basis Set:
  @DF-RHF Final Energy:  -193.18851969238742
    Total Energy =                       -193.1885196923875583
  Basis Set: CC-PVTZ
  Basis Set:
  Basis Set: CC-PVTZ
  Basis Set:
  @DF-RHF Final Energy:  -193.18865125155347
    Total Energy =                       -193.1886512515534946
  Basis Set: CC-PVTZ
  Basis Set:
  Basis Set: CC-PVTZ
  Basis Set:
  @DF-RHF Final Energy:  -193.18865606834063
    Total Energy =                       -193.1886560683407765
  Basis Set: CC-PVTZ
  Basis Set:
  Charge       = 0
  Multiplicity = 1
  Basis Set: CC-PVTZ
  Basis Set:

    Orbital Energies (a.u.)
    -----------------------

    Doubly Occupied:

       1A    -20.547289     2A    -11.266257     3A    -11.217316
       4A    -11.205525     5A     -1.364938     6A     -1.047838
       7A     -0.923475     8A     -0.811310     9A     -0.684397
      10A     -0.639680    11A     -0.626028    12A     -0.569940
      13A     -0.528601    14A     -0.515340    15A     -0.486165
      16A     -0.465790    17A     -0.434226

  @DF-RHF Final Energy:  -193.18865642623393

   => Energetics <=

    Nuclear Repulsion Energy =            133.5351569964365126
    One-Electron Energy =                -526.7793969831643608
    Two-Electron Energy =                 200.0555835604938011
    DFT Exchange-Correlation Energy =       0.0000000000000000
    Empirical Dispersion Energy =           0.0000000000000000
    PCM Polarization Energy =               0.0000000000000000
    EFP Energy =                            0.0000000000000000
    Total Energy =                       -193.1886564262340471
    Molecular point group: c1
  Basis Set: CC-PVTZ
  Basis Set:

  -Total Gradient:
     Atom            X                  Y                   Z
    ------   -----------------  -----------------  -----------------
       1       -0.000009081178    -0.000006280521    -0.000001432141
       2       -0.001401133996     0.002357664729    -0.003234865909
       3        0.001523285378    -0.002989870565     0.003449702929
       4        0.001793487925    -0.000634892252     0.004569856310
       5        0.000011682127     0.000021293167     0.000012217487
       6       -0.000015162394    -0.000029970317    -0.000012577823
       7        0.000026134814     0.000014449494    -0.000012059280
       8       -0.001897121307     0.001261681811    -0.004776062212
       9       -0.000009016989     0.000003443478     0.000003063011
      10       -0.000006389197     0.000005656214    -0.000010451849
      11       -0.000014619373     0.000001138305    -0.000006738349
      12       -0.000002065809    -0.000004313543     0.000019347826

  **** Optimization is complete! (in 5 steps) ****
    Final optimized geometry and variables:
    Molecular point group: c1

    Geometry (in Angstrom), charge = 0, multiplicity = 1:

    H           -0.902977094562    -1.553383277488     0.621551101623
    O           -1.254190280769    -0.750722983272     0.280419479170
    C           -0.521579009346     0.344090997471     0.761981112645
    C            0.901673996717     0.435880895192     0.214428883062
    H           -1.080441961289     1.215744508042     0.445767739243
    H           -0.505487635437     0.350206550088     1.848377061595
    C            1.004937775500     0.107268402710    -1.273466388753
    H            1.236747217284     1.459812121809     0.351422325619
    H            1.569981512900    -0.206716943457     0.780689209989
    H            0.347598683508     0.742077677948    -1.857680725878
    H            2.018237243977     0.261203331727    -1.626188474602
    H            0.729904104078    -0.918643636175    -1.477399286010

  Mulliken Charges: (a.u.)
   Center  Symbol    Alpha    Beta     Spin     Total
       1     H     0.39495  0.39495  0.00000  0.21009
       2     O     4.20173  4.20173  0.00000 -0.40346
       3     C     2.97741  2.97741  0.00000  0.04518
       4     C     3.10100  3.10100  0.00000 -0.20201
       5     H     0.45746  0.45746  0.00000  0.08509
       6     H     0.46159  0.46159  0.00000  0.07681
       7     C     3.13720  3.13720  0.00000 -0.27439
       8     H     0.45441  0.45441  0.00000  0.09118
       9     H     0.45454  0.45454  0.00000  0.09091
      10     H     0.45473  0.45473  0.00000  0.09053
      11     H     0.45109  0.45109  0.00000  0.09781
      12     H     0.45387  0.45387  0.00000  0.09226

   Total alpha = 17.00000, Total beta = 17.00000, Total charge = -0.00000
