  ==> Input File <==

--------------------------------------------------------------------------
set {
	reference rhf
	basis 6-31G*
}

set_num_threads( 4 )
memory 2 gb

molecule MOL {
0 1

H	 -0.367348	 2.047014	 -0.308205
C	 0.352277	 1.337084	 0.083769
N	 -0.000016	 0.000074	 -0.335546
H	 1.328359	 1.600444	 -0.307950
H	 0.381933	 1.450534	 1.172486
C	 -1.426502	 -0.153220	 -0.508480
C	 0.733416	 -0.407935	 -1.511880
H	 -1.658652	 -1.183653	 -0.752744
H	 -1.937651	 0.094149	 0.415099
H	 -1.832491	 0.483079	 -1.301689
H	 1.798831	 -0.346675	 -1.320797
H	 0.496597	 -1.437803	 -1.754217
H	 0.510747	 0.206988	 -2.390068

	symmetry c1
}
set optking {
	frozen_dihedral = ("
		6 3 2 1
	")
}

ee = optimize('scf')
oeprop('DIPOLE', 'QUADRUPOLE', 'MULLIKEN_CHARGES')
f=open( 'psi4out.xyz', 'w' )
f.write( "13  " )
f.write( str(ee) + "\n" )
f.write( MOL.save_string_xyz() )
f.close()
--------------------------------------------------------------------------

    Molecular point group: c1
  Charge       = 0
  Multiplicity = 1
  Basis Set: 6-31G*
  Basis Set:
  @DF-RHF Final Energy:  -173.26421232032101
    Total Energy =                       -173.2642123203210360
    Molecular point group: c1
  Basis Set: 6-31G*
  Basis Set:
  Basis Set: 6-31G*
  Basis Set:
  @DF-RHF Final Energy:  -173.26507887868428
    Total Energy =                       -173.2650788786842213
  Basis Set: 6-31G*
  Basis Set:
  Basis Set: 6-31G*
  Basis Set:
  @DF-RHF Final Energy:  -173.26519939930131
    Total Energy =                       -173.2651993993013093
  Basis Set: 6-31G*
  Basis Set:
  Basis Set: 6-31G*
  Basis Set:
  @DF-RHF Final Energy:  -173.26520405598029
    Total Energy =                       -173.2652040559803481
  Basis Set: 6-31G*
  Basis Set:
  Charge       = 0
  Multiplicity = 1
  Basis Set: 6-31G*
  Basis Set:

    Orbital Energies (a.u.)
    -----------------------

    Doubly Occupied:

       1A    -15.542980     2A    -11.235554     3A    -11.235509
       4A    -11.235485     5A     -1.222467     6A     -0.951390
       7A     -0.949944     8A     -0.807485     9A     -0.639162
      10A     -0.629994    11A     -0.627641    12A     -0.549466
      13A     -0.543498    14A     -0.516483    15A     -0.499890
      16A     -0.498478    17A     -0.345667

  @DF-RHF Final Energy:  -173.26520447284932

   => Energetics <=

    Nuclear Repulsion Energy =            139.0891321122521447
    One-Electron Energy =                -508.6464893178045372
    Two-Electron Energy =                 196.2921527327031299
    DFT Exchange-Correlation Energy =       0.0000000000000000
    Empirical Dispersion Energy =           0.0000000000000000
    PCM Polarization Energy =               0.0000000000000000
    EFP Energy =                            0.0000000000000000
    Total Energy =                       -173.2652044728492911
    Molecular point group: c1
  Basis Set: 6-31G*
  Basis Set:

  -Total Gradient:
     Atom            X                  Y                   Z
    ------   -----------------  -----------------  -----------------
       1       -0.003148592509    -0.000609579156     0.004644326611
       2        0.004191021229     0.001214753055    -0.007494971110
       3       -0.001397756272    -0.001739964136     0.006822964390
       4       -0.000019325195    -0.000026057882    -0.000001522113
       5       -0.000001568813     0.000001333625     0.000022131441
       6        0.000386417332     0.001152900915    -0.004014165441
       7        0.000002596139     0.000014785324     0.000063160413
       8       -0.000003814247    -0.000005897093    -0.000002965435
       9       -0.000023272314    -0.000004744173     0.000001338384
      10        0.000005063149     0.000005276048    -0.000009970135
      11        0.000012493512    -0.000004165052    -0.000021105039
      12        0.000001667436    -0.000003265283    -0.000003365469
      13       -0.000004929447     0.000004623807    -0.000005856499

  **** Optimization is complete! (in 5 steps) ****
    Final optimized geometry and variables:
    Molecular point group: c1

    Geometry (in Angstrom), charge = 0, multiplicity = 1:

    H           -0.264368528751     1.888277795849     0.287728772502
    C            0.439659783477     1.144715837437     0.665114484209
    N            0.100237356589    -0.207619475741     0.253100271837
    H            1.438301237134     1.407450191214     0.341290077853
    H            0.412822755388     1.217516906913     1.748912110046
    C           -1.326560352883    -0.368248177695     0.081542113819
    C            0.813255240712    -0.620762353720    -0.937815688210
    H           -1.559479492627    -1.405279549037    -0.132161915613
    H           -1.841614257136    -0.094532871088     0.996131614491
    H           -1.727551017431     0.247364460225    -0.729555361669
    H            1.882018519839    -0.567545784496    -0.766329486375
    H            0.566408974966    -1.650648252824    -1.170114366522
    H            0.577611178305    -0.011821582212    -1.816466736502

  Mulliken Charges: (a.u.)
   Center  Symbol    Alpha    Beta     Spin     Total
       1     H     0.43019  0.43019  0.00000  0.13962
       2     C     3.14476  3.14476  0.00000 -0.28951
       3     N     3.76618  3.76618  0.00000 -0.53236
       4     H     0.41843  0.41843  0.00000  0.16314
       5     H     0.41551  0.41551  0.00000  0.16898
       6     C     3.14451  3.14451  0.00000 -0.28902
       7     C     3.14359  3.14359  0.00000 -0.28718
       8     H     0.41676  0.41676  0.00000  0.16647
       9     H     0.41638  0.41638  0.00000  0.16723
      10     H     0.43452  0.43452  0.00000  0.13095
      11     H     0.41641  0.41641  0.00000  0.16719
      12     H     0.41746  0.41746  0.00000  0.16508
      13     H     0.43530  0.43530  0.00000  0.12940

   Total alpha = 17.00000, Total beta = 17.00000, Total charge =  0.00000
