  ==> Input File <==

--------------------------------------------------------------------------
set {
	reference rhf
	basis 6-31G*
}

set_num_threads( 1 )
memory 2 gb

molecule MOL {
0 1

H	 -4.197801	 0.674835	 -0.243080
O	 -3.494001	 0.055677	 -0.374277
C	 -2.281575	 0.621280	 0.053163
C	 -1.177863	 -0.397191	 -0.171080
H	 -2.066755	 1.532610	 -0.503289
H	 -2.334018	 0.888007	 1.107889
C	 0.198102	 0.111031	 0.262842
H	 -1.164498	 -0.660293	 -1.225275
H	 -1.432207	 -1.302408	 0.373317
C	 1.331804	 -0.827780	 -0.158768
H	 0.361943	 1.100838	 -0.156218
H	 0.217265	 0.229072	 1.345532
C	 2.723619	 -0.410569	 0.329459
H	 1.342964	 -0.912588	 -1.244120
H	 1.116806	 -1.824343	 0.220779
C	 3.243875	 0.895854	 -0.272975
H	 3.424222	 -1.207124	 0.091250
H	 2.714788	 -0.329854	 1.414619
H	 3.251977	 0.848779	 -1.358681
H	 2.637085	 1.747371	 0.016682
H	 4.259473	 1.094070	 0.055697

	symmetry c1
}
set optking {
	frozen_dihedral = ("
		2 3 4 8,
		4 7 10 14,
		16 13 10 14,
		1 2 3 5
	")
}

ee = energy('scf')
oeprop('DIPOLE', 'QUADRUPOLE', 'MULLIKEN_CHARGES')
f=open( 'psi4out.xyz', 'w' )
f.write( "21  " )
f.write( str(ee) + "\n" )
f.write( MOL.save_string_xyz() )
f.close()
--------------------------------------------------------------------------

    Molecular point group: c1

    Geometry (in Angstrom), charge = 0, multiplicity = 1:

       Center              X                  Y                   Z               Mass
    ------------   -----------------  -----------------  -----------------  -----------------
           H         -4.205285173869     0.648433374218    -0.188424647900     1.007825032070
           O         -3.501485173869     0.029275374218    -0.319621647900    15.994914619560
           C         -2.289059173869     0.594878374218     0.107818352100    12.000000000000
           C         -1.185347173869    -0.423592625782    -0.116424647900    12.000000000000
           H         -2.074239173869     1.506208374218    -0.448633647900     1.007825032070
           H         -2.341502173869     0.861605374218     1.162544352100     1.007825032070
           C          0.190617826131     0.084629374218     0.317497352100    12.000000000000
           H         -1.171982173869    -0.686694625782    -1.170619647900     1.007825032070
           H         -1.439691173869    -1.328809625782     0.427972352100     1.007825032070
           C          1.324319826131    -0.854181625782    -0.104112647900    12.000000000000
           H          0.354458826131     1.074436374218    -0.101562647900     1.007825032070
           H          0.209780826131     0.202670374218     1.400187352100     1.007825032070
           C          2.716134826131    -0.436970625782     0.384114352100    12.000000000000
           H          1.335479826131    -0.938989625782    -1.189464647900     1.007825032070
           H          1.109321826131    -1.850744625782     0.275434352100     1.007825032070
           C          3.236390826131     0.869452374218    -0.218319647900    12.000000000000
           H          3.416737826131    -1.233525625782     0.145905352100     1.007825032070
           H          2.707303826131    -0.356255625782     1.469274352100     1.007825032070
           H          3.244492826131     0.822377374218    -1.304025647900     1.007825032070
           H          2.629600826131     1.720969374218     0.071337352100     1.007825032070
           H          4.251988826131     1.067668374218     0.110352352100     1.007825032070

  Charge       = 0
  Multiplicity = 1
  Basis Set: 6-31G*
  Basis Set:

    Orbital Energies (a.u.)
    -----------------------

    Doubly Occupied:

       1A    -20.551836     2A    -11.267083     3A    -11.215631
       4A    -11.215130     5A    -11.213625     6A    -11.210599
       7A    -11.208250     8A     -1.358668     9A     -1.086267
      10A     -1.033206    11A     -0.954428    12A     -0.875645
      13A     -0.807321    14A     -0.779076    15A     -0.692505
      16A     -0.660777    17A     -0.623051    18A     -0.607170
      19A     -0.584994    20A     -0.571697    21A     -0.534134
      22A     -0.521175    23A     -0.511466    24A     -0.484973
      25A     -0.480724    26A     -0.460893    27A     -0.455660
      28A     -0.443095    29A     -0.433924

  @DF-RHF Final Energy:  -310.21259003667330

   => Energetics <=

    Nuclear Repulsion Energy =            312.5494497249350161
    One-Electron Energy =               -1039.8381496801098365
    Two-Electron Energy =                 417.0761099185009471
    DFT Exchange-Correlation Energy =       0.0000000000000000
    Empirical Dispersion Energy =           0.0000000000000000
    PCM Polarization Energy =               0.0000000000000000
    EFP Energy =                            0.0000000000000000
    Total Energy =                       -310.2125900366738733

  Mulliken Charges: (a.u.)
   Center  Symbol    Alpha    Beta     Spin     Total
       1     H     0.28118  0.28118  0.00000  0.43763
       2     O     4.37177  4.37177  0.00000 -0.74354
       3     C     2.99003  2.99003  0.00000  0.01995
       4     C     3.15900  3.15900  0.00000 -0.31800
       5     H     0.43281  0.43281  0.00000  0.13438
       6     H     0.43293  0.43293  0.00000  0.13414
       7     C     3.16190  3.16190  0.00000 -0.32380
       8     H     0.41487  0.41487  0.00000  0.17027
       9     H     0.41445  0.41445  0.00000  0.17111
      10     C     3.15201  3.15201  0.00000 -0.30401
      11     H     0.42220  0.42220  0.00000  0.15560
      12     H     0.42323  0.42323  0.00000  0.15355
      13     C     3.15258  3.15258  0.00000 -0.30517
      14     H     0.42301  0.42301  0.00000  0.15399
      15     H     0.42088  0.42088  0.00000  0.15824
      16     C     3.24116  3.24116  0.00000 -0.48231
      17     H     0.42062  0.42062  0.00000  0.15876
      18     H     0.42350  0.42350  0.00000  0.15300
      19     H     0.42202  0.42202  0.00000  0.15596
      20     H     0.42065  0.42065  0.00000  0.15870
      21     H     0.41921  0.41921  0.00000  0.16157

   Total alpha = 29.00000, Total beta = 29.00000, Total charge =  0.00000
