                              Psi4 1.0.54 Driver

  ==> Input File <==

--------------------------------------------------------------------------
set {
	reference rhf
	basis cc-pvtz
}

set_num_threads( 4 )
memory 2 gb

molecule MOL {
0 1

H	 -0.490026	 -1.644034	 -0.002752
N	 -0.625934	 -0.663929	 -0.000707
C	 -1.978635	 -0.158664	 0.001017
C	 0.468496	 0.129037	 0.002276
H	 -2.519057	 -0.493535	 -0.876362
H	 -1.938890	 0.917202	 -0.004137
H	 -2.514266	 -0.485137	 0.884506
C	 1.785711	 -0.615116	 0.004108
O	 0.413286	 1.323180	 0.009301
H	 1.868201	 -1.240082	 -0.877487
H	 2.591494	 0.100208	 0.013679
H	 1.859146	 -1.253609	 0.876778

	symmetry c1
}
set optking {
	frozen_dihedral = ("
		4 2 3 5
	")
}

ee,wfn = optimize('scf', return_wfn=True)
oeprop( wfn, 'DIPOLE', 'QUADRUPOLE', 'MULLIKEN_CHARGES')
f=open( 'psi4out.xyz', 'w' )
f.write( "12  " )
f.write( str(ee) + "\n" )
f.write( MOL.save_string_xyz() )
f.close()
--------------------------------------------------------------------------

    Molecular point group: c1
  Charge       = 0
  Multiplicity = 1
  Basis Set: CC-PVTZ
  Basis Set:
  @DF-RHF Final Energy:  -247.10098506405757
    Total Energy =                       -247.1009850640575678
    Molecular point group: c1
  Basis Set: CC-PVTZ
  Basis Set:
  Basis Set: CC-PVTZ
  Basis Set:
  @DF-RHF Final Energy:  -247.10093576908176
    Total Energy =                       -247.1009357690816728
  Basis Set: CC-PVTZ
  Basis Set:
  Charge       = 0
  Multiplicity = 1
  Basis Set: CC-PVTZ
  Basis Set:

    Orbital Energies (a.u.)
    -----------------------

    Doubly Occupied:

       1A    -20.506607     2A    -15.574929     3A    -11.336947
       4A    -11.252400     5A    -11.228105     6A     -1.388399
       7A     -1.231032     8A     -1.016688     9A     -0.932876
      10A     -0.788217    11A     -0.690978    12A     -0.651696
      13A     -0.635335    14A     -0.586892    15A     -0.582919
      16A     -0.555557    17A     -0.544811    18A     -0.511422
      19A     -0.417218    20A     -0.389315

  @DF-RHF Final Energy:  -247.10098774565131

   => Energetics <=

    Nuclear Repulsion Energy =            181.6310705892008173
    One-Electron Energy =                -695.8194338771102139
    Two-Electron Energy =                 267.0873755422582576
    DFT Exchange-Correlation Energy =       0.0000000000000000
    Empirical Dispersion Energy =           0.0000000000000000
    PCM Polarization Energy =               0.0000000000000000
    EFP Energy =                            0.0000000000000000
    Total Energy =                       -247.1009877456511390
    Molecular point group: c1
  Basis Set: CC-PVTZ
  Basis Set:

  -Total Gradient:
     Atom            X                  Y                   Z
    ------   -----------------  -----------------  -----------------
       1        0.000002636116    -0.000005436298    -0.000005692366
       2        0.000021894850     0.000031750186     0.000005112503
       3       -0.000032726098     0.000012507560     0.000009841607
       4       -0.000016162125    -0.000203211761    -0.000000152225
       5        0.000001973129    -0.000002065713    -0.000010744504
       6       -0.000000381389     0.000008133412    -0.000001172724
       7       -0.000012472421    -0.000002629337     0.000007335579
       8        0.000026594461     0.000011524457    -0.000003769015
       9       -0.000034053584     0.000174433741    -0.000002373535
      10        0.000008778234    -0.000016675425    -0.000020703257
      11        0.000026219774     0.000006582018    -0.000000092230
      12        0.000007699052    -0.000014912837     0.000022410168

  **** Optimization is complete! (in 3 steps) ****
    Final optimized geometry and variables:
    Molecular point group: c1

    Geometry (in Angstrom), charge = 0, multiplicity = 1:

    H           -0.489982686790    -1.644157767205    -0.005576661185
    N           -0.625974854234    -0.663971412366    -0.003422575631
    C           -1.978603786657    -0.158555333723    -0.003212007461
    C            0.468569931135     0.129034214966     0.001263069294
    H           -2.517887767489    -0.493080931687    -0.881476660799
    H           -1.938997474306     0.917429714429    -0.008044873572
    H           -2.515769429902    -0.485062998829     0.879435513744
    C            1.786168776408    -0.615121759944     0.000109257932
    O            0.412826771406     1.323153338730     0.005432243006
    H            1.866869816927    -1.240083877748    -0.881748907399
    H            2.592029637814     0.100282103106     0.007977790118
    H            1.861500147837    -1.253626225995     0.872679382534

  Mulliken Charges: (a.u.)
   Center  Symbol    Alpha    Beta     Spin     Total
       1     H     0.41027  0.41027  0.00000  0.17946
       2     N     3.62195  3.62195  0.00000 -0.24390
       3     C     3.08602  3.08602  0.00000 -0.17204
       4     C     2.83655  2.83655  0.00000  0.32690
       5     H     0.45567  0.45567  0.00000  0.08866
       6     H     0.43100  0.43100  0.00000  0.13800
       7     H     0.45572  0.45572  0.00000  0.08856
       8     C     3.15346  3.15346  0.00000 -0.30692
       9     O     4.21567  4.21567  0.00000 -0.43133
      10     H     0.44999  0.44999  0.00000  0.10002
      11     H     0.43353  0.43353  0.00000  0.13295
      12     H     0.45017  0.45017  0.00000  0.09966

   Total alpha = 20.00000, Total beta = 20.00000, Total charge = -0.00000

*** Psi4 exiting successfully. Buy a developer a beer!
