  ==> Input File <==

--------------------------------------------------------------------------
set {
	reference rhf
	basis 6-31G*
}

set_num_threads( 1 )
memory 2 gb

molecule MOL {
0 1

O	 -2.323531	 1.364012	 -0.276951
C	 -2.105580	 0.205039	 -0.093339
C	 -0.888888	 -0.465064	 -0.707285
C	 -3.003540	 -0.643120	 0.779397
C	 0.379448	 -0.143569	 0.099626
H	 -0.780231	 -0.087037	 -1.718024
H	 -1.031628	 -1.540553	 -0.761837
C	 1.631333	 -0.777471	 -0.511575
H	 0.483460	 0.934367	 0.150804
H	 0.262134	 -0.497032	 1.122880
C	 2.915987	 -0.544314	 0.291766
H	 1.766672	 -0.399098	 -1.523130
H	 1.471257	 -1.849544	 -0.605828
C	 3.373361	 0.914346	 0.347591
H	 3.708709	 -1.142521	 -0.150311
H	 2.780642	 -0.921148	 1.303579
H	 3.506512	 1.320010	 -0.651625
H	 4.322697	 0.999599	 0.867103
H	 2.660624	 1.545032	 0.868198
H	 -3.497480	 -1.396795	 0.171728
H	 -3.748669	 -0.022591	 1.257427
H	 -2.423013	 -1.168867	 1.531981

	symmetry c1
}
set optking {
	frozen_dihedral = ("
		6 3 2 1,
		6 3 5 8,
		12 8 11 15
	")
}

ee = energy('scf')
oeprop('DIPOLE', 'QUADRUPOLE', 'MULLIKEN_CHARGES')
f=open( 'psi4out.xyz', 'w' )
f.write( "22  " )
f.write( str(ee) + "\n" )
f.write( MOL.save_string_xyz() )
f.close()
--------------------------------------------------------------------------

    Molecular point group: c1

    Geometry (in Angstrom), charge = 0, multiplicity = 1:

       Center              X                  Y                   Z               Mass
    ------------   -----------------  -----------------  -----------------  -----------------
           O         -2.323676941144     1.363063995892    -0.276266425611    15.994914619560
           C         -2.105725941144     0.204090995892    -0.092654425611    12.000000000000
           C         -0.889033941144    -0.466012004108    -0.706600425611    12.000000000000
           C         -3.003685941144    -0.644068004108     0.780081574389    12.000000000000
           C          0.379302058856    -0.144517004108     0.100310574389    12.000000000000
           H         -0.780376941144    -0.087985004108    -1.717339425611     1.007825032070
           H         -1.031773941144    -1.541501004108    -0.761152425611     1.007825032070
           C          1.631187058856    -0.778419004108    -0.510890425611    12.000000000000
           H          0.483314058856     0.933418995892     0.151488574389     1.007825032070
           H          0.261988058856    -0.497980004108     1.123564574389     1.007825032070
           C          2.915841058856    -0.545262004108     0.292450574389    12.000000000000
           H          1.766526058856    -0.400046004108    -1.522445425611     1.007825032070
           H          1.471111058856    -1.850492004108    -0.605143425611     1.007825032070
           C          3.373215058856     0.913397995892     0.348275574389    12.000000000000
           H          3.708563058856    -1.143469004108    -0.149626425611     1.007825032070
           H          2.780496058856    -0.922096004108     1.304263574389     1.007825032070
           H          3.506366058856     1.319061995892    -0.650940425611     1.007825032070
           H          4.322551058856     0.998650995892     0.867787574389     1.007825032070
           H          2.660478058856     1.544083995892     0.868882574389     1.007825032070
           H         -3.497625941144    -1.397743004108     0.172412574389     1.007825032070
           H         -3.748814941144    -0.023539004108     1.258111574389     1.007825032070
           H         -2.423158941144    -1.169815004108     1.532665574389     1.007825032070

  Charge       = 0
  Multiplicity = 1
  Basis Set: 6-31G*
  Basis Set:

    Orbital Energies (a.u.)
    -----------------------

    Doubly Occupied:

       1A    -20.547325     2A    -11.324496     3A    -11.229573
       4A    -11.228996     5A    -11.228227     6A    -11.222371
       7A    -11.220635     8A    -11.211080     9A     -1.393083
      10A     -1.095644    11A     -1.044244    12A     -0.999492
      13A     -0.937685    14A     -0.857606    15A     -0.786473
      16A     -0.732921    17A     -0.662759    18A     -0.643705
      19A     -0.625925    20A     -0.620686    21A     -0.596732
      22A     -0.583051    23A     -0.562829    24A     -0.541163
      25A     -0.534483    26A     -0.519374    27A     -0.497832
      28A     -0.488020    29A     -0.470783    30A     -0.464128
      31A     -0.459725    32A     -0.396250

  @DF-RHF Final Energy:  -348.09833227223260

   => Energetics <=

    Nuclear Repulsion Energy =            372.9722939607219132
    One-Electron Energy =               -1210.6862964893048229
    Two-Electron Energy =                 489.6156702563509953
    DFT Exchange-Correlation Energy =       0.0000000000000000
    Empirical Dispersion Energy =           0.0000000000000000
    PCM Polarization Energy =               0.0000000000000000
    EFP Energy =                            0.0000000000000000
    Total Energy =                       -348.0983322722319144

  Mulliken Charges: (a.u.)
   Center  Symbol    Alpha    Beta     Spin     Total
       1     O     4.26245  4.26245  0.00000 -0.52491
       2     C     2.73718  2.73718  0.00000  0.52565
       3     C     3.19957  3.19957  0.00000 -0.39913
       4     C     3.28953  3.28953  0.00000 -0.57906
       5     C     3.16404  3.16404  0.00000 -0.32808
       6     H     0.40120  0.40120  0.00000  0.19761
       7     H     0.41702  0.41702  0.00000  0.16597
       8     C     3.15260  3.15260  0.00000 -0.30520
       9     H     0.40356  0.40356  0.00000  0.19287
      10     H     0.42138  0.42138  0.00000  0.15725
      11     C     3.15333  3.15333  0.00000 -0.30666
      12     H     0.42060  0.42060  0.00000  0.15879
      13     H     0.42193  0.42193  0.00000  0.15614
      14     C     3.24207  3.24207  0.00000 -0.48414
      15     H     0.41956  0.41956  0.00000  0.16089
      16     H     0.42301  0.42301  0.00000  0.15399
      17     H     0.42074  0.42074  0.00000  0.15851
      18     H     0.41825  0.41825  0.00000  0.16349
      19     H     0.41830  0.41830  0.00000  0.16341
      20     H     0.40691  0.40691  0.00000  0.18618
      21     H     0.39708  0.39708  0.00000  0.20584
      22     H     0.40970  0.40970  0.00000  0.18059

   Total alpha = 32.00000, Total beta = 32.00000, Total charge =  0.00000
