                              Psi4 1.0.54 Driver

  ==> Input File <==

--------------------------------------------------------------------------
set {
	reference rhf
	basis cc-pvtz
}

set_num_threads( 4 )
memory 2 gb

molecule MOL {
0 1

H	 -2.877032	 1.807640	 -1.071767
O	 -2.670061	 2.126204	 -0.211457
C	 -1.300350	 2.005328	 0.018554
C	 -0.793473	 0.591216	 0.050087
H	 -1.107561	 2.474673	 0.976077
H	 -0.731918	 2.565969	 -0.721221
C	 -1.534243	 -0.493009	 -0.013340
H	 0.276915	 0.499791	 0.134701
H	 -1.101195	 -1.466332	 -0.144046
H	 -2.604242	 -0.437780	 0.050785

	symmetry c1
}
set optking {
	frozen_dihedral = ("
		3 4 7 9
	")
}

ee,wfn = optimize('scf', return_wfn=True)
oeprop( wfn, 'DIPOLE', 'QUADRUPOLE', 'MULLIKEN_CHARGES')
f=open( 'psi4out.xyz', 'w' )
f.write( "10  " )
f.write( str(ee) + "\n" )
f.write( MOL.save_string_xyz() )
f.close()
--------------------------------------------------------------------------

    Molecular point group: c1
  Charge       = 0
  Multiplicity = 1
  Basis Set: CC-PVTZ
  Basis Set:
  @DF-RHF Final Energy:  -191.99690839243164
    Total Energy =                       -191.9969083924315782
    Molecular point group: c1
  Basis Set: CC-PVTZ
  Basis Set:
  Basis Set: CC-PVTZ
  Basis Set:
  @DF-RHF Final Energy:  -191.99758042769545
    Total Energy =                       -191.9975804276953681
  Basis Set: CC-PVTZ
  Basis Set:
  Basis Set: CC-PVTZ
  Basis Set:
  @DF-RHF Final Energy:  -191.99790131088878
    Total Energy =                       -191.9979013108888637
  Basis Set: CC-PVTZ
  Basis Set:
  Basis Set: CC-PVTZ
  Basis Set:
  @DF-RHF Final Energy:  -191.99790457370244
    Total Energy =                       -191.9979045737026127
  Basis Set: CC-PVTZ
  Basis Set:
  Charge       = 0
  Multiplicity = 1
  Basis Set: CC-PVTZ
  Basis Set:

    Orbital Energies (a.u.)
    -----------------------

    Doubly Occupied:

       1A    -20.554576     2A    -11.278540     3A    -11.231202
       4A    -11.217193     5A     -1.375173     6A     -1.062610
       7A     -0.932810     8A     -0.772148     9A     -0.692940
      10A     -0.665531    11A     -0.621192    12A     -0.574665
      13A     -0.539846    14A     -0.498461    15A     -0.452244
      16A     -0.369031

  @DF-RHF Final Energy:  -191.99790504867224

   => Energetics <=

    Nuclear Repulsion Energy =            119.5497056834945937
    One-Electron Energy =                -497.4188953884338957
    Two-Electron Energy =                 185.8712846562671075
    DFT Exchange-Correlation Energy =       0.0000000000000000
    Empirical Dispersion Energy =           0.0000000000000000
    PCM Polarization Energy =               0.0000000000000000
    EFP Energy =                            0.0000000000000000
    Total Energy =                       -191.9979050486721803
    Molecular point group: c1
  Basis Set: CC-PVTZ
  Basis Set:

  -Total Gradient:
     Atom            X                  Y                   Z
    ------   -----------------  -----------------  -----------------
       1        0.000002824612    -0.000008405199    -0.000003716869
       2        0.000006913751     0.000026334420     0.000007829660
       3        0.000554902980     0.000010088042    -0.004717295745
       4       -0.001009409342     0.000227554001     0.005098761639
       5       -0.000007225105     0.000008806456     0.000006461459
       6       -0.000002673466     0.000000245928    -0.000002888960
       7        0.000639571349    -0.000909949932     0.005915783138
       8        0.000008794729    -0.000000653482     0.000059840362
       9       -0.000153694991     0.000645767818    -0.006340929585
      10       -0.000040004517     0.000000211949    -0.000023845100

  **** Optimization is complete! (in 5 steps) ****
    Final optimized geometry and variables:
    Molecular point group: c1

    Geometry (in Angstrom), charge = 0, multiplicity = 1:

    H           -1.266740881332     0.663616149885    -0.981719007360
    O           -1.042064046631     1.014627921551    -0.138640273267
    C            0.330006727995     0.890244521279     0.072088213091
    C            0.830426567581    -0.525651253013     0.127747652613
    H            0.542644140602     1.394959531611     1.007231493208
    H            0.891165729907     1.416246887960    -0.698046370336
    C            0.091694240161    -1.609378709822     0.034213156421
    H            1.903097436880    -0.618358670471     0.175659711179
    H            0.538888460251    -2.578938183506    -0.075623742323
    H           -0.979610317179    -1.558960127273    -0.013961948883

  Mulliken Charges: (a.u.)
   Center  Symbol    Alpha    Beta     Spin     Total
       1     H     0.39110  0.39110  0.00000  0.21779
       2     O     4.19932  4.19932  0.00000 -0.39865
       3     C     2.94962  2.94962  0.00000  0.10075
       4     C     3.08338  3.08338  0.00000 -0.16677
       5     H     0.45349  0.45349  0.00000  0.09303
       6     H     0.46893  0.46893  0.00000  0.06214
       7     C     3.17743  3.17743  0.00000 -0.35486
       8     H     0.42359  0.42359  0.00000  0.15281
       9     H     0.42802  0.42802  0.00000  0.14397
      10     H     0.42511  0.42511  0.00000  0.14978

   Total alpha = 16.00000, Total beta = 16.00000, Total charge = -0.00000

*** Psi4 exiting successfully. Buy a developer a beer!
