                              Psi4 1.0.54 Driver

  ==> Input File <==

--------------------------------------------------------------------------
set {
	reference rhf
	basis cc-pvtz
}

set_num_threads( 4 )
memory 2 gb

molecule MOL {
0 1

H	 3.889604	 0.356866	 -0.089510
N	 3.091268	 -0.241216	 -0.065538
C	 1.860978	 0.530248	 0.016256
H	 3.192566	 -0.835836	 0.730398
C	 0.644130	 -0.381765	 -0.031064
H	 1.835721	 1.204666	 -0.833114
H	 1.808789	 1.151975	 0.911067
C	 -0.678115	 0.376691	 0.025731
H	 0.693998	 -0.977147	 -0.936845
H	 0.693309	 -1.082142	 0.800523
C	 -0.703550	 1.614709	 -0.866383
H	 -0.878420	 0.673611	 1.052703
H	 -1.490472	 -0.286683	 -0.262163
C	 -2.024718	 2.373675	 -0.801891
H	 0.107607	 2.278561	 -0.580696
H	 -0.507427	 1.320264	 -1.893811
H	 -2.232691	 2.712275	 0.207731
H	 -2.009061	 3.245571	 -1.445752
H	 -2.852584	 1.746207	 -1.115353

	symmetry c1
}
set optking {
	frozen_dihedral = ("
		12 8 5 9
	")
}

ee,wfn = optimize('scf', return_wfn=True)
oeprop( wfn, 'DIPOLE', 'QUADRUPOLE', 'MULLIKEN_CHARGES')
f=open( 'psi4out.xyz', 'w' )
f.write( "19  " )
f.write( str(ee) + "\n" )
f.write( MOL.save_string_xyz() )
f.close()
--------------------------------------------------------------------------

    Molecular point group: c1
  Charge       = 0
  Multiplicity = 1
  Basis Set: CC-PVTZ
  Basis Set:
  @DF-RHF Final Energy:  -251.44300372659717
    Total Energy =                       -251.4430037265972828
    Molecular point group: c1
  Basis Set: CC-PVTZ
  Basis Set:
  Basis Set: CC-PVTZ
  Basis Set:
  @DF-RHF Final Energy:  -251.44419541772314
    Total Energy =                       -251.4441954177229945
  Basis Set: CC-PVTZ
  Basis Set:
  Basis Set: CC-PVTZ
  Basis Set:
  @DF-RHF Final Energy:  -251.44509295374911
    Total Energy =                       -251.4450929537491106
  Basis Set: CC-PVTZ
  Basis Set:
  Basis Set: CC-PVTZ
  Basis Set:
  @DF-RHF Final Energy:  -251.44517435580983
    Total Energy =                       -251.4451743558097405
  Basis Set: CC-PVTZ
  Basis Set:
  Basis Set: CC-PVTZ
  Basis Set:
  @DF-RHF Final Energy:  -251.44518283943862
    Total Energy =                       -251.4451828394387576
  Basis Set: CC-PVTZ
  Basis Set:
  Charge       = 0
  Multiplicity = 1
  Basis Set: CC-PVTZ
  Basis Set:

    Orbital Energies (a.u.)
    -----------------------

    Doubly Occupied:

       1A    -15.526340     2A    -11.237674     3A    -11.212206
       4A    -11.210787     5A    -11.208109     6A    -11.205796
       7A     -1.178246     8A     -1.073324     9A     -0.997446
      10A     -0.900261    11A     -0.833316    12A     -0.772140
      13A     -0.666045    14A     -0.638612    15A     -0.614298
      16A     -0.594673    17A     -0.571438    18A     -0.550867
      19A     -0.526370    20A     -0.501238    21A     -0.490335
      22A     -0.459973    23A     -0.456519    24A     -0.448532
      25A     -0.383764

  @DF-RHF Final Energy:  -251.44518319828467

   => Energetics <=

    Nuclear Repulsion Energy =            249.6371121843180845
    One-Electron Energy =                -833.6479678796304142
    Two-Electron Energy =                 332.5656724970276628
    DFT Exchange-Correlation Energy =       0.0000000000000000
    Empirical Dispersion Energy =           0.0000000000000000
    PCM Polarization Energy =               0.0000000000000000
    EFP Energy =                            0.0000000000000000
    Total Energy =                       -251.4451831982846670
    Molecular point group: c1
  Basis Set: CC-PVTZ
  Basis Set:

  -Total Gradient:
     Atom            X                  Y                   Z
    ------   -----------------  -----------------  -----------------
       1        0.000008278158    -0.000003186950    -0.000000539767
       2        0.000020734798    -0.000009414702    -0.000022062746
       3       -0.000003843382     0.000010608442     0.000055296042
       4       -0.000006269818     0.000005574422    -0.000002457811
       5        0.001521912834     0.002900118873    -0.002253896438
       6        0.000003794913    -0.000009380164     0.000001525291
       7       -0.000002732815     0.000011933864    -0.000004270476
       8        0.001910974800     0.003356807600    -0.000360838031
       9       -0.001608662396    -0.002945544067     0.001938961673
      10       -0.000004214987     0.000001988491    -0.000005718089
      11       -0.000004690644    -0.000014487894    -0.000052237226
      12       -0.001843764464    -0.003313316867     0.000684520002
      13        0.000003357675    -0.000002076564     0.000004547150
      14        0.000001110685     0.000005826385     0.000019458322
      15       -0.000006325902    -0.000003397478     0.000002217936
      16        0.000006773680     0.000005974101    -0.000014586658
      17       -0.000012189312     0.000007062361     0.000008059966
      18        0.000005548096    -0.000003132284     0.000001398660
      19        0.000010208077    -0.000001957572     0.000000622200

  **** Optimization is complete! (in 6 steps) ****
    Final optimized geometry and variables:
    Molecular point group: c1

    Geometry (in Angstrom), charge = 0, multiplicity = 1:

    H            3.564817328739    -0.449562155258     0.367663466216
    N            2.734098800983    -1.002205693677     0.366115406418
    C            1.546155144379    -0.164250717740     0.324739086472
    H            2.749016508666    -1.560893582068     1.193623327500
    C            0.294071714309    -1.024486013709     0.236748753311
    H            1.624092308914     0.468695719107    -0.550559093109
    H            1.464304874852     0.500300554990     1.186954926143
    C           -1.034864539663    -0.265817644352     0.297823740963
    H            0.335338614759    -1.637044445044    -0.658001092148
    H            0.310594124192    -1.731041337449     1.064196626382
    C           -1.167526456485     0.920450970337    -0.653901075807
    H           -1.226904441738     0.051796673888     1.320064997045
    H           -1.827203670190    -0.975275178175     0.072753164677
    C           -2.564066893366     1.533668436141    -0.636259986228
    H           -0.442926407640     1.686358871395    -0.398060499972
    H           -0.928328716382     0.598367031042    -1.664185667839
    H           -2.823755162272     1.885428697737     0.356884296849
    H           -2.631534782951     2.377476599733    -1.313393589234
    H           -3.313905415102     0.808739920487    -0.934825595752

  Mulliken Charges: (a.u.)
   Center  Symbol    Alpha    Beta     Spin     Total
       1     H     0.43003  0.43003  0.00000  0.13994
       2     N     3.69014  3.69014  0.00000 -0.38027
       3     C     3.02779  3.02779  0.00000 -0.05559
       4     H     0.43093  0.43093  0.00000  0.13813
       5     C     3.08912  3.08912  0.00000 -0.17824
       6     H     0.45385  0.45385  0.00000  0.09229
       7     H     0.46741  0.46741  0.00000  0.06518
       8     C     3.10051  3.10051  0.00000 -0.20102
       9     H     0.44758  0.44758  0.00000  0.10484
      10     H     0.45637  0.45637  0.00000  0.08726
      11     C     3.08865  3.08865  0.00000 -0.17730
      12     H     0.45385  0.45385  0.00000  0.09229
      13     H     0.45052  0.45052  0.00000  0.09896
      14     C     3.14971  3.14971  0.00000 -0.29942
      15     H     0.45296  0.45296  0.00000  0.09408
      16     H     0.45208  0.45208  0.00000  0.09583
      17     H     0.45548  0.45548  0.00000  0.08903
      18     H     0.44852  0.44852  0.00000  0.10297
      19     H     0.45448  0.45448  0.00000  0.09103

   Total alpha = 25.00000, Total beta = 25.00000, Total charge = -0.00000

*** Psi4 exiting successfully. Buy a developer a beer!
