  ==> Input File <==

--------------------------------------------------------------------------
set {
	reference rhf
	basis cc-pvtz
}

set_num_threads( 4 )
memory 2 gb

molecule MOL {
0 1

H	 4.432855	 0.230036	 1.527318
C	 3.619952	 -0.390706	 1.169580
C	 2.321502	 0.403487	 1.080489
H	 3.906785	 -0.782252	 0.199292
H	 3.523253	 -1.231132	 1.848808
C	 1.151259	 -0.431483	 0.582170
H	 2.448556	 1.252822	 0.418483
H	 2.079623	 0.808690	 2.060224
N	 -0.059183	 0.355545	 0.486496
H	 1.381244	 -0.816504	 -0.406787
H	 1.026267	 -1.303629	 1.230878
C	 -1.215959	 -0.382435	 0.027143
H	 -0.257513	 0.777452	 1.369660
C	 -2.451944	 0.502410	 -0.038737
H	 -0.997506	 -0.767216	 -0.964522
H	 -1.426600	 -1.252807	 0.655761
C	 -3.752217	 -0.292550	 0.005776
H	 -2.407325	 1.093801	 -0.946480
H	 -2.431979	 1.206234	 0.790023
H	 -3.817783	 -0.982946	 -0.828547
H	 -4.612613	 0.364348	 -0.042306
H	 -3.830160	 -0.871666	 0.919868

	symmetry c1
}
set optking {
	frozen_dihedral = ("
		15 12 14 18
	")
}

ee = optimize('scf')
oeprop('DIPOLE', 'QUADRUPOLE', 'MULLIKEN_CHARGES')
f=open( 'psi4out.xyz', 'w' )
f.write( "22  " )
f.write( str(ee) + "\n" )
f.write( MOL.save_string_xyz() )
f.close()
--------------------------------------------------------------------------

    Molecular point group: c1
  Charge       = 0
  Multiplicity = 1
  Basis Set: CC-PVTZ
  Basis Set:
  @DF-RHF Final Energy:  -290.48811474670407
    Total Energy =                       -290.4881147467037863
    Molecular point group: c1
  Basis Set: CC-PVTZ
  Basis Set:
  Basis Set: CC-PVTZ
  Basis Set:
  @DF-RHF Final Energy:  -290.48834260123607
    Total Energy =                       -290.4883426012361269
  Basis Set: CC-PVTZ
  Basis Set:
  Basis Set: CC-PVTZ
  Basis Set:
  @DF-RHF Final Energy:  -290.48839088604007
    Total Energy =                       -290.4883908860399515
  Basis Set: CC-PVTZ
  Basis Set:
  Charge       = 0
  Multiplicity = 1
  Basis Set: CC-PVTZ
  Basis Set:

    Orbital Energies (a.u.)
    -----------------------

    Doubly Occupied:

       1A    -15.527802     2A    -11.236392     3A    -11.235962
       4A    -11.211950     5A    -11.211760     6A    -11.207511
       7A    -11.207231     8A     -1.206972     9A     -1.059897
      10A     -1.026700    11A     -0.928451    12A     -0.868846
      13A     -0.811531    14A     -0.793972    15A     -0.670074
      16A     -0.628663    17A     -0.616790    18A     -0.610225
      19A     -0.575616    20A     -0.563078    21A     -0.533581
      22A     -0.528743    23A     -0.512067    24A     -0.485797
      25A     -0.483197    26A     -0.474302    27A     -0.466352
      28A     -0.451558    29A     -0.361132

  @DF-RHF Final Energy:  -290.48839173268834

   => Energetics <=

    Nuclear Repulsion Energy =            313.6726731886428752
    One-Electron Energy =               -1013.3298292995776819
    Two-Electron Energy =                 409.1687643782464647
    DFT Exchange-Correlation Energy =       0.0000000000000000
    Empirical Dispersion Energy =           0.0000000000000000
    PCM Polarization Energy =               0.0000000000000000
    EFP Energy =                            0.0000000000000000
    Total Energy =                       -290.4883917326883420
    Molecular point group: c1
  Basis Set: CC-PVTZ
  Basis Set:

  -Total Gradient:
     Atom            X                  Y                   Z
    ------   -----------------  -----------------  -----------------
       1        0.000004770779    -0.000002712604     0.000002663194
       2        0.000004591871     0.000002503342     0.000018934151
       3        0.000008827590    -0.000022937544    -0.000007700757
       4       -0.000004595357     0.000004566875    -0.000000097294
       5        0.000002470780    -0.000002851671    -0.000001552913
       6        0.000012251178     0.000057926568    -0.000029671026
       7       -0.000011033062    -0.000009105735    -0.000004456148
       8        0.000005654277     0.000002733617     0.000003002102
       9       -0.000017990501    -0.000088739910    -0.000026752344
      10        0.000011404529    -0.000013761617     0.000002389235
      11        0.000011057597     0.000000588368     0.000004547081
      12       -0.003387429796    -0.004561431051     0.000528290945
      13       -0.000030855748    -0.000019841409    -0.000043480225
      14        0.002993489435     0.004376154572     0.002301831676
      15        0.002434383751     0.003251642838    -0.000704620221
      16       -0.000014474224    -0.000010652348    -0.000003414331
      17       -0.000001771719     0.000032430001     0.000029531348
      18       -0.001984066225    -0.002933077389    -0.002044763180
      19       -0.000004274345    -0.000033763440    -0.000015476373
      20       -0.000000805910    -0.000000601515    -0.000004558798
      21       -0.000018883695    -0.000005209848     0.000001575595
      22       -0.000012721199    -0.000023860102    -0.000006221718

  **** Optimization is complete! (in 4 steps) ****
    Final optimized geometry and variables:
    Molecular point group: c1

    Geometry (in Angstrom), charge = 0, multiplicity = 1:

    H            4.503477341931     0.283198949480     1.002203473371
    C            3.688354966411    -0.339448538440     0.652855528627
    C            2.384056860496     0.447697160978     0.591634681433
    H            3.961294015216    -0.721459722060    -0.325204787595
    H            3.607660552254    -1.185840431898     1.326749078475
    C            1.210559415233    -0.389911227766     0.105389063060
    H            2.495278386301     1.303151585841    -0.065316931423
    H            2.156021229843     0.843242072431     1.578618433342
    N           -0.005117907065     0.391210856140     0.033884432933
    H            1.428088435994    -0.767324757776    -0.889355370693
    H            1.100352182676    -1.267149044303     0.750138364487
    C           -1.168952488785    -0.352627214488    -0.403543741053
    H           -0.187930266620     0.811796836681     0.920834671366
    C           -2.395870005010     0.549712288235    -0.503024148977
    H           -0.936117023117    -0.747875149213    -1.386963379114
    H           -1.382643306786    -1.203891043880     0.247755371370
    C           -3.703221678183    -0.238031438412    -0.523518123900
    H           -2.329664522120     1.134655062665    -1.413273209811
    H           -2.405197822635     1.246201910507     0.329497457911
    H           -3.719452230597    -0.948257649108    -1.344098998829
    H           -4.555002894667     0.421217493069    -0.643626149271
    H           -3.842788151445    -0.796037040059     0.396247718705

  Mulliken Charges: (a.u.)
   Center  Symbol    Alpha    Beta     Spin     Total
       1     H     0.44772  0.44772  0.00000  0.10456
       2     C     3.15359  3.15359  0.00000 -0.30719
       3     C     3.08033  3.08033  0.00000 -0.16067
       4     H     0.45476  0.45476  0.00000  0.09049
       5     H     0.45613  0.45613  0.00000  0.08774
       6     C     3.02132  3.02132  0.00000 -0.04263
       7     H     0.44911  0.44911  0.00000  0.10178
       8     H     0.45970  0.45970  0.00000  0.08060
       9     N     3.64050  3.64050  0.00000 -0.28101
      10     H     0.45944  0.45944  0.00000  0.08113
      11     H     0.47560  0.47560  0.00000  0.04879
      12     C     3.02602  3.02602  0.00000 -0.05204
      13     H     0.44482  0.44482  0.00000  0.11036
      14     C     3.07832  3.07832  0.00000 -0.15663
      15     H     0.45774  0.45774  0.00000  0.08451
      16     H     0.47280  0.47280  0.00000  0.05441
      17     C     3.15383  3.15383  0.00000 -0.30767
      18     H     0.45058  0.45058  0.00000  0.09884
      19     H     0.45812  0.45812  0.00000  0.08376
      20     H     0.45508  0.45508  0.00000  0.08983
      21     H     0.44812  0.44812  0.00000  0.10376
      22     H     0.45636  0.45636  0.00000  0.08728

   Total alpha = 29.00000, Total beta = 29.00000, Total charge =  0.00000
