  ==> Input File <==

--------------------------------------------------------------------------
set {
	reference rhf
	basis 6-31G*
}

set_num_threads( 4 )
memory 2 gb

molecule MOL {
0 1

O	 0.997834	 1.025489	 -0.762398
C	 1.122059	 0.121804	 -0.000188
C	 0.136669	 -0.259878	 1.077410
O	 2.172624	 -0.688929	 0.000216
C	 -1.092739	 0.642297	 1.121883
H	 -0.141815	 -1.296810	 0.910158
H	 0.669535	 -0.246179	 2.024311
C	 -2.073906	 0.234135	 2.221920
H	 -1.590252	 0.617894	 0.157316
H	 -0.777678	 1.670172	 1.272594
C	 -3.308066	 1.133635	 2.274389
H	 -2.385767	 -0.796737	 2.066611
H	 -1.569595	 0.257789	 3.185861
H	 -3.853612	 1.104887	 1.335663
H	 -3.987173	 0.822733	 3.062062
H	 -3.031660	 2.166819	 2.463522
C	 3.452279	 -0.082609	 0.000533
H	 3.583069	 0.529321	 -0.880332
H	 4.163299	 -0.894027	 0.001117
H	 3.582335	 0.529955	 0.881077

	symmetry c1
}
set optking {
	frozen_dihedral = ("
		1 2 4 17
	")
}

ee = optimize('scf')
oeprop('DIPOLE', 'QUADRUPOLE', 'MULLIKEN_CHARGES')
f=open( 'psi4out.xyz', 'w' )
f.write( "20  " )
f.write( str(ee) + "\n" )
f.write( MOL.save_string_xyz() )
f.close()
--------------------------------------------------------------------------

    Molecular point group: c1
  Charge       = 0
  Multiplicity = 1
  Basis Set: 6-31G*
  Basis Set:
  @DF-RHF Final Energy:  -383.92966991586701
    Total Energy =                       -383.9296699158669526
    Molecular point group: c1
  Basis Set: 6-31G*
  Basis Set:
  Basis Set: 6-31G*
  Basis Set:
  @DF-RHF Final Energy:  -383.92726713172209
    Total Energy =                       -383.9272671317223740
  Basis Set: 6-31G*
  Basis Set:
  Basis Set: 6-31G*
  Basis Set:
  @DF-RHF Final Energy:  -383.93046486508729
    Total Energy =                       -383.9304648650870604
  Basis Set: 6-31G*
  Basis Set:
  Basis Set: 6-31G*
  Basis Set:
  @DF-RHF Final Energy:  -383.93053797763997
    Total Energy =                       -383.9305379776399150
  Basis Set: 6-31G*
  Basis Set:
  Basis Set: 6-31G*
  Basis Set:
  @DF-RHF Final Energy:  -383.93054527984293
    Total Energy =                       -383.9305452798429314
  Basis Set: 6-31G*
  Basis Set:
  Charge       = 0
  Multiplicity = 1
  Basis Set: 6-31G*
  Basis Set:

    Orbital Energies (a.u.)
    -----------------------

    Doubly Occupied:

       1A    -20.592784     2A    -20.551787     3A    -11.374190
       4A    -11.285678     5A    -11.236787     6A    -11.221040
       7A    -11.220040     8A    -11.211191     9A     -1.462343
      10A     -1.364923    11A     -1.088968    12A     -1.022090
      13A     -0.969116    14A     -0.889718    15A     -0.805165
      16A     -0.765749    17A     -0.696079    18A     -0.678809
      19A     -0.672700    20A     -0.644271    21A     -0.605882
      22A     -0.592697    23A     -0.582642    24A     -0.545849
      25A     -0.535525    26A     -0.515791    27A     -0.502445
      28A     -0.480779    29A     -0.476278    30A     -0.470614
      31A     -0.452773    32A     -0.433930

  @DF-RHF Final Energy:  -383.93054624892369

   => Energetics <=

    Nuclear Repulsion Energy =            380.5064361385518055
    One-Electron Energy =               -1276.9766964456794085
    Two-Electron Energy =                 512.5397140582037991
    DFT Exchange-Correlation Energy =       0.0000000000000000
    Empirical Dispersion Energy =           0.0000000000000000
    PCM Polarization Energy =               0.0000000000000000
    EFP Energy =                            0.0000000000000000
    Total Energy =                       -383.9305462489237470
    Molecular point group: c1
  Basis Set: 6-31G*
  Basis Set:

  -Total Gradient:
     Atom            X                  Y                   Z
    ------   -----------------  -----------------  -----------------
       1       -0.005254717208    -0.005611371955    -0.005906720295
       2        0.007933863233     0.008329658980     0.012415999959
       3        0.000044693942     0.000039458909    -0.000000067658
       4       -0.003180676539    -0.002687904885    -0.014092391687
       5       -0.000014122510    -0.000023481761    -0.000002813517
       6       -0.000013935838    -0.000002614076    -0.000021370939
       7       -0.000000621360    -0.000019591104    -0.000011755770
       8       -0.000008036426     0.000003317219     0.000007711983
       9        0.000002807097    -0.000001674803    -0.000002374510
      10       -0.000001145179     0.000004555857     0.000003103767
      11        0.000005200244     0.000002459255    -0.000002608441
      12       -0.000000290256     0.000000187635    -0.000004216000
      13        0.000002728499    -0.000001419192    -0.000000404722
      14       -0.000001612603    -0.000001253829    -0.000000886179
      15        0.000006089255    -0.000001438143    -0.000000411912
      16       -0.000000497511     0.000002738499     0.000000210364
      17        0.000465303717    -0.000011949316     0.007612005586
      18        0.000007493577    -0.000010767097     0.000003576783
      19       -0.000010361167    -0.000003417704    -0.000000832723
      20        0.000017837028    -0.000005492492     0.000004245913

  **** Optimization is complete! (in 6 steps) ****
    Final optimized geometry and variables:
    Molecular point group: c1

    Geometry (in Angstrom), charge = 0, multiplicity = 1:

    O            0.824757124529     0.818700885969    -1.419657410286
    C            0.943032573717    -0.091356514104    -0.669785687158
    C           -0.058689124186    -0.486592117746     0.385596417741
    O            1.959289587434    -0.965449812044    -0.739659444340
    C           -1.316376130680     0.375973142873     0.394420123663
    H           -0.296397305692    -1.534674046266     0.225206363175
    H            0.453025686198    -0.447446504420     1.344901419387
    C           -2.307497343636    -0.049547750040     1.478851731656
    H           -1.792254954576     0.323159775224    -0.580076640903
    H           -1.037633886798     1.415364571573     0.537770027086
    C           -3.570780272108     0.810012388690     1.493043446823
    H           -2.582480905025    -1.091876882024     1.330979224618
    H           -1.825114406299     0.002954981189     2.452906629267
    H           -4.095098147699     0.750814460511     0.543735043980
    H           -4.256009086333     0.487772927418     2.270783497152
    H           -3.331895202426     1.854123674869     1.673212368851
    C            3.267673364477    -0.431697470298    -0.817232087057
    H            3.363804788686     0.236392920420    -1.660647845218
    H            3.932788132271    -1.273028922561    -0.934408843595
    H            3.510580336879     0.095768189140     0.097860018936

  Mulliken Charges: (a.u.)
   Center  Symbol    Alpha    Beta     Spin     Total
       1     O     4.26968  4.26968  0.00000 -0.53935
       2     C     2.60577  2.60577  0.00000  0.78847
       3     C     3.21130  3.21130  0.00000 -0.42261
       4     O     4.31372  4.31372  0.00000 -0.62745
       5     C     3.15163  3.15163  0.00000 -0.30326
       6     H     0.39825  0.39825  0.00000  0.20350
       7     H     0.40491  0.40491  0.00000  0.19017
       8     C     3.15412  3.15412  0.00000 -0.30825
       9     H     0.41163  0.41163  0.00000  0.17674
      10     H     0.41220  0.41220  0.00000  0.17560
      11     C     3.23933  3.23933  0.00000 -0.47867
      12     H     0.42249  0.42249  0.00000  0.15503
      13     H     0.42341  0.42341  0.00000  0.15319
      14     H     0.41969  0.41969  0.00000  0.16063
      15     H     0.41866  0.41866  0.00000  0.16269
      16     H     0.42009  0.42009  0.00000  0.15982
      17     C     3.09521  3.09521  0.00000 -0.19042
      18     H     0.40273  0.40273  0.00000  0.19454
      19     H     0.40589  0.40589  0.00000  0.18822
      20     H     0.41929  0.41929  0.00000  0.16142

   Total alpha = 32.00000, Total beta = 32.00000, Total charge = -0.00000
