  ==> Input File <==

--------------------------------------------------------------------------
set {
	reference rhf
	basis 6-31G*
}

set_num_threads( 1 )
memory 2 gb

molecule MOL {
0 1

H	 -3.161837	 0.500524	 -0.000234
C	 -2.367097	 -0.232926	 -0.000000
O	 -1.158440	 0.455814	 -0.000122
H	 -2.468853	 -0.861886	 -0.882833
H	 -2.468942	 -0.861421	 0.883154
C	 -0.029776	 -0.365156	 0.000148
C	 -0.290877	 -1.557164	 0.904363
H	 0.839915	 0.192431	 0.350340
H	 0.190751	 -0.700470	 -1.014170
C	 0.897868	 -2.515258	 0.966195
H	 -0.528503	 -1.189944	 1.898015
H	 -1.173079	 -2.076671	 0.543071
H	 1.786273	 -2.020548	 1.348847
H	 0.684050	 -3.356051	 1.617497
H	 1.137633	 -2.913108	 -0.015961

	symmetry c1
}
set optking {
	frozen_dihedral = ("
		6 3 2 4,
		11 7 6 8
	")
}

ee = energy('scf')
oeprop('DIPOLE', 'QUADRUPOLE', 'MULLIKEN_CHARGES')
f=open( 'psi4out.xyz', 'w' )
f.write( "15  " )
f.write( str(ee) + "\n" )
f.write( MOL.save_string_xyz() )
f.close()
--------------------------------------------------------------------------

    Molecular point group: c1

    Geometry (in Angstrom), charge = 0, multiplicity = 1:

       Center              X                  Y                   Z               Mass
    ------------   -----------------  -----------------  -----------------  -----------------
           H         -2.551484757372     1.339511484410    -0.367590265254     1.007825032070
           C         -1.756744757372     0.606061484410    -0.367356265254    12.000000000000
           O         -0.548087757372     1.294801484410    -0.367478265254    15.994914619560
           H         -1.858500757372    -0.022898515590    -1.250189265254     1.007825032070
           H         -1.858589757372    -0.022433515590     0.515797734746     1.007825032070
           C          0.580576242628     0.473831484410    -0.367208265254    12.000000000000
           C          0.319475242628    -0.718176515590     0.537006734746    12.000000000000
           H          1.450267242628     1.031418484410    -0.017016265254     1.007825032070
           H          0.801103242628     0.138517484410    -1.381526265254     1.007825032070
           C          1.508220242628    -1.676270515590     0.598838734746    12.000000000000
           H          0.081849242628    -0.350956515590     1.530658734746     1.007825032070
           H         -0.562726757372    -1.237683515590     0.175714734746     1.007825032070
           H          2.396625242628    -1.181560515590     0.981490734746     1.007825032070
           H          1.294402242628    -2.517063515590     1.250140734746     1.007825032070
           H          1.747985242628    -2.074120515590    -0.383317265254     1.007825032070

  Charge       = 0
  Multiplicity = 1
  Basis Set: 6-31G*
  Basis Set:

    Orbital Energies (a.u.)
    -----------------------

    Doubly Occupied:

       1A    -20.551112     2A    -11.267005     3A    -11.261539
       4A    -11.217098     5A    -11.215252     6A     -1.379048
       7A     -1.056750     8A     -0.961160     9A     -0.894091
      10A     -0.797983    11A     -0.675906    12A     -0.664457
      13A     -0.628648    14A     -0.604284    15A     -0.564834
      16A     -0.537045    17A     -0.526437    18A     -0.501135
      19A     -0.487827    20A     -0.443952    21A     -0.406113

  @DF-RHF Final Energy:  -232.12248790395572

   => Energetics <=

    Nuclear Repulsion Energy =            195.3446446100929563
    One-Electron Energy =                -701.6509236403068144
    Two-Electron Energy =                 274.1837911262576881
    DFT Exchange-Correlation Energy =       0.0000000000000000
    Empirical Dispersion Energy =           0.0000000000000000
    PCM Polarization Energy =               0.0000000000000000
    EFP Energy =                            0.0000000000000000
    Total Energy =                       -232.1224879039561984

  Mulliken Charges: (a.u.)
   Center  Symbol    Alpha    Beta     Spin     Total
       1     H     0.41113  0.41113  0.00000  0.17773
       2     C     3.08966  3.08966  0.00000 -0.17931
       3     O     4.30575  4.30575  0.00000 -0.61149
       4     H     0.43048  0.43048  0.00000  0.13904
       5     H     0.42329  0.42329  0.00000  0.15342
       6     C     2.97768  2.97768  0.00000  0.04464
       7     C     3.18544  3.18544  0.00000 -0.37087
       8     H     0.41697  0.41697  0.00000  0.16606
       9     H     0.43137  0.43137  0.00000  0.13726
      10     C     3.24346  3.24346  0.00000 -0.48692
      11     H     0.41341  0.41341  0.00000  0.17318
      12     H     0.41417  0.41417  0.00000  0.17166
      13     H     0.42016  0.42016  0.00000  0.15968
      14     H     0.41671  0.41671  0.00000  0.16658
      15     H     0.42033  0.42033  0.00000  0.15935

   Total alpha = 21.00000, Total beta = 21.00000, Total charge = -0.00000
