  ==> Input File <==

--------------------------------------------------------------------------
set {
	reference rhf
	basis 6-31G*
}

set_num_threads( 1 )
memory 2 gb

molecule MOL {
0 1

H	 -2.991383	 -0.396278	 -2.814107
O	 -2.772478	 -0.584314	 -1.912649
C	 -1.494912	 -0.078684	 -1.621521
C	 -1.177863	 -0.397191	 -0.171080
H	 -0.747323	 -0.527809	 -2.273982
H	 -1.463262	 0.998120	 -1.782242
C	 0.198102	 0.111031	 0.262842
H	 -1.239063	 -1.473661	 -0.036190
H	 -1.952943	 0.040028	 0.452271
C	 1.331804	 -0.827780	 -0.158768
H	 0.361943	 1.100838	 -0.156218
H	 0.217265	 0.229072	 1.345532
C	 2.723619	 -0.410569	 0.329459
H	 1.342964	 -0.912588	 -1.244120
H	 1.116806	 -1.824343	 0.220779
C	 3.243875	 0.895854	 -0.272975
H	 3.424222	 -1.207124	 0.091250
H	 2.714788	 -0.329854	 1.414619
H	 3.251977	 0.848779	 -1.358681
H	 2.637085	 1.747371	 0.016682
H	 4.259473	 1.094070	 0.055697

	symmetry c1
}
set optking {
	frozen_dihedral = ("
		2 3 4 8,
		4 7 10 14,
		16 13 10 14,
		1 2 3 5
	")
}

ee = energy('scf')
oeprop('DIPOLE', 'QUADRUPOLE', 'MULLIKEN_CHARGES')
f=open( 'psi4out.xyz', 'w' )
f.write( "21  " )
f.write( str(ee) + "\n" )
f.write( MOL.save_string_xyz() )
f.close()
--------------------------------------------------------------------------

    Molecular point group: c1

    Geometry (in Angstrom), charge = 0, multiplicity = 1:

       Center              X                  Y                   Z               Mass
    ------------   -----------------  -----------------  -----------------  -----------------
           H         -3.231999780426    -0.215558192703    -2.262775858264     1.007825032070
           O         -3.013094780426    -0.403594192703    -1.361317858264    15.994914619560
           C         -1.735528780426     0.102035807297    -1.070189858264    12.000000000000
           C         -1.418479780426    -0.216471192703     0.380251141736    12.000000000000
           H         -0.987939780426    -0.347089192703    -1.722650858264     1.007825032070
           H         -1.703878780426     1.178839807297    -1.230910858264     1.007825032070
           C         -0.042514780426     0.291750807297     0.814173141736    12.000000000000
           H         -1.479679780426    -1.292941192703     0.515141141736     1.007825032070
           H         -2.193559780426     0.220747807297     1.003602141736     1.007825032070
           C          1.091187219574    -0.647060192703     0.392563141736    12.000000000000
           H          0.121326219574     1.281557807297     0.395113141736     1.007825032070
           H         -0.023351780426     0.409791807297     1.896863141736     1.007825032070
           C          2.483002219574    -0.229849192703     0.880790141736    12.000000000000
           H          1.102347219574    -0.731868192703    -0.692788858264     1.007825032070
           H          0.876189219574    -1.643623192703     0.772110141736     1.007825032070
           C          3.003258219574     1.076573807297     0.278356141736    12.000000000000
           H          3.183605219574    -1.026404192703     0.642581141736     1.007825032070
           H          2.474171219574    -0.149134192703     1.965950141736     1.007825032070
           H          3.011360219574     1.029498807297    -0.807349858264     1.007825032070
           H          2.396468219574     1.928090807297     0.568013141736     1.007825032070
           H          4.018856219574     1.274789807297     0.607028141736     1.007825032070

  Charge       = 0
  Multiplicity = 1
  Basis Set: 6-31G*
  Basis Set:

    Orbital Energies (a.u.)
    -----------------------

    Doubly Occupied:

       1A    -20.551763     2A    -11.266807     3A    -11.215818
       4A    -11.215311     5A    -11.214093     6A    -11.210133
       7A    -11.209160     8A     -1.358554     9A     -1.087741
      10A     -1.032893    11A     -0.952142    12A     -0.880237
      13A     -0.811550    14A     -0.774403    15A     -0.694620
      16A     -0.649626    17A     -0.631776    18A     -0.608760
      19A     -0.590365    20A     -0.556646    21A     -0.547625
      22A     -0.520151    23A     -0.510697    24A     -0.495992
      25A     -0.476061    26A     -0.457633    27A     -0.454798
      28A     -0.446106    29A     -0.430432

  @DF-RHF Final Energy:  -310.21029353431254

   => Energetics <=

    Nuclear Repulsion Energy =            316.8090408786611079
    One-Electron Energy =               -1048.3350920467564720
    Two-Electron Energy =                 421.3157576337824821
    DFT Exchange-Correlation Energy =       0.0000000000000000
    Empirical Dispersion Energy =           0.0000000000000000
    PCM Polarization Energy =               0.0000000000000000
    EFP Energy =                            0.0000000000000000
    Total Energy =                       -310.2102935343128820

  Mulliken Charges: (a.u.)
   Center  Symbol    Alpha    Beta     Spin     Total
       1     H     0.28128  0.28128  0.00000  0.43744
       2     O     4.37175  4.37175  0.00000 -0.74350
       3     C     2.99117  2.99117  0.00000  0.01766
       4     C     3.16095  3.16095  0.00000 -0.32191
       5     H     0.43184  0.43184  0.00000  0.13632
       6     H     0.43269  0.43269  0.00000  0.13463
       7     C     3.16494  3.16494  0.00000 -0.32987
       8     H     0.41445  0.41445  0.00000  0.17111
       9     H     0.41255  0.41255  0.00000  0.17490
      10     C     3.15370  3.15370  0.00000 -0.30740
      11     H     0.42183  0.42183  0.00000  0.15634
      12     H     0.41870  0.41870  0.00000  0.16261
      13     C     3.15199  3.15199  0.00000 -0.30399
      14     H     0.42480  0.42480  0.00000  0.15040
      15     H     0.42022  0.42022  0.00000  0.15956
      16     C     3.24134  3.24134  0.00000 -0.48268
      17     H     0.42087  0.42087  0.00000  0.15827
      18     H     0.42292  0.42292  0.00000  0.15417
      19     H     0.42300  0.42300  0.00000  0.15399
      20     H     0.42010  0.42010  0.00000  0.15979
      21     H     0.41891  0.41891  0.00000  0.16218

   Total alpha = 29.00000, Total beta = 29.00000, Total charge =  0.00000
