  ==> Input File <==

--------------------------------------------------------------------------
set {
	reference rhf
	basis 6-31G*
}

set_num_threads( 4 )
memory 2 gb

molecule MOL {
0 1

H	 1.882243	 -1.261976	 -0.028631
C	 1.951159	 -0.223429	 0.317018
C	 0.692068	 0.589600	 0.160137
O	 2.967809	 0.186620	 0.775726
C	 -0.558097	 -0.297372	 0.091132
H	 0.791645	 1.202255	 -0.728243
H	 0.616171	 1.253469	 1.020572
C	 -1.850991	 0.512573	 -0.019058
H	 -0.476753	 -0.965681	 -0.762987
H	 -0.604799	 -0.930658	 0.975228
C	 -3.096943	 -0.368295	 -0.099594
H	 -1.800724	 1.150330	 -0.898172
H	 -1.931651	 1.177355	 0.838044
H	 -3.060452	 -1.020287	 -0.967456
H	 -3.996858	 0.233488	 -0.175704
H	 -3.191959	 -0.995686	 0.782074

	symmetry c1
}
set optking {
	frozen_dihedral = ("
		4 2 3 6
	")
}

ee = optimize('scf')
oeprop('DIPOLE', 'QUADRUPOLE', 'MULLIKEN_CHARGES')
f=open( 'psi4out.xyz', 'w' )
f.write( "16  " )
f.write( str(ee) + "\n" )
f.write( MOL.save_string_xyz() )
f.close()
--------------------------------------------------------------------------

    Molecular point group: c1
  Charge       = 0
  Multiplicity = 1
  Basis Set: 6-31G*
  Basis Set:
  @DF-RHF Final Energy:  -270.01870918775705
    Total Energy =                       -270.0187091877570538
    Molecular point group: c1
  Basis Set: 6-31G*
  Basis Set:
  Basis Set: 6-31G*
  Basis Set:
  @DF-RHF Final Energy:  -270.01883180080085
    Total Energy =                       -270.0188318008009674
  Basis Set: 6-31G*
  Basis Set:
  Basis Set: 6-31G*
  Basis Set:
  @DF-RHF Final Energy:  -270.01911573986342
    Total Energy =                       -270.0191157398631958
  Basis Set: 6-31G*
  Basis Set:
  Basis Set: 6-31G*
  Basis Set:
  @DF-RHF Final Energy:  -270.01917738460588
    Total Energy =                       -270.0191773846060528
  Basis Set: 6-31G*
  Basis Set:
  Basis Set: 6-31G*
  Basis Set:
  @DF-RHF Final Energy:  -270.01917281951410
    Total Energy =                       -270.0191728195138694
  Basis Set: 6-31G*
  Basis Set:
  Basis Set: 6-31G*
  Basis Set:
  @DF-RHF Final Energy:  -270.01918077209564
    Total Energy =                       -270.0191807720956376
  Basis Set: 6-31G*
  Basis Set:
  Charge       = 0
  Multiplicity = 1
  Basis Set: 6-31G*
  Basis Set:

    Orbital Energies (a.u.)
    -----------------------

    Doubly Occupied:

       1A    -20.561676     2A    -11.327500     3A    -11.235748
       4A    -11.234840     5A    -11.229360     6A    -11.218655
       7A     -1.402389     8A     -1.096680     9A     -1.018568
      10A     -0.904990    11A     -0.812077    12A     -0.796478
      13A     -0.669060    14A     -0.653921    15A     -0.631000
      16A     -0.602148    17A     -0.588575    18A     -0.544609
      19A     -0.534369    20A     -0.498601    21A     -0.488915
      22A     -0.485763    23A     -0.477779    24A     -0.409338

  @DF-RHF Final Energy:  -270.01918073945035

   => Energetics <=

    Nuclear Repulsion Energy =            228.1256398291338598
    One-Electron Energy =                -817.4435621767790963
    Two-Electron Energy =                 319.2987416081948027
    DFT Exchange-Correlation Energy =       0.0000000000000000
    Empirical Dispersion Energy =           0.0000000000000000
    PCM Polarization Energy =               0.0000000000000000
    EFP Energy =                            0.0000000000000000
    Total Energy =                       -270.0191807394504053
    Molecular point group: c1
  Basis Set: 6-31G*
  Basis Set:

  -Total Gradient:
     Atom            X                  Y                   Z
    ------   -----------------  -----------------  -----------------
       1        0.000001889299    -0.000003391320    -0.000001559926
       2       -0.000268608283    -0.000261823332     0.001267916465
       3       -0.000308397663    -0.000609367721    -0.000896240211
       4        0.000232559932     0.000269879559    -0.000812443553
       5        0.000001552350    -0.000003800825    -0.000005203438
       6        0.000333697455     0.000608141829     0.000469671780
       7        0.000003734916     0.000000958381    -0.000006058486
       8        0.000001160755     0.000002688508    -0.000013525627
       9        0.000005319858     0.000002006953    -0.000006467742
      10       -0.000004022980    -0.000006960257    -0.000003936323
      11        0.000001189802    -0.000000712909     0.000014252952
      12       -0.000008722357    -0.000002826814    -0.000006944146
      13        0.000007158666     0.000004942832    -0.000005371580
      14        0.000001734510     0.000003687294     0.000000124294
      15        0.000002031809     0.000000892610     0.000004356834
      16       -0.000002278065    -0.000004314789     0.000001428706

  **** Optimization is complete! (in 7 steps) ****
    Final optimized geometry and variables:
    Molecular point group: c1

    Geometry (in Angstrom), charge = 0, multiplicity = 1:

    H            1.918836319656    -1.313610542323    -0.285069734764
    C            1.952891770933    -0.286769130655     0.098058010122
    C            0.668968018653     0.503417056136    -0.010177382692
    O            2.964990402608     0.150932730878     0.540390610673
    C           -0.582839555261    -0.370062870030    -0.096702193429
    H            0.756459837540     1.128174392766    -0.898161008390
    H            0.626061701628     1.181157689281     0.836147382829
    C           -1.869014010531     0.446276806706    -0.230687149730
    H           -0.496037937093    -1.045305316205    -0.946103179620
    H           -0.647532043721    -0.999946654813     0.788686611382
    C           -3.120435919126    -0.426450130246    -0.312328930738
    H           -1.805469902637     1.072709978782    -1.117678417590
    H           -1.954294347831     1.123288943264     0.616025966097
    H           -3.080008864383    -1.091454651993    -1.170260359393
    H           -4.015080231184     0.180568623915    -0.406409946703
    H           -3.229222936286    -1.040381808618     0.577067860645

  Mulliken Charges: (a.u.)
   Center  Symbol    Alpha    Beta     Spin     Total
       1     H     0.42983  0.42983  0.00000  0.14034
       2     C     2.83243  2.83243  0.00000  0.33513
       3     C     3.20835  3.20835  0.00000 -0.41669
       4     O     4.24010  4.24010  0.00000 -0.48021
       5     C     3.16380  3.16380  0.00000 -0.32761
       6     H     0.40200  0.40200  0.00000  0.19600
       7     H     0.39843  0.39843  0.00000  0.20314
       8     C     3.15192  3.15192  0.00000 -0.30385
       9     H     0.41965  0.41965  0.00000  0.16069
      10     H     0.41700  0.41700  0.00000  0.16601
      11     C     3.24022  3.24022  0.00000 -0.48043
      12     H     0.42043  0.42043  0.00000  0.15915
      13     H     0.41910  0.41910  0.00000  0.16180
      14     H     0.42046  0.42046  0.00000  0.15907
      15     H     0.41636  0.41636  0.00000  0.16727
      16     H     0.41991  0.41991  0.00000  0.16019

   Total alpha = 24.00000, Total beta = 24.00000, Total charge = -0.00000
