                              Psi4 1.0.54 Driver

  ==> Input File <==

--------------------------------------------------------------------------
set {
	reference rhf
	basis cc-pvtz
}

set_num_threads( 4 )
memory 2 gb

molecule MOL {
0 1

H	 3.721907	 -0.933076	 -0.066039
O	 2.824271	 -1.154299	 0.131461
C	 2.076458	 -0.067370	 -0.038225
C	 0.626018	 -0.337582	 0.258241
O	 2.538288	 0.965419	 -0.381593
C	 -0.267326	 0.883135	 0.076490
H	 0.325620	 -1.161483	 -0.378003
H	 0.574537	 -0.713685	 1.275261
C	 -1.726822	 0.642622	 0.463839
H	 -0.210803	 1.217591	 -0.953497
H	 0.129920	 1.693110	 0.675679
C	 -2.052217	 0.872679	 1.938706
H	 -1.976953	 -0.383490	 0.211287
H	 -2.372277	 1.268755	 -0.148363
C	 -3.494154	 0.516848	 2.286095
H	 -1.377680	 0.278408	 2.549342
H	 -1.872493	 1.909406	 2.204888
H	 -3.698164	 0.686774	 3.336898
H	 -3.701766	 -0.526277	 2.072821
H	 -4.193725	 1.115775	 1.712473

	symmetry c1
}
set optking {
	frozen_dihedral = ("
		12 9 6 10
	")
}

ee,wfn = optimize('scf', return_wfn=True)
oeprop( wfn, 'DIPOLE', 'QUADRUPOLE', 'MULLIKEN_CHARGES')
f=open( 'psi4out.xyz', 'w' )
f.write( "20  " )
f.write( str(ee) + "\n" )
f.write( MOL.save_string_xyz() )
f.close()
--------------------------------------------------------------------------

    Molecular point group: c1
  Charge       = 0
  Multiplicity = 1
  Basis Set: CC-PVTZ
  Basis Set:
  @DF-RHF Final Energy:  -384.09329429013894
    Total Energy =                       -384.0932942901390561
    Molecular point group: c1
  Basis Set: CC-PVTZ
  Basis Set:
  Basis Set: CC-PVTZ
  Basis Set:
  @DF-RHF Final Energy:  -384.09372614330380
    Total Energy =                       -384.0937261433034564
  Basis Set: CC-PVTZ
  Basis Set:
  Basis Set: CC-PVTZ
  Basis Set:
  @DF-RHF Final Energy:  -384.09312266745133
    Total Energy =                       -384.0931226674513255
  Basis Set: CC-PVTZ
  Basis Set:
  Basis Set: CC-PVTZ
  Basis Set:
  @DF-RHF Final Energy:  -384.09379134095673
    Total Energy =                       -384.0937913409567273
  Basis Set: CC-PVTZ
  Basis Set:
  Basis Set: CC-PVTZ
  Basis Set:
  @DF-RHF Final Energy:  -384.09379602022926
    Total Energy =                       -384.0937960202290924
  Basis Set: CC-PVTZ
  Basis Set:
  Charge       = 0
  Multiplicity = 1
  Basis Set: CC-PVTZ
  Basis Set:

    Orbital Energies (a.u.)
    -----------------------

    Doubly Occupied:

       1A    -20.603994     2A    -20.540620     3A    -11.373508
       4A    -11.239261     5A    -11.220645     6A    -11.218512
       7A    -11.217901     8A    -11.210151     9A     -1.477455
      10A     -1.369038    11A     -1.096921    12A     -1.042769
      13A     -0.961408    14A     -0.870300    15A     -0.813570
      16A     -0.783937    17A     -0.703739    18A     -0.693007
      19A     -0.665695    20A     -0.635635    21A     -0.606606
      22A     -0.595611    23A     -0.575070    24A     -0.558047
      25A     -0.542317    26A     -0.508014    27A     -0.498546
      28A     -0.484558    29A     -0.473185    30A     -0.468954
      31A     -0.456660    32A     -0.445735

  @DF-RHF Final Energy:  -384.09379692081842

   => Energetics <=

    Nuclear Repulsion Energy =            375.6848796485601838
    One-Electron Energy =               -1267.6546149797295584
    Two-Electron Energy =                 507.8759384103515231
    DFT Exchange-Correlation Energy =       0.0000000000000000
    Empirical Dispersion Energy =           0.0000000000000000
    PCM Polarization Energy =               0.0000000000000000
    EFP Energy =                            0.0000000000000000
    Total Energy =                       -384.0937969208179084
    Molecular point group: c1
  Basis Set: CC-PVTZ
  Basis Set:

  -Total Gradient:
     Atom            X                  Y                   Z
    ------   -----------------  -----------------  -----------------
       1        0.000081989490    -0.000002398433    -0.000011544313
       2       -0.000013489086    -0.000123607310     0.000026509486
       3       -0.000069851943    -0.000055286746     0.000051267660
       4        0.000003950445     0.000019327394    -0.000006166232
       5        0.000017367302     0.000174308314    -0.000059572171
       6        0.000227296933    -0.002798144630    -0.001313492206
       7       -0.000015919507    -0.000002746138    -0.000006298659
       8       -0.000003435251     0.000009171082    -0.000002604032
       9        0.000675729666    -0.002276718798     0.000861891196
      10       -0.000337535887     0.002889523942     0.000926873597
      11       -0.000006694356     0.000017915285    -0.000005207478
      12       -0.000542474188     0.002151405372    -0.000476965204
      13       -0.000014392632    -0.000000842399    -0.000018756127
      14        0.000000769218     0.000020122594     0.000021318611
      15       -0.000005704833    -0.000041103831     0.000013666993
      16        0.000009974582    -0.000005740864     0.000017886426
      17        0.000006585590     0.000039019976    -0.000012271422
      18        0.000005992492    -0.000011878053     0.000004002411
      19       -0.000014750019    -0.000021640484    -0.000001624349
      20       -0.000005408014     0.000019313725    -0.000008914188

  **** Optimization is complete! (in 6 steps) ****
    Final optimized geometry and variables:
    Molecular point group: c1

    Geometry (in Angstrom), charge = 0, multiplicity = 1:

    H            3.631168155730    -1.138729324470    -0.662949005251
    O            2.739878168306    -1.372081435662    -0.450800018428
    C            1.970777222841    -0.301393653253    -0.629030407458
    C            0.529019089063    -0.591728585942    -0.310815423402
    O            2.409069254579     0.733962009416    -0.995223502707
    C           -0.394982028718     0.601005371242    -0.513925565905
    H            0.228682651748    -1.430439736555    -0.930184506080
    H            0.497176671712    -0.953133954715     0.711453103539
    C           -1.851052948424     0.308004362721    -0.131915995394
    H           -0.338760963583     0.932952676255    -1.542984051289
    H           -0.028458687686     1.436169436480     0.072227517097
    C           -2.163954263729     0.540786053075     1.345362726555
    H           -2.110084214843    -0.711587951099    -0.406461256270
    H           -2.501614815746     0.948893349254    -0.718921029308
    C           -3.607889375532     0.210812935682     1.708004645185
    H           -1.496724301891    -0.052600772721     1.964928382236
    H           -1.958690054646     1.579381300753     1.587094813101
    H           -3.802482335626     0.400945516999     2.757140024180
    H           -3.832243971756    -0.832790776678     1.513862202333
    H           -4.302639571470     0.810028526514     1.128822360176

  Mulliken Charges: (a.u.)
   Center  Symbol    Alpha    Beta     Spin     Total
       1     H     0.38238  0.38238  0.00000  0.23525
       2     O     4.16031  4.16031  0.00000 -0.32061
       3     C     2.80414  2.80414  0.00000  0.39171
       4     C     3.10866  3.10866  0.00000 -0.21732
       5     O     4.19134  4.19134  0.00000 -0.38267
       6     C     3.09379  3.09379  0.00000 -0.18758
       7     H     0.43747  0.43747  0.00000  0.12507
       8     H     0.43829  0.43829  0.00000  0.12342
       9     C     3.09951  3.09951  0.00000 -0.19901
      10     H     0.43948  0.43948  0.00000  0.12103
      11     H     0.44659  0.44659  0.00000  0.10681
      12     C     3.08191  3.08191  0.00000 -0.16383
      13     H     0.45599  0.45599  0.00000  0.08803
      14     H     0.44501  0.44501  0.00000  0.10999
      15     C     3.15028  3.15028  0.00000 -0.30056
      16     H     0.45621  0.45621  0.00000  0.08758
      17     H     0.45198  0.45198  0.00000  0.09605
      18     H     0.44766  0.44766  0.00000  0.10468
      19     H     0.45489  0.45489  0.00000  0.09021
      20     H     0.45412  0.45412  0.00000  0.09176

   Total alpha = 32.00000, Total beta = 32.00000, Total charge =  0.00000

*** Psi4 exiting successfully. Buy a developer a beer!
