  ==> Input File <==

--------------------------------------------------------------------------
set {
	reference rhf
	basis cc-pvtz
}

set_num_threads( 4 )
memory 2 gb

molecule MOL {
0 1

H	 -3.162190	 0.493205	 -0.000107
C	 -2.363908	 -0.234727	 0.000005
O	 -1.158738	 0.454634	 -0.000087
H	 -2.464314	 -0.863616	 -0.882153
H	 -2.464327	 -0.863359	 0.882345
C	 -0.555989	 0.562124	 -1.251269
C	 0.742846	 1.330840	 -1.115275
H	 -1.223890	 1.072754	 -1.945390
H	 -0.364283	 -0.430101	 -1.660392
C	 1.466347	 1.492005	 -2.447538
H	 0.525413	 2.303593	 -0.688193
H	 1.378195	 0.812658	 -0.405507
H	 0.856851	 2.030121	 -3.165892
H	 2.389533	 2.044132	 -2.321423
H	 1.715594	 0.529244	 -2.881168

	symmetry c1
}
set optking {
	frozen_dihedral = ("
		6 3 2 4
	")
}

ee = optimize('scf')
oeprop('DIPOLE', 'QUADRUPOLE', 'MULLIKEN_CHARGES')
f=open( 'psi4out.xyz', 'w' )
f.write( "15  " )
f.write( str(ee) + "\n" )
f.write( MOL.save_string_xyz() )
f.close()
--------------------------------------------------------------------------

    Molecular point group: c1
  Charge       = 0
  Multiplicity = 1
  Basis Set: CC-PVTZ
  Basis Set:
  @DF-RHF Final Energy:  -232.22477838434898
    Total Energy =                       -232.2247783843488378
    Molecular point group: c1
  Basis Set: CC-PVTZ
  Basis Set:
  Basis Set: CC-PVTZ
  Basis Set:
  @DF-RHF Final Energy:  -232.22534887834067
    Total Energy =                       -232.2253488783407533
  Basis Set: CC-PVTZ
  Basis Set:
  Basis Set: CC-PVTZ
  Basis Set:
  @DF-RHF Final Energy:  -232.22547046986298
    Total Energy =                       -232.2254704698628984
  Basis Set: CC-PVTZ
  Basis Set:
  Charge       = 0
  Multiplicity = 1
  Basis Set: CC-PVTZ
  Basis Set:

    Orbital Energies (a.u.)
    -----------------------

    Doubly Occupied:

       1A    -20.544799     2A    -11.264820     3A    -11.261395
       4A    -11.212347     5A    -11.210522     6A     -1.378065
       7A     -1.058136     8A     -0.956108     9A     -0.877424
      10A     -0.809334    11A     -0.673947    12A     -0.654473
      13A     -0.632005    14A     -0.608125    15A     -0.564235
      16A     -0.544254    17A     -0.503082    18A     -0.490069
      19A     -0.478957    20A     -0.462305    21A     -0.412159

  @DF-RHF Final Energy:  -232.22547145522788

   => Energetics <=

    Nuclear Repulsion Energy =            189.7538759578496865
    One-Electron Energy =                -690.7655752856092022
    Two-Electron Energy =                 268.7862278725317537
    DFT Exchange-Correlation Energy =       0.0000000000000000
    Empirical Dispersion Energy =           0.0000000000000000
    PCM Polarization Energy =               0.0000000000000000
    EFP Energy =                            0.0000000000000000
    Total Energy =                       -232.2254714552277619
    Molecular point group: c1
  Basis Set: CC-PVTZ
  Basis Set:

  -Total Gradient:
     Atom            X                  Y                   Z
    ------   -----------------  -----------------  -----------------
       1       -0.000007015611     0.000000119091     0.000005336247
       2        0.001757088816    -0.003053002846     0.001657269373
       3       -0.001773549188     0.002952504349    -0.000752904512
       4       -0.001008602154     0.001866353771    -0.001205669468
       5        0.000058883201     0.000005494820    -0.000005589685
       6        0.001004273726    -0.001804895632     0.000259331681
       7       -0.000024243569     0.000004419191     0.000027797962
       8       -0.000002487702    -0.000001953441     0.000063794186
       9       -0.000008957685    -0.000000658690    -0.000025641847
      10        0.000000980323     0.000020319593    -0.000014926426
      11        0.000018943282     0.000011716640     0.000000042131
      12       -0.000020124557    -0.000004089827    -0.000001878653
      13        0.000003881151    -0.000001638245    -0.000008258487
      14        0.000003140731     0.000003723129    -0.000007282582
      15       -0.000002210766     0.000001588095     0.000008580081

  **** Optimization is complete! (in 4 steps) ****
    Final optimized geometry and variables:
    Molecular point group: c1

    Geometry (in Angstrom), charge = 0, multiplicity = 1:

    H           -2.803896508668    -0.239056471685     0.991670433975
    C           -1.971967098449    -0.937746059359     0.968931960031
    O           -0.757904733322    -0.255572920093     0.945310123609
    H           -2.097401171183    -1.570054607480     0.095186666343
    H           -2.012389732050    -1.552783489758     1.857982619304
    C           -0.151039580509    -0.141798772753    -0.304284611109
    C            1.147307808175     0.625375186619    -0.156000525536
    H           -0.811450125230     0.374895058937    -1.001025657621
    H            0.043027770490    -1.131359537889    -0.716786673547
    C            1.881861583979     0.788304310718    -1.482163249459
    H            0.928020332293     1.597643727801     0.271354191635
    H            1.775900433186     0.104770635179     0.558101093712
    H            1.278712678410     1.328097267764    -2.204679720479
    H            2.804535474535     1.339497097442    -1.347743126519
    H            2.133914778372    -0.174006189841    -1.915324177122

  Mulliken Charges: (a.u.)
   Center  Symbol    Alpha    Beta     Spin     Total
       1     H     0.46294  0.46294  0.00000  0.07411
       2     C     3.03007  3.03007  0.00000 -0.06015
       3     O     4.17547  4.17547  0.00000 -0.35093
       4     H     0.47380  0.47380  0.00000  0.05240
       5     H     0.45277  0.45277  0.00000  0.09446
       6     C     2.95551  2.95551  0.00000  0.08897
       7     C     3.08173  3.08173  0.00000 -0.16347
       8     H     0.47648  0.47648  0.00000  0.04704
       9     H     0.47502  0.47502  0.00000  0.04996
      10     C     3.15587  3.15587  0.00000 -0.31175
      11     H     0.45104  0.45104  0.00000  0.09791
      12     H     0.45123  0.45123  0.00000  0.09753
      13     H     0.45584  0.45584  0.00000  0.08832
      14     H     0.44628  0.44628  0.00000  0.10745
      15     H     0.45592  0.45592  0.00000  0.08815

   Total alpha = 21.00000, Total beta = 21.00000, Total charge = -0.00000
