  ==> Input File <==

--------------------------------------------------------------------------
set {
	reference rhf
	basis cc-pvtz
}

set_num_threads( 4 )
memory 2 gb

molecule MOL {
0 1

O	 0.820999	 1.164436	 -0.533839
C	 0.576499	 0.134701	 -0.003900
C	 -0.765656	 -0.550508	 -0.002152
O	 1.471254	 -0.559611	 0.679705
C	 -1.945526	 0.411052	 0.000603
H	 -0.794329	 -1.203792	 -0.868145
H	 -0.791555	 -1.205429	 0.862701
C	 -3.282915	 -0.321280	 0.002596
H	 -1.880300	 1.059126	 -0.864925
H	 -1.877207	 1.057892	 0.866807
H	 -3.388495	 -0.952755	 -0.873419
H	 -4.107811	 0.380864	 0.004116
H	 -3.385717	 -0.953283	 0.878571
C	 2.778319	 -0.028192	 0.764463
H	 3.213073	 0.072788	 -0.218821
H	 3.346704	 -0.730075	 1.352670
H	 2.766315	 0.938371	 1.245767

	symmetry c1
}
set optking {
	frozen_dihedral = ("
		1 2 3 6
	")
}

ee = optimize('scf')
oeprop('DIPOLE', 'QUADRUPOLE', 'MULLIKEN_CHARGES')
f=open( 'psi4out.xyz', 'w' )
f.write( "17  " )
f.write( str(ee) + "\n" )
f.write( MOL.save_string_xyz() )
f.close()
--------------------------------------------------------------------------

    Molecular point group: c1
  Charge       = 0
  Multiplicity = 1
  Basis Set: CC-PVTZ
  Basis Set:
  @DF-RHF Final Energy:  -345.03435029717656
    Total Energy =                       -345.0343502971769567
    Molecular point group: c1
  Basis Set: CC-PVTZ
  Basis Set:
  Basis Set: CC-PVTZ
  Basis Set:
  @DF-RHF Final Energy:  -345.03346471656192
    Total Energy =                       -345.0334647165616389
  Basis Set: CC-PVTZ
  Basis Set:
  Basis Set: CC-PVTZ
  Basis Set:
  @DF-RHF Final Energy:  -345.03461571187796
    Total Energy =                       -345.0346157118776773
  Basis Set: CC-PVTZ
  Basis Set:
  Basis Set: CC-PVTZ
  Basis Set:
  @DF-RHF Final Energy:  -345.03476419167856
    Total Energy =                       -345.0347641916794146
  Basis Set: CC-PVTZ
  Basis Set:
  Charge       = 0
  Multiplicity = 1
  Basis Set: CC-PVTZ
  Basis Set:

    Orbital Energies (a.u.)
    -----------------------

    Doubly Occupied:

       1A    -20.598034     2A    -20.533156     3A    -11.364955
       4A    -11.278815     5A    -11.233932     6A    -11.221917
       7A    -11.213318     8A     -1.472970     9A     -1.365748
      10A     -1.081917    11A     -1.002246    12A     -0.941033
      13A     -0.828099    14A     -0.770981    15A     -0.702076
      16A     -0.685882    17A     -0.676134    18A     -0.638108
      19A     -0.596439    20A     -0.579229    21A     -0.566054
      22A     -0.531316    23A     -0.524556    24A     -0.501390
      25A     -0.486576    26A     -0.479573    27A     -0.460652
      28A     -0.439981

  @DF-RHF Final Energy:  -345.03476478413279

   => Energetics <=

    Nuclear Repulsion Energy =            313.0428161566345580
    One-Electron Energy =               -1090.6049877247544373
    Two-Electron Energy =                 432.5274067839867485
    DFT Exchange-Correlation Energy =       0.0000000000000000
    Empirical Dispersion Energy =           0.0000000000000000
    PCM Polarization Energy =               0.0000000000000000
    EFP Energy =                            0.0000000000000000
    Total Energy =                       -345.0347647841331309
    Molecular point group: c1
  Basis Set: CC-PVTZ
  Basis Set:

  -Total Gradient:
     Atom            X                  Y                   Z
    ------   -----------------  -----------------  -----------------
       1        0.000284178016    -0.000585957558    -0.000771691843
       2       -0.000511653557     0.000987150246     0.001033143843
       3        0.000539689690    -0.001041638065     0.000234983558
       4        0.000026468886     0.000011191498     0.000092295154
       5        0.000020607843     0.000009684604    -0.000036851680
       6       -0.000375986466     0.000694498725    -0.000504298106
       7        0.000022523751    -0.000016937421     0.000008750210
       8        0.000002573427    -0.000018012510     0.000015720691
       9       -0.000007787862     0.000015465853    -0.000005337017
      10        0.000016178536    -0.000020207723    -0.000004299279
      11        0.000000620303     0.000001250391    -0.000001052712
      12        0.000009970818     0.000004650854     0.000005062325
      13       -0.000007534562    -0.000006949221    -0.000000231317
      14       -0.000032471267    -0.000073095438    -0.000107046097
      15        0.000035733127     0.000017304330     0.000014252349
      16        0.000010928826     0.000013320358     0.000014065794
      17       -0.000034039506     0.000008281077     0.000012534130

  **** Optimization is complete! (in 5 steps) ****
    Final optimized geometry and variables:
    Molecular point group: c1

    Geometry (in Angstrom), charge = 0, multiplicity = 1:

    O            0.809938643254     1.137805774216    -0.619274155573
    C            0.586919473140     0.104506204151    -0.085778060255
    C           -0.749804638223    -0.593492333827    -0.081825772286
    O            1.511222911292    -0.595568700193     0.549432126144
    C           -1.930961231830     0.368938142142    -0.146743761430
    H           -0.753434083785    -1.240569577689    -0.955173553157
    H           -0.807656389624    -1.237484468619     0.785497668531
    C           -3.266816301435    -0.363496420813    -0.202429191702
    H           -1.819910906667     1.008282115996    -1.012480359470
    H           -1.908472877983     1.021336420437     0.720008861937
    H           -3.330641028712    -0.997198369328    -1.080865036584
    H           -4.090872451887     0.338644421033    -0.241657508649
    H           -3.410141532783    -0.992934641127     0.669613585884
    C            2.825148456230    -0.074272353049     0.559925496781
    H            3.205363537274     0.021883243252    -0.446275446663
    H            3.420410654378    -0.779146923079     1.117297223635
    H            2.846770489680     0.893320537456     1.038713943604

  Mulliken Charges: (a.u.)
   Center  Symbol    Alpha    Beta     Spin     Total
       1     O     4.19972  4.19972  0.00000 -0.39943
       2     C     2.81236  2.81236  0.00000  0.37527
       3     C     3.08832  3.08832  0.00000 -0.17665
       4     O     4.14453  4.14453  0.00000 -0.28906
       5     C     3.08194  3.08194  0.00000 -0.16387
       6     H     0.44543  0.44543  0.00000  0.10914
       7     H     0.43854  0.43854  0.00000  0.12293
       8     C     3.15113  3.15113  0.00000 -0.30227
       9     H     0.44079  0.44079  0.00000  0.11843
      10     H     0.45146  0.45146  0.00000  0.09708
      11     H     0.45493  0.45493  0.00000  0.09013
      12     H     0.44577  0.44577  0.00000  0.10845
      13     H     0.45584  0.45584  0.00000  0.08832
      14     C     3.03554  3.03554  0.00000 -0.07108
      15     H     0.45443  0.45443  0.00000  0.09113
      16     H     0.44507  0.44507  0.00000  0.10987
      17     H     0.45420  0.45420  0.00000  0.09160

   Total alpha = 28.00000, Total beta = 28.00000, Total charge = -0.00000
