                              Psi4 1.0.54 Driver

  ==> Input File <==

--------------------------------------------------------------------------
set {
	reference rhf
	basis cc-pvtz
}

set_num_threads( 4 )
memory 2 gb

molecule MOL {
0 1

H	 -2.149496	 -2.244167	 0.000000
O	 -2.454378	 -1.354528	 0.000000
C	 -1.430628	 -0.482077	 0.000000
C	 -0.544678	 -0.535873	 1.066240
C	 -1.242153	 0.441743	 -1.006109
H	 -0.708517	 -1.261178	 1.838328
C	 0.521257	 0.332961	 1.118401
H	 -1.919826	 0.494309	 -1.836738
C	 -0.161759	 1.311107	 -0.938404
H	 1.201542	 0.284778	 1.946186
C	 0.726173	 1.266798	 0.117557
C	 0.027840	 2.274491	 -1.995405
H	 1.554855	 1.944156	 0.155595
N	 0.173120	 3.026565	 -2.823633

	symmetry c1
}
set optking {
	frozen_dihedral = ("
		5 3 2 1
	")
}

ee,wfn = optimize('scf', return_wfn=True)
oeprop( wfn, 'DIPOLE', 'QUADRUPOLE', 'MULLIKEN_CHARGES')
f=open( 'psi4out.xyz', 'w' )
f.write( "14  " )
f.write( str(ee) + "\n" )
f.write( MOL.save_string_xyz() )
f.close()
--------------------------------------------------------------------------

    Molecular point group: c1
  Charge       = 0
  Multiplicity = 1
  Basis Set: CC-PVTZ
  Basis Set:
  @DF-RHF Final Energy:  -397.42799348637516
    Total Energy =                       -397.4279934863751578
    Molecular point group: c1
  Basis Set: CC-PVTZ
  Basis Set:
  Basis Set: CC-PVTZ
  Basis Set:
  @DF-RHF Final Energy:  -397.42936458758192
    Total Energy =                       -397.4293645875818584
  Basis Set: CC-PVTZ
  Basis Set:
  Basis Set: CC-PVTZ
  Basis Set:
  @DF-RHF Final Energy:  -397.42946685751485
    Total Energy =                       -397.4294668575148535
  Basis Set: CC-PVTZ
  Basis Set:
  Basis Set: CC-PVTZ
  Basis Set:
  @DF-RHF Final Energy:  -397.42948152859702
    Total Energy =                       -397.4294815285968525
  Basis Set: CC-PVTZ
  Basis Set:
  Charge       = 0
  Multiplicity = 1
  Basis Set: CC-PVTZ
  Basis Set:

    Orbital Energies (a.u.)
    -----------------------

    Doubly Occupied:

       1A    -20.595875     2A    -15.564176     3A    -11.318213
       4A    -11.291165     5A    -11.267678     6A    -11.261467
       7A    -11.260111     8A    -11.259531     9A    -11.257323
      10A     -1.425405    11A     -1.237253    12A     -1.187366
      13A     -1.066508    14A     -1.043251    15A     -0.898021
      16A     -0.862802    17A     -0.791365    18A     -0.714725
      19A     -0.693043    20A     -0.688942    21A     -0.637635
      22A     -0.624198    23A     -0.572136    24A     -0.565119
      25A     -0.551155    26A     -0.548922    27A     -0.509851
      28A     -0.483348    29A     -0.477882    30A     -0.366965
      31A     -0.352999

  @DF-RHF Final Energy:  -397.42948491096303

   => Energetics <=

    Nuclear Repulsion Energy =            380.0486905568984071
    One-Electron Energy =               -1292.2074817164677825
    Two-Electron Energy =                 514.7293062486062354
    DFT Exchange-Correlation Energy =       0.0000000000000000
    Empirical Dispersion Energy =           0.0000000000000000
    PCM Polarization Energy =               0.0000000000000000
    EFP Energy =                            0.0000000000000000
    Total Energy =                       -397.4294849109630832
    Molecular point group: c1
  Basis Set: CC-PVTZ
  Basis Set:

  -Total Gradient:
     Atom            X                  Y                   Z
    ------   -----------------  -----------------  -----------------
       1        0.000024767307     0.000074337445    -0.001940690799
       2        0.000227509007    -0.000671927326     0.002100533598
       3       -0.000965906602     0.001668205101     0.000426386721
       4       -0.000041720549    -0.000079677050     0.000061044634
       5        0.000641277693    -0.000992793752    -0.000700859195
       6        0.000028843596     0.000049250932    -0.000017646335
       7       -0.000020711549    -0.000091057575     0.000010520255
       8       -0.000039605131    -0.000053070608     0.000035262946
       9        0.000208841279     0.000031762107     0.000005225920
      10        0.000033701283     0.000047447007    -0.000007095491
      11       -0.000128999331     0.000062428352    -0.000108238518
      12        0.000059770363     0.000012193829     0.000061079669
      13        0.000024896842    -0.000019441916     0.000073024380
      14       -0.000052664211    -0.000037656550     0.000001452217

  **** Optimization is complete! (in 5 steps) ****
    Final optimized geometry and variables:
    Molecular point group: c1

    Geometry (in Angstrom), charge = 0, multiplicity = 1:

    H           -1.670411552882    -2.861191848154     0.412744167401
    O           -1.943602925563    -1.960880480863     0.436242220972
    C           -0.871714378646    -1.126993073591     0.494289897355
    C            0.012377220479    -1.168711420526     1.557382531630
    C           -0.694272482835    -0.208443311224    -0.518562546955
    H           -0.145098814967    -1.879433791258     2.345879882883
    C            1.078636547631    -0.292267888900     1.604287253753
    H           -1.384731989658    -0.182789087390    -1.337083152960
    C            0.372114833128     0.673927848328    -0.455346854263
    H            1.761444676049    -0.329102623511     2.430465865160
    C            1.265923296495     0.636916580358     0.601565094988
    C            0.555531460822     1.638149092265    -1.512319323299
    H            2.087522622520     1.323653290319     0.635577232280
    N            0.700617853332     2.391816931474    -2.339194178981

  Mulliken Charges: (a.u.)
   Center  Symbol    Alpha    Beta     Spin     Total
       1     H     0.38415  0.38415  0.00000  0.23170
       2     O     4.18303  4.18303  0.00000 -0.36607
       3     C     2.85869  2.85869  0.00000  0.28263
       4     C     3.11625  3.11625  0.00000 -0.23250
       5     C     3.12125  3.12125  0.00000 -0.24250
       6     H     0.41628  0.41628  0.00000  0.16743
       7     C     3.05993  3.05993  0.00000 -0.11986
       8     H     0.40673  0.40673  0.00000  0.18653
       9     C     2.92815  2.92815  0.00000  0.14371
      10     H     0.41635  0.41635  0.00000  0.16729
      11     C     3.09687  3.09687  0.00000 -0.19374
      12     C     3.02387  3.02387  0.00000 -0.04775
      13     H     0.41380  0.41380  0.00000  0.17240
      14     N     3.57464  3.57464  0.00000 -0.14928

   Total alpha = 31.00000, Total beta = 31.00000, Total charge = -0.00000

*** Psi4 exiting successfully. Buy a developer a beer!
