  ==> Input File <==

--------------------------------------------------------------------------
set {
	reference rhf
	basis 6-31G*
}

set_num_threads( 4 )
memory 2 gb

molecule MOL {
0 1

O	 2.674549	 1.653035	 -1.076257
C	 2.554492	 0.619754	 -1.659930
C	 1.260892	 -0.174734	 -1.641835
C	 3.695671	 0.030041	 -2.463114
C	 0.148889	 0.466473	 -0.816889
H	 0.942169	 -0.315944	 -2.673758
H	 1.488296	 -1.173387	 -1.271184
C	 -1.137242	 -0.361533	 -0.822544
H	 -0.050898	 1.461542	 -1.201665
H	 0.495695	 0.602948	 0.202546
C	 -2.259874	 0.272531	 0.000494
H	 -1.477547	 -0.497476	 -1.848097
H	 -0.929388	 -1.358649	 -0.437025
C	 -3.549786	 -0.549746	 -0.000374
H	 -2.468983	 1.269077	 -0.384459
H	 -1.921111	 0.408105	 1.026094
C	 -4.809590	 0.315458	 -0.000369
H	 -3.560515	 -1.202009	 -0.871156
H	 -3.561123	 -1.202955	 0.869711
H	 -4.844746	 0.956611	 -0.876632
H	 -5.706986	 -0.295590	 -0.001609
H	 -4.845960	 0.954827	 0.877144
H	 3.404354	 -0.092035	 -3.502273
H	 4.557577	 0.679993	 -2.403827
H	 3.956795	 -0.953706	 -2.084051

	symmetry c1
}
set optking {
	frozen_dihedral = ("
		15 11 14 18
	")
}

ee = optimize('scf')
oeprop('DIPOLE', 'QUADRUPOLE', 'MULLIKEN_CHARGES')
f=open( 'psi4out.xyz', 'w' )
f.write( "25  " )
f.write( str(ee) + "\n" )
f.write( MOL.save_string_xyz() )
f.close()
--------------------------------------------------------------------------

    Molecular point group: c1
  Charge       = 0
  Multiplicity = 1
  Basis Set: 6-31G*
  Basis Set:
  @DF-RHF Final Energy:  -387.13275559110559
    Total Energy =                       -387.1327555911050240
    Molecular point group: c1
  Basis Set: 6-31G*
  Basis Set:
  Basis Set: 6-31G*
  Basis Set:
  @DF-RHF Final Energy:  -387.13304103891892
    Total Energy =                       -387.1330410389184635
  Basis Set: 6-31G*
  Basis Set:
  Basis Set: 6-31G*
  Basis Set:
  @DF-RHF Final Energy:  -387.13311227169157
    Total Energy =                       -387.1331122716918571
  Basis Set: 6-31G*
  Basis Set:
  Basis Set: 6-31G*
  Basis Set:
  @DF-RHF Final Energy:  -387.13300754539273
    Total Energy =                       -387.1330075453925019
  Basis Set: 6-31G*
  Basis Set:
  Basis Set: 6-31G*
  Basis Set:
  @DF-RHF Final Energy:  -387.13311503423381
    Total Energy =                       -387.1331150342333558
  Basis Set: 6-31G*
  Basis Set:
  Charge       = 0
  Multiplicity = 1
  Basis Set: 6-31G*
  Basis Set:

    Orbital Energies (a.u.)
    -----------------------

    Doubly Occupied:

       1A    -20.550511     2A    -11.326356     3A    -11.231974
       4A    -11.228384     5A    -11.217467     6A    -11.216622
       7A    -11.215056     8A    -11.213200     9A    -11.208849
      10A     -1.395818    11A     -1.093012    12A     -1.055333
      13A     -1.014491    14A     -0.969476    15A     -0.890740
      16A     -0.815317    17A     -0.791208    18A     -0.729965
      19A     -0.659373    20A     -0.652343    21A     -0.628129
      22A     -0.623744    23A     -0.597659    24A     -0.585842
      25A     -0.568405    26A     -0.559132    27A     -0.537472
      28A     -0.527735    29A     -0.513943    30A     -0.490520
      31A     -0.486706    32A     -0.475140    33A     -0.465015
      34A     -0.456001    35A     -0.450226    36A     -0.399493

  @DF-RHF Final Energy:  -387.13311525117479

   => Energetics <=

    Nuclear Repulsion Energy =            438.3708122639150133
    One-Electron Energy =               -1393.3265472718853744
    Two-Electron Energy =                 567.8226197567948930
    DFT Exchange-Correlation Energy =       0.0000000000000000
    Empirical Dispersion Energy =           0.0000000000000000
    PCM Polarization Energy =               0.0000000000000000
    EFP Energy =                            0.0000000000000000
    Total Energy =                       -387.1331152511754681
    Molecular point group: c1
  Basis Set: 6-31G*
  Basis Set:

  -Total Gradient:
     Atom            X                  Y                   Z
    ------   -----------------  -----------------  -----------------
       1        0.000017625847    -0.000030217331     0.000049756408
       2       -0.000050635527     0.000087398221    -0.000158671427
       3        0.000026197507    -0.000016312912     0.000037757674
       4        0.000020673886    -0.000024541187     0.000043883752
       5        0.000011615678    -0.000010474305     0.000028513897
       6        0.000009230215     0.000004301880    -0.000001420366
       7       -0.000009615861    -0.000001582808     0.000001491549
       8       -0.000073800039     0.000028996081    -0.000003851419
       9       -0.000005006395    -0.000010121748     0.000007343117
      10        0.000005592184    -0.000004241842    -0.000003498037
      11        0.001399298343    -0.002498193885    -0.004376048064
      12        0.000002276721    -0.000002830467     0.000009865444
      13       -0.000014506459     0.000017595802     0.000016416504
      14       -0.002664388028     0.004140519656    -0.001851230030
      15       -0.000793755838     0.001384233495     0.003918978464
      16        0.000023474648    -0.000032052517     0.000038489760
      17        0.000045929961    -0.000019515237    -0.000013599121
      18        0.002036793726    -0.002980366253     0.002194368522
      19       -0.000012316262     0.000001009646     0.000055196432
      20        0.000001385623    -0.000029462106     0.000005197767
      21        0.000001968994    -0.000003525226     0.000009093784
      22        0.000018935949     0.000001984792    -0.000012075919
      23       -0.000006931978     0.000003450254     0.000006693225
      24        0.000002525502    -0.000001580192     0.000001061261
      25        0.000007431603    -0.000004471811    -0.000003713176

  **** Optimization is complete! (in 6 steps) ****
    Final optimized geometry and variables:
    Molecular point group: c1

    Geometry (in Angstrom), charge = 0, multiplicity = 1:

    O            2.855176359070     1.378481851713    -0.104983976300
    C            2.732390903401     0.352385250622    -0.700618865797
    C            1.431144986732    -0.429737873515    -0.706220158282
    C            3.878051766219    -0.240982614845    -1.494675881626
    C            0.314704855666     0.215031801199     0.109963467608
    H            1.124594214268    -0.558960635373    -1.743377082975
    H            1.644203001372    -1.433674045042    -0.341347504431
    C           -0.978558905389    -0.600609361435     0.081333962313
    H            0.128519042631     1.214944550440    -0.269211744092
    H            0.649855053120     0.340258953783     1.134668314513
    C           -2.109601285976     0.041545203177     0.883832572289
    H           -1.303835675859    -0.733573603577    -0.949371755755
    H           -0.787866046548    -1.600083347000     0.470385937319
    C           -3.397019573877    -0.800586460902     0.924638919659
    H           -2.328864124250     1.034192835435     0.495210039513
    H           -1.767697962949     0.212437093271     1.902935247497
    C           -4.672607775235     0.035355034537     0.997688543772
    H           -3.431082727068    -1.465847216994     0.064571826133
    H           -3.357251411775    -1.463186592471     1.786531543367
    H           -4.782972766311     0.658186973750     0.114608327767
    H           -5.553865507649    -0.594236596684     1.073122294389
    H           -4.659599512003     0.691507549984     1.863593691560
    H            3.599267819624    -0.349612103085    -2.538750585462
    H            4.745648702968     0.399440885040    -1.417520526045
    H            4.124148493645    -1.231125053804    -1.122247759058

  Mulliken Charges: (a.u.)
   Center  Symbol    Alpha    Beta     Spin     Total
       1     O     4.26113  4.26113  0.00000 -0.52226
       2     C     2.73569  2.73569  0.00000  0.52862
       3     C     3.21087  3.21087  0.00000 -0.42174
       4     C     3.28664  3.28664  0.00000 -0.57327
       5     C     3.14860  3.14860  0.00000 -0.29719
       6     H     0.40999  0.40999  0.00000  0.18001
       7     H     0.40997  0.40997  0.00000  0.18006
       8     C     3.15502  3.15502  0.00000 -0.31005
       9     H     0.41202  0.41202  0.00000  0.17595
      10     H     0.41202  0.41202  0.00000  0.17596
      11     C     3.15355  3.15355  0.00000 -0.30710
      12     H     0.42440  0.42440  0.00000  0.15120
      13     H     0.42444  0.42444  0.00000  0.15112
      14     C     3.15355  3.15355  0.00000 -0.30711
      15     H     0.42101  0.42101  0.00000  0.15799
      16     H     0.42094  0.42094  0.00000  0.15812
      17     C     3.23969  3.23969  0.00000 -0.47938
      18     H     0.42245  0.42245  0.00000  0.15510
      19     H     0.42172  0.42172  0.00000  0.15657
      20     H     0.42146  0.42146  0.00000  0.15709
      21     H     0.42010  0.42010  0.00000  0.15981
      22     H     0.42087  0.42087  0.00000  0.15825
      23     H     0.40873  0.40873  0.00000  0.18253
      24     H     0.39645  0.39645  0.00000  0.20710
      25     H     0.40869  0.40869  0.00000  0.18262

   Total alpha = 36.00000, Total beta = 36.00000, Total charge = -0.00000
