                              Psi4 1.0.54 Driver

  ==> Input File <==

--------------------------------------------------------------------------
set {
	reference rhf
	basis cc-pvtz
}

set_num_threads( 4 )
memory 2 gb

molecule MOL {
0 1

H	 -3.793123	 0.128401	 -1.574055
C	 -3.104279	 -0.518764	 -1.071084
C	 -2.105997	 -0.000418	 -0.398703
H	 -3.252160	 -1.579152	 -1.130302
O	 -1.189946	 -0.765863	 0.237511
H	 -1.953253	 1.060938	 -0.325757
C	 0.026572	 -0.995256	 -0.379403
C	 1.057223	 0.049888	 -0.004615
H	 -0.054361	 -1.010670	 -1.459674
H	 0.397526	 -1.952058	 -0.044198
F	 2.203233	 -0.234060	 -0.590375
F	 0.698147	 1.254887	 -0.392621
F	 1.266440	 0.094219	 1.288722

	symmetry c1
}
set optking {
	frozen_dihedral = ("
		6 3 5 7
	")
}

ee,wfn = optimize('scf', return_wfn=True)
oeprop( wfn, 'DIPOLE', 'QUADRUPOLE', 'MULLIKEN_CHARGES')
f=open( 'psi4out.xyz', 'w' )
f.write( "13  " )
f.write( str(ee) + "\n" )
f.write( MOL.save_string_xyz() )
f.close()
--------------------------------------------------------------------------

    Molecular point group: c1
  Charge       = 0
  Multiplicity = 1
  Basis Set: CC-PVTZ
  Basis Set:
  @DF-RHF Final Energy:  -527.73833568415284
    Total Energy =                       -527.7383356841527302
    Molecular point group: c1
  Basis Set: CC-PVTZ
  Basis Set:
  Basis Set: CC-PVTZ
  Basis Set:
  @DF-RHF Final Energy:  -527.73862227831592
    Total Energy =                       -527.7386222783154608
  Basis Set: CC-PVTZ
  Basis Set:
  Basis Set: CC-PVTZ
  Basis Set:
  @DF-RHF Final Energy:  -527.73882805430731
    Total Energy =                       -527.7388280543071915
  Basis Set: CC-PVTZ
  Basis Set:
  Basis Set: CC-PVTZ
  Basis Set:
  @DF-RHF Final Energy:  -527.73883529402519
    Total Energy =                       -527.7388352940253071
  Basis Set: CC-PVTZ
  Basis Set:
  Charge       = 0
  Multiplicity = 1
  Basis Set: CC-PVTZ
  Basis Set:

    Orbital Energies (a.u.)
    -----------------------

    Doubly Occupied:

       1A    -26.339698     2A    -26.339164     3A    -26.335976
       4A    -20.593230     5A    -11.495223     6A    -11.314885
       7A    -11.294477     8A    -11.227340     9A     -1.748309
      10A     -1.645009    11A     -1.643148    12A     -1.431820
      13A     -1.083393    14A     -1.022705    15A     -0.931433
      16A     -0.840423    17A     -0.837385    18A     -0.832544
      19A     -0.774767    20A     -0.725805    21A     -0.719368
      22A     -0.708339    23A     -0.680175    24A     -0.664796
      25A     -0.657795    26A     -0.649233    27A     -0.645244
      28A     -0.597669    29A     -0.570863    30A     -0.530996
      31A     -0.468466    32A     -0.382412

  @DF-RHF Final Energy:  -527.73883598166094

   => Energetics <=

    Nuclear Repulsion Energy =            412.9224438267434607
    One-Electron Energy =               -1549.8583792980555245
    Two-Electron Energy =                 609.1970994896511229
    DFT Exchange-Correlation Energy =       0.0000000000000000
    Empirical Dispersion Energy =           0.0000000000000000
    PCM Polarization Energy =               0.0000000000000000
    EFP Energy =                            0.0000000000000000
    Total Energy =                       -527.7388359816608272
    Molecular point group: c1
  Basis Set: CC-PVTZ
  Basis Set:

  -Total Gradient:
     Atom            X                  Y                   Z
    ------   -----------------  -----------------  -----------------
       1       -0.000000919957    -0.000000598635    -0.000007566299
       2        0.000064748884    -0.000011423353     0.000058625254
       3        0.000998898542    -0.000551204817    -0.002128286901
       4       -0.000018913458     0.000003506302    -0.000016660276
       5        0.000338767296     0.001596161698     0.001286974855
       6       -0.000923895188     0.000036130334     0.001376398977
       7       -0.000448757929    -0.001068012904    -0.000568844252
       8        0.000021865139    -0.000029665714    -0.000032932000
       9       -0.000014027130     0.000005656488     0.000012348436
      10        0.000008602310     0.000012599186     0.000006304304
      11        0.000008454606    -0.000001330473    -0.000015537646
      12       -0.000012467366    -0.000009815665     0.000021834048
      13       -0.000022355741     0.000017997550     0.000007341505

  **** Optimization is complete! (in 5 steps) ****
    Final optimized geometry and variables:
    Molecular point group: c1

    Geometry (in Angstrom), charge = 0, multiplicity = 1:

    H           -3.890802709016     0.186354552580    -1.344711150562
    C           -3.160717312534    -0.447313793034    -0.881940224117
    C           -2.123386835733     0.081063440124    -0.281395692224
    H           -3.311423306254    -1.509324001828    -0.911893170918
    O           -1.198780188664    -0.678304013643     0.374502581906
    H           -1.970711737152     1.142196504782    -0.214947388270
    C            0.021943974600    -0.897194672717    -0.251256243432
    C            1.048446356741     0.150928718523     0.123824343971
    H           -0.069699144728    -0.910090949206    -1.329722269440
    H            0.401601970353    -1.851296865834     0.083245619683
    F            2.191755163582    -0.115073424815    -0.474576781117
    F            0.678272193254     1.360852105332    -0.244652466415
    F            1.269750494478     0.184067470819     1.416456212436

  Mulliken Charges: (a.u.)
   Center  Symbol    Alpha    Beta     Spin     Total
       1     H     0.42338  0.42338  0.00000  0.15323
       2     C     3.17502  3.17502  0.00000 -0.35004
       3     C     2.98288  2.98288  0.00000  0.03424
       4     H     0.42123  0.42123  0.00000  0.15754
       5     O     4.16649  4.16649  0.00000 -0.33299
       6     H     0.42123  0.42123  0.00000  0.15754
       7     C     3.00196  3.00196  0.00000 -0.00393
       8     C     2.67660  2.67660  0.00000  0.64679
       9     H     0.45770  0.45770  0.00000  0.08460
      10     H     0.43999  0.43999  0.00000  0.12001
      11     F     4.61225  4.61225  0.00000 -0.22450
      12     F     4.61328  4.61328  0.00000 -0.22655
      13     F     4.60797  4.60797  0.00000 -0.21594

   Total alpha = 32.00000, Total beta = 32.00000, Total charge = -0.00000

*** Psi4 exiting successfully. Buy a developer a beer!
