  ==> Input File <==

--------------------------------------------------------------------------
set {
	reference rhf
	basis 6-31G*
}

set_num_threads( 1 )
memory 2 gb

molecule MOL {
0 1

O	 1.763701	 0.480270	 0.549133
C	 2.701189	 0.057885	 -0.047330
C	 3.313190	 0.679030	 -1.279573
O	 3.347903	 -1.046386	 0.304773
C	 2.609594	 1.961789	 -1.717292
H	 4.363692	 0.844352	 -1.064387
H	 3.285763	 -0.070282	 -2.066642
C	 3.151796	 2.547498	 -3.025518
H	 2.684523	 2.700268	 -0.924731
H	 1.551470	 1.753467	 -1.833041
C	 4.592199	 3.062502	 -2.953953
H	 2.503421	 3.369131	 -3.320904
H	 3.073509	 1.802655	 -3.816144
C	 5.048416	 3.735713	 -4.249967
H	 4.678355	 3.770788	 -2.131319
H	 5.271628	 2.244553	 -2.725244
C	 6.488085	 4.249619	 -4.191802
H	 4.380853	 4.564625	 -4.479093
H	 4.952361	 3.031335	 -5.074786
C	 6.934603	 4.923910	 -5.488588
H	 6.586082	 4.952857	 -3.367487
H	 7.157326	 3.421704	 -3.967182
H	 7.958576	 5.277275	 -5.416337
H	 6.305767	 5.778232	 -5.722885
H	 6.880789	 4.235389	 -6.327227
C	 4.728119	 -1.109107	 -0.004993
H	 4.882018	 -1.033965	 -1.071845
H	 5.068212	 -2.067527	 0.355250
H	 5.265056	 -0.311663	 0.488280

	symmetry c1
}
set optking {
	frozen_dihedral = ("
		21 17 14 11,
		17 14 11 15,
		15 11 8 5,
		6 3 5 9,
		11 8 5 9,
		2 4 26 27,
		6 3 2 1
	")
}

ee = energy('scf')
oeprop('DIPOLE', 'QUADRUPOLE', 'MULLIKEN_CHARGES')
f=open( 'psi4out.xyz', 'w' )
f.write( "29  " )
f.write( str(ee) + "\n" )
f.write( MOL.save_string_xyz() )
f.close()
--------------------------------------------------------------------------

    Molecular point group: c1

    Geometry (in Angstrom), charge = 0, multiplicity = 1:

       Center              X                  Y                   Z               Mass
    ------------   -----------------  -----------------  -----------------  -----------------
           O         -2.309480514460    -1.270564475317     2.539425514869    15.994914619560
           C         -1.371992514460    -1.692949475317     1.942962514869    12.000000000000
           C         -0.759991514460    -1.071804475317     0.710719514869    12.000000000000
           O         -0.725278514460    -2.797220475317     2.295065514869    15.994914619560
           C         -1.463587514460     0.210954524683     0.273000514869    12.000000000000
           H          0.290510485540    -0.906482475317     0.925905514869     1.007825032070
           H         -0.787418514460    -1.821116475317    -0.076349485131     1.007825032070
           C         -0.921385514460     0.796663524683    -1.035225485131    12.000000000000
           H         -1.388658514460     0.949433524683     1.065561514869     1.007825032070
           H         -2.521711514460     0.002632524683     0.157251514869     1.007825032070
           C          0.519017485540     1.311667524683    -0.963660485131    12.000000000000
           H         -1.569760514460     1.618296524683    -1.330611485131     1.007825032070
           H         -0.999672514460     0.051820524683    -1.825851485131     1.007825032070
           C          0.975234485540     1.984878524683    -2.259674485131    12.000000000000
           H          0.605173485540     2.019953524683    -0.141026485131     1.007825032070
           H          1.198446485540     0.493718524683    -0.734951485131     1.007825032070
           C          2.414903485540     2.498784524683    -2.201509485131    12.000000000000
           H          0.307671485540     2.813790524683    -2.488800485131     1.007825032070
           H          0.879179485540     1.280500524683    -3.084493485131     1.007825032070
           C          2.861421485540     3.173075524683    -3.498295485131    12.000000000000
           H          2.512900485540     3.202022524683    -1.377194485131     1.007825032070
           H          3.084144485540     1.670869524683    -1.976889485131     1.007825032070
           H          3.885394485540     3.526440524683    -3.426044485131     1.007825032070
           H          2.232585485540     4.027397524683    -3.732592485131     1.007825032070
           H          2.807607485540     2.484554524683    -4.336934485131     1.007825032070
           C          0.654937485540    -2.859941475317     1.985299514869    12.000000000000
           H          0.808836485540    -2.784799475317     0.918447514869     1.007825032070
           H          0.995030485540    -3.818361475317     2.345542514869     1.007825032070
           H          1.191874485540    -2.062497475317     2.478572514869     1.007825032070

  Charge       = 0
  Multiplicity = 1
  Basis Set: 6-31G*
  Basis Set:

    Orbital Energies (a.u.)
    -----------------------

    Doubly Occupied:

       1A    -20.602585     2A    -20.546519     3A    -11.374266
       4A    -11.297209     5A    -11.240391     6A    -11.222740
       7A    -11.221689     8A    -11.221072     9A    -11.219876
      10A    -11.218682    11A    -11.212374    12A     -1.466831
      13A     -1.369061    14A     -1.102313    15A     -1.069665
      16A     -1.015959    17A     -0.987635    18A     -0.948969
      19A     -0.872903    20A     -0.807858    21A     -0.795764
      22A     -0.761239    23A     -0.705877    24A     -0.690154
      25A     -0.679579    26A     -0.654566    27A     -0.633135
      28A     -0.610521    29A     -0.598239    30A     -0.592305
      31A     -0.569885    32A     -0.559345    33A     -0.548254
      34A     -0.537243    35A     -0.525189    36A     -0.508327
      37A     -0.498743    38A     -0.482362    39A     -0.474158
      40A     -0.466616    41A     -0.463865    42A     -0.454223
      43A     -0.443447    44A     -0.429132

  @DF-RHF Final Energy:  -501.01793608163098

   => Energetics <=

    Nuclear Repulsion Energy =            620.0061349607199190
    One-Electron Energy =               -1910.6463053582679095
    Two-Electron Energy =                 789.6222343159173533
    DFT Exchange-Correlation Energy =       0.0000000000000000
    Empirical Dispersion Energy =           0.0000000000000000
    PCM Polarization Energy =               0.0000000000000000
    EFP Energy =                            0.0000000000000000
    Total Energy =                       -501.0179360816306371

  Mulliken Charges: (a.u.)
   Center  Symbol    Alpha    Beta     Spin     Total
       1     O     4.26930  4.26930  0.00000 -0.53859
       2     C     2.59245  2.59245  0.00000  0.81511
       3     C     3.24489  3.24489  0.00000 -0.48978
       4     O     4.30116  4.30116  0.00000 -0.60233
       5     C     3.15036  3.15036  0.00000 -0.30072
       6     H     0.40055  0.40055  0.00000  0.19889
       7     H     0.39939  0.39939  0.00000  0.20122
       8     C     3.15674  3.15674  0.00000 -0.31347
       9     H     0.41230  0.41230  0.00000  0.17540
      10     H     0.40647  0.40647  0.00000  0.18706
      11     C     3.15428  3.15428  0.00000 -0.30857
      12     H     0.41708  0.41708  0.00000  0.16585
      13     H     0.42434  0.42434  0.00000  0.15132
      14     C     3.15030  3.15030  0.00000 -0.30059
      15     H     0.42204  0.42204  0.00000  0.15592
      16     H     0.42749  0.42749  0.00000  0.14502
      17     C     3.15145  3.15145  0.00000 -0.30290
      18     H     0.42226  0.42226  0.00000  0.15548
      19     H     0.42392  0.42392  0.00000  0.15217
      20     C     3.23945  3.23945  0.00000 -0.47890
      21     H     0.42246  0.42246  0.00000  0.15509
      22     H     0.42450  0.42450  0.00000  0.15099
      23     H     0.41888  0.41888  0.00000  0.16225
      24     H     0.42095  0.42095  0.00000  0.15811
      25     H     0.42171  0.42171  0.00000  0.15659
      26     C     3.10542  3.10542  0.00000 -0.21084
      27     H     0.41206  0.41206  0.00000  0.17587
      28     H     0.39690  0.39690  0.00000  0.20620
      29     H     0.41093  0.41093  0.00000  0.17813

   Total alpha = 44.00000, Total beta = 44.00000, Total charge = -0.00000
